44
 energy: -74.401743026826 gnorm: 0.000078932103 xtb: 6.7.1 (edcfbbe)
O            3.87324406008831       -2.46340409889660        1.48358148058352
C            3.55223724653877       -1.47413599159392        0.84948858933559
C            4.55850759212760       -0.58318675827623        0.22878782469029
C            5.90788207067485       -0.88855481825730        0.38567202147200
C            6.88323879377632       -0.08724608100532       -0.17891572299997
C            6.52043023468202        1.03356702512811       -0.91151943952086
C            5.18399868804308        1.34774751971207       -1.07482293305624
C            4.19222149767647        0.54936316219258       -0.50975819623363
C            2.77781439930063        0.92913871348161       -0.70863401422246
O            2.45581577397772        1.91998724390441       -1.33666751183538
C            1.77183477313214        0.03699256722381       -0.08755045920091
C            0.42853921637799        0.34471551683890       -0.25297836246899
C           -0.56269267016435       -0.45230860494604        0.31520245668319
N           -1.90519499799834       -0.13001174903478        0.14751419241369
C           -2.91750935008238       -1.01377008001907       -0.19178072591775
C           -2.84758251015519       -2.36242256180180       -0.50791036519390
C           -4.02121962956040       -3.00690314935734       -0.85275017237569
C           -5.23731383836786       -2.33053933076401       -0.89561122205506
C           -5.30760593030520       -0.98049838126737       -0.61366634958524
C           -4.14173652495969       -0.31289534717036       -0.26495552225126
C           -3.85072134787923        1.05823405640049        0.05397643233063
C           -4.63913829267987        2.19522809827233        0.16590221377535
C           -4.03627395043235        3.38416485125125        0.52609908815912
C           -2.67066130714152        3.44135654494205        0.79117738651810
C           -1.86619955796705        2.32178478120296        0.68676567520387
C           -2.46104315651874        1.13175968154704        0.29502001328733
C           -0.18953177907374       -1.57732562743475        1.05677640231899
C            1.14313996154242       -1.89025090098657        1.21355848890811
C            2.14173344040161       -1.09588413481335        0.65011860609718
H            6.16775625459894       -1.76619238770320        0.95900970083068
H            7.92620559990632       -0.33489130381248       -0.04910522940795
H            7.27995050596361        1.66092374984101       -1.35362761585554
H            4.87863279373949        2.21555007246034       -1.64067295048415
H            0.16858307948938        1.20348676716492       -0.85396777017336
H           -1.90896880941329       -2.89537109506630       -0.50376817841722
H           -3.99164313965956       -4.05796933564502       -1.09857584064355
H           -6.13258388937117       -2.87019644854233       -1.16560004920972
H           -6.24562099410038       -0.44936182868294       -0.66835395164987
H           -5.70107213347907        2.14413936309874       -0.02044365597156
H           -4.62976044243076        4.28165276518207        0.61529368513655
H           -2.22852018004457        4.38040306566692        1.08863650349139
H           -0.81326331919442        2.37917110791663        0.91578986564078
H           -0.95069026624769       -2.18304127413318        1.52438350500782
H            1.44478303516782       -2.75300936422324        1.78888210684943
