$hessian                                                                        
        0.1256265309   0.1317935585  -0.0848743503  -0.0879370487  -0.1052985579
        0.0679542513   0.0058784794   0.0156648140  -0.0106495949  -0.0024864019
        0.0034161981  -0.0021593575   0.0018761658   0.0008461826  -0.0004910031
       -0.0017370980  -0.0004648739   0.0002309202   0.0010091807  -0.0001664982
        0.0001004681  -0.0037147745  -0.0011204140   0.0004138191  -0.0010372101
        0.0064954111  -0.0040164620   0.0000182250  -0.0057587359   0.0037535418
       -0.0009657441   0.0024403489  -0.0001362148  -0.0027294090  -0.0015575898
        0.0007129485   0.0008493940   0.0000430411   0.0001256763   0.0004197890
       -0.0000790537   0.0002947385   0.0002390632  -0.0002088452   0.0000687133
        0.0000372555   0.0000498599   0.0000369429   0.0000053056  -0.0000320755
       -0.0000197625  -0.0000091877  -0.0000750473   0.0000289379  -0.0000175104
        0.0000956093   0.0000020213  -0.0000845533  -0.0000315563  -0.0000060964
       -0.0000286922  -0.0000273286   0.0000356716   0.0000315761  -0.0002062079
       -0.0000167282  -0.0000910569   0.0001239493   0.0000573611  -0.0000352354
        0.0000562425  -0.0000786432  -0.0000747461  -0.0000274948  -0.0000773457
       -0.0000450844   0.0000027552  -0.0000552750  -0.0002246198  -0.0006961850
        0.0003384079   0.0013753858  -0.0044399674   0.0027891114  -0.0381317436
       -0.0408547340   0.0259558710   0.0013486056   0.0003858066  -0.0001963755
       -0.0000117714   0.0001234079  -0.0001089645   0.0000066474   0.0002250710
       -0.0001241815   0.0001600564   0.0001716914  -0.0001240727  -0.0001480567
       -0.0004983094   0.0001044704  -0.0001149275  -0.0001461410  -0.0000207621
       -0.0000118803  -0.0000649819  -0.0000160870   0.0000929075  -0.0000625544
       -0.0000280441   0.0000199102   0.0000518806   0.0000018730   0.0000179274
       -0.0000280394  -0.0000195219   0.0000476871   0.0000222930   0.0000286636
       -0.0000483518   0.0000360246   0.0000200663  -0.0000668471   0.0000690973
        0.0001021501   0.0001385203  -0.0000672499  -0.0000374419   0.0005533380
       -0.0002008015   0.0000996594
        0.1317935585   0.4205681007  -0.2642500069  -0.1033967528  -0.3376229272
        0.1929087280   0.0161304380  -0.0529904316   0.0427513217  -0.0092789744
        0.0003898434  -0.0005753908   0.0015573407  -0.0008631712   0.0006550896
       -0.0035512264   0.0002862595  -0.0002498498   0.0032774240  -0.0032912846
        0.0019495663  -0.0013804250   0.0025073397   0.0007450339   0.0040100737
        0.0166896769  -0.0111593742  -0.0051567866  -0.0154320351   0.0097669823
        0.0050978484  -0.0011940839   0.0035128685  -0.0063787734  -0.0008548785
        0.0007453219   0.0029373307  -0.0020271473   0.0012089339   0.0000581374
        0.0001788748   0.0001016941   0.0003409446  -0.0001128848   0.0000982756
       -0.0002500526  -0.0001199776   0.0000380787   0.0001947883  -0.0001570496
       -0.0000617579  -0.0002156333  -0.0005436497   0.0000431368  -0.0002339363
        0.0008660310   0.0002454610   0.0002719869  -0.0007024352  -0.0002679554
        0.0000846446   0.0007495619   0.0003724381   0.0000702524  -0.0010776759
       -0.0002061920  -0.0005033948   0.0005350198   0.0002555616   0.0000873858
        0.0002239143  -0.0002617212  -0.0002719621  -0.0000482853  -0.0001537236
       -0.0000000119  -0.0002737075   0.0001691447  -0.0023359506   0.0007611339
       -0.0010668679   0.0103649510  -0.0024566814   0.0019126120  -0.0427350917
       -0.0242890490   0.0215448079   0.0014218263   0.0001934105  -0.0002063695
       -0.0001556911   0.0003901869  -0.0003043717  -0.0001725776  -0.0001333054
        0.0000269411  -0.0005559028  -0.0004845917   0.0002723955  -0.0001861447
       -0.0000150817  -0.0001774113  -0.0003768830  -0.0002775154   0.0000082169
       -0.0000381404  -0.0002015570  -0.0000452405   0.0004087613  -0.0002348261
       -0.0001306413   0.0001477676   0.0002013363   0.0000041577   0.0001268729
       -0.0000751719  -0.0000826726   0.0002358030   0.0001390376   0.0000944433
       -0.0001395617   0.0001605232   0.0000770535  -0.0001856080   0.0000392266
        0.0002154628   0.0004357870  -0.0000258115   0.0000482707  -0.0015544420
        0.0006257391  -0.0005724517
       -0.0848743503  -0.2642500069   0.1958971397   0.0669828217   0.1942502465
       -0.1723996879  -0.0100101355   0.0419569609  -0.0187709351   0.0058512430
       -0.0003579257  -0.0002203683  -0.0009289604   0.0002409904  -0.0007065985
        0.0021471770  -0.0000800538   0.0002089216  -0.0018583202   0.0021554377
       -0.0011597104   0.0003471242   0.0009419987   0.0022634635  -0.0023108746
       -0.0110765930   0.0061398898   0.0031698670   0.0096173730  -0.0064584147
       -0.0029825340   0.0032354090   0.0007647472   0.0035296255   0.0007646230
       -0.0003953469  -0.0008007269   0.0014301104  -0.0007540013  -0.0010360307
       -0.0003330594   0.0000177597   0.0000424234  -0.0001644600  -0.0001123744
        0.0000693028   0.0001385126   0.0000398260  -0.0000545525   0.0000934386
        0.0000338573   0.0000970332   0.0003629629  -0.0000174209   0.0001517533
       -0.0005668286  -0.0001650515  -0.0002453890   0.0003548220   0.0001532089
       -0.0001548775  -0.0003928607  -0.0002260558  -0.0000733441   0.0007482019
        0.0001790209   0.0003069378  -0.0003976809  -0.0001787462   0.0000326292
       -0.0001292008   0.0001959177   0.0002490154  -0.0001206784   0.0000696750
        0.0000855938   0.0005617442  -0.0002238120   0.0009367729  -0.0012545587
        0.0003949342  -0.0060067831   0.0008221050  -0.0016285341   0.0270777244
        0.0217286817  -0.0031294072  -0.0008687670  -0.0002147854   0.0000493313
        0.0000944752  -0.0001944371   0.0002543791   0.0000942863  -0.0000051964
       -0.0001503125   0.0003092306   0.0003450849  -0.0001403402   0.0000562317
        0.0000495793   0.0001355418   0.0002476672   0.0001860684  -0.0000261821
        0.0000126630   0.0001468139   0.0000339562  -0.0002615523   0.0001555775
        0.0000821125  -0.0000903699  -0.0001247672  -0.0000038359  -0.0000849406
        0.0000465603   0.0000627567  -0.0001573169  -0.0000850985  -0.0000725865
        0.0000900122  -0.0000925584  -0.0000545613   0.0001023029  -0.0000087674
       -0.0001700673  -0.0002947078   0.0001089931   0.0000700911   0.0010106196
       -0.0005927784   0.0001178205
       -0.0879370487  -0.1033967528   0.0669828217   0.4615968187   0.0645244314
       -0.0358294268  -0.0993514418   0.0409746844  -0.0287541721  -0.0513703772
        0.0207331976  -0.0156262271  -0.0020687243  -0.0133667666   0.0084013384
        0.0039136820   0.0068219783  -0.0045026802  -0.0011075313  -0.0002058377
       -0.0000725314   0.0185168546   0.0205678218  -0.0125663432  -0.0111813478
       -0.0073424689   0.0038166977   0.0003484745   0.0090450661  -0.0058084097
       -0.0203793994  -0.0348227176   0.0197493555   0.0046846370   0.0009626961
        0.0002997485  -0.0050675452  -0.0080681139   0.0056573368   0.0009631523
        0.0003774211  -0.0007074953  -0.0003315056   0.0001830318  -0.0001681967
        0.0000878103  -0.0000265656  -0.0000046262  -0.0000488871   0.0000458951
        0.0000288078   0.0000612710   0.0001754856  -0.0000157226   0.0000958384
       -0.0002611511  -0.0000746375  -0.0001286275   0.0001829874  -0.0000179069
       -0.0001727657  -0.0001441354  -0.0001032233  -0.0000088484   0.0004339431
        0.0001503663   0.0001826869  -0.0002191827  -0.0001188239   0.0000325071
       -0.0001212647   0.0001886958   0.0002269687  -0.0000015490   0.0000654945
        0.0000011275   0.0003042250  -0.0002330846   0.0127634523   0.0124011246
       -0.0071344703  -0.0633579979   0.0109487663  -0.0081024168  -0.1578938429
       -0.0212461617   0.0140396268   0.0002411238   0.0003654173  -0.0000770474
       -0.0008865576   0.0006475472  -0.0003496719   0.0000675121  -0.0001036426
        0.0001660361  -0.0016250648  -0.0004857700   0.0002928649  -0.0010808219
        0.0011641591  -0.0002661463   0.0000722571   0.0001540104  -0.0000140282
        0.0000085937   0.0000709329   0.0000199532  -0.0001104571   0.0000706302
        0.0000359331  -0.0000394901  -0.0000603338   0.0000174276  -0.0000324990
        0.0000104782   0.0000619374  -0.0000710448  -0.0000263011  -0.0000667250
        0.0000432606  -0.0000452310  -0.0000266797   0.0000521971  -0.0000105728
       -0.0001274829  -0.0009862743  -0.0002248527   0.0001588179   0.0012778748
       -0.0009865593   0.0006349160
       -0.1052985579  -0.3376229272   0.1942502465   0.0645244314   0.5113322830
       -0.2526747141   0.0414487833  -0.0899921715   0.0265036068   0.0247770042
       -0.0003566912   0.0023583139  -0.0058026075   0.0087380842  -0.0024822972
        0.0032748895  -0.0035263922   0.0022060514  -0.0062213767   0.0019017597
        0.0011331607   0.0116996962  -0.0308961867   0.0204494044  -0.0002413315
       -0.0171195593   0.0118521825   0.0055285295   0.0160469374  -0.0108617306
       -0.0301801552  -0.0036556061   0.0022657251   0.0077421253  -0.0017313240
        0.0028643808  -0.0039935557   0.0025844289  -0.0016224373   0.0008062713
       -0.0000875800  -0.0006284534  -0.0004546778   0.0001974590  -0.0002308085
        0.0003320812   0.0001176600  -0.0000632334  -0.0002794822   0.0002453624
        0.0001280239   0.0003122796   0.0007780326  -0.0000237732   0.0003279994
       -0.0012393746  -0.0003429574  -0.0004639035   0.0011144675   0.0004257745
       -0.0000696111  -0.0012109114  -0.0004818756  -0.0001335375   0.0014725255
        0.0002881120   0.0006829925  -0.0007343147  -0.0003371156  -0.0001769528
       -0.0003218177   0.0002346527   0.0004009676   0.0001000694   0.0001066771
       -0.0001106638   0.0000492664  -0.0000506633   0.0056730603  -0.0010198430
        0.0047258853   0.0051385584   0.0068831528  -0.0045615417  -0.0202193763
       -0.0593085184   0.0058782073  -0.0029930866  -0.0006266286  -0.0012902003
       -0.0001622393  -0.0005011244   0.0003463324   0.0003105081  -0.0000235190
       -0.0003452477   0.0014198827  -0.0002565460   0.0002227222  -0.0004329260
       -0.0007371617   0.0004547643   0.0004137369   0.0003070350   0.0000140166
        0.0000408069   0.0002218263   0.0000564443  -0.0004752646   0.0002782595
        0.0001491899  -0.0001655551  -0.0002354563   0.0000064278  -0.0001534181
        0.0000945779   0.0000857307  -0.0002815466  -0.0001626218  -0.0000873032
        0.0001542431  -0.0001621684  -0.0000731270   0.0002000976  -0.0000304381
       -0.0001569477   0.0003705796   0.0002736685   0.0001269805   0.0027303014
       -0.0011779738  -0.0008185865
        0.0679542513   0.1929087280  -0.1723996879  -0.0358294268  -0.2526747141
        0.3005431400  -0.0313878419   0.0279287806  -0.0708678890  -0.0174734335
        0.0028953623   0.0009414311   0.0035920820  -0.0021410742   0.0069667353
       -0.0018586282   0.0019198662  -0.0017967467   0.0035074971   0.0009838245
        0.0020610588  -0.0069684282   0.0197224601  -0.0135981837  -0.0008117161
        0.0103482237  -0.0048409123  -0.0030056405  -0.0099906827   0.0056753582
        0.0177109257   0.0007632549  -0.0011137654  -0.0027588626   0.0024837532
        0.0010957714  -0.0017463673  -0.0025448084   0.0013337013   0.0035714187
        0.0005185620  -0.0007717477  -0.0005283034   0.0008646850   0.0002066654
       -0.0000535053  -0.0005137795  -0.0001871242  -0.0000906992  -0.0001478109
       -0.0000733334  -0.0000848345  -0.0006159614  -0.0000351976  -0.0002301934
        0.0009601338   0.0003147788   0.0006535603  -0.0003881468  -0.0001982531
        0.0005958995   0.0004985653   0.0002839312   0.0001278047  -0.0012693288
       -0.0003823801  -0.0004194964   0.0007116812   0.0003042928  -0.0002026082
        0.0001680681  -0.0002635419  -0.0004639377   0.0005640462   0.0001284531
       -0.0005801917  -0.0018111551   0.0003902036  -0.0014444885   0.0061056627
        0.0019604787  -0.0059205569  -0.0008015020   0.0048822283   0.0141898376
        0.0045841988  -0.0558397198   0.0021055351  -0.0012127872  -0.0015753643
        0.0000725368   0.0002433757  -0.0003762774  -0.0001323962  -0.0001949484
       -0.0001652218  -0.0009703789   0.0001707795  -0.0002268733   0.0004897376
        0.0003209608  -0.0004096353  -0.0002335246  -0.0002158531   0.0000421830
       -0.0000166795  -0.0001501523  -0.0000383602   0.0002995952  -0.0001814383
       -0.0000853497   0.0001087996   0.0001456784  -0.0000094773   0.0000956336
       -0.0000435468  -0.0001071974   0.0001890223   0.0000922745   0.0001022078
       -0.0000944989   0.0000868292   0.0000530938  -0.0001049364  -0.0000401094
        0.0001848086  -0.0000760226  -0.0002770179  -0.0002117187  -0.0017765396
       -0.0007749376  -0.0018965630
        0.0058784794   0.0161304380  -0.0100101355  -0.0993514418   0.0414487833
       -0.0313878419   0.5813430236   0.0405539268  -0.0136561924  -0.2580095818
       -0.0740356250   0.0434963857  -0.0608367008   0.0531352327  -0.0368358980
       -0.0229244041  -0.0275956361   0.0177069855   0.0314745549   0.0055599892
       -0.0028117790  -0.0920104119  -0.0440285452   0.0282854897  -0.0186897710
       -0.0265642494   0.0170624016  -0.0009105692   0.0029220565  -0.0019273149
        0.0003429826   0.0084911832  -0.0053638397   0.0022879192   0.0001415873
        0.0003060842   0.0000506696   0.0043397231  -0.0025837541   0.0000604077
       -0.0000776399   0.0000543438  -0.0004108528   0.0005347282   0.0000439617
       -0.0001982580  -0.0002439972  -0.0000907641   0.0000636619  -0.0001305619
        0.0000127263  -0.0001146077  -0.0004097118  -0.0001032417  -0.0001553032
        0.0006285059   0.0002478489   0.0005604280  -0.0003618818  -0.0002021983
        0.0004284478   0.0005629951   0.0000678021   0.0000627299  -0.0006914076
       -0.0002483942  -0.0002552852   0.0003772945   0.0001557569   0.0000197522
        0.0001532690   0.0000033921  -0.0002945671   0.0002207720   0.0001054217
       -0.0002470563  -0.0007073092  -0.0000317719  -0.0038972957  -0.0041099056
        0.0022665811   0.0009384556  -0.0013724709   0.0010372712  -0.0499900698
        0.0056151984  -0.0049459028  -0.0133571091  -0.0046245077   0.0025037811
       -0.0019472610   0.0024765966  -0.0017639985  -0.0000349209  -0.0008145213
        0.0005190219  -0.0004677320   0.0027089635  -0.0019871858   0.0004823230
       -0.0002837214  -0.0000339826   0.0000070651   0.0000447238  -0.0000192067
       -0.0000044052   0.0000245330  -0.0000019492   0.0000114133   0.0000015149
       -0.0000239275   0.0000154041   0.0000038083   0.0000053935   0.0000099409
       -0.0000008540  -0.0000080487   0.0000255537  -0.0000020404   0.0000080933
        0.0000167739  -0.0000164742  -0.0000106897   0.0000267065  -0.0000255267
       -0.0000062204  -0.0001881900   0.0000707317   0.0000719910   0.0001891017
       -0.0000499678   0.0000935041
        0.0156648140  -0.0529904316   0.0419569609   0.0409746844  -0.0899921715
        0.0279287806   0.0405539268   0.4620500343  -0.2307647728  -0.0358018649
       -0.0801297570   0.0204857755   0.0083056527   0.0188622002  -0.0108213015
       -0.0201257218  -0.0122049583   0.0038685244   0.0328575082  -0.0340105996
        0.0235224972  -0.0519594026  -0.1992423940   0.1000082981  -0.0354334348
       -0.0058723246   0.0018898387   0.0025838276   0.0002795717   0.0021996564
        0.0077364330  -0.0114641159   0.0061227558  -0.0050267209   0.0011500104
        0.0001099562   0.0013787328  -0.0045491651   0.0035584130  -0.0007238736
       -0.0002049143  -0.0000633859   0.0003014602  -0.0002017133  -0.0000784113
       -0.0002216912  -0.0000131676   0.0000472173   0.0001949400  -0.0001909343
       -0.0000700947  -0.0001544626  -0.0004405551  -0.0000308396  -0.0000905351
        0.0006336123   0.0001827684   0.0002003380  -0.0006014953  -0.0002707983
       -0.0000397765   0.0006569868   0.0002192464   0.0001522569  -0.0006934053
       -0.0001533619  -0.0003415071   0.0004252283   0.0001751964   0.0001369947
        0.0002412147  -0.0000243389  -0.0002454678  -0.0000984627  -0.0000406165
        0.0001382700   0.0003399660  -0.0000320921   0.0041028509   0.0032130324
       -0.0022923362  -0.0068435737   0.0038186805  -0.0003772836   0.0221591999
        0.0059820321  -0.0006301038  -0.0228450374  -0.0064927805   0.0046684691
        0.0026114561   0.0013710137   0.0046145269  -0.0008026882   0.0001827150
       -0.0000425345   0.0013358968   0.0003684587   0.0041925046  -0.0001600452
        0.0002411084  -0.0002273374  -0.0001320450  -0.0000742568  -0.0000360359
       -0.0000220688  -0.0000371112  -0.0000156669   0.0001456746  -0.0000870893
       -0.0000584913   0.0000360506   0.0000810053   0.0000117288   0.0000303919
       -0.0000498792  -0.0000166096   0.0000918832   0.0000348026   0.0000188245
       -0.0000422132   0.0000199254   0.0000039741  -0.0000540436   0.0000773989
        0.0000548727   0.0001124255  -0.0001810060  -0.0001448522  -0.0007394948
       -0.0002063088   0.0003504786
       -0.0106495949   0.0427513217  -0.0187709351  -0.0287541721   0.0265036068
       -0.0708678890  -0.0136561924  -0.2307647728   0.2673098146   0.0181018202
        0.0196386362  -0.0595114567  -0.0069486591  -0.0092059971   0.0079121248
        0.0126087003   0.0034351202  -0.0072080297  -0.0208971070   0.0220531694
       -0.0159536131   0.0334616268   0.1001079935  -0.1123157346   0.0227193411
        0.0035385318  -0.0022123464  -0.0016731875   0.0019677772   0.0018853363
       -0.0039225525   0.0066812872  -0.0065462314   0.0023953682  -0.0000495540
        0.0004012912   0.0008275348   0.0036011521  -0.0018766984  -0.0010986727
       -0.0003212875   0.0000219976   0.0001229392  -0.0001805810   0.0000293399
        0.0000931994   0.0001766877   0.0000465739  -0.0000119658   0.0001261280
        0.0000367710   0.0000237300   0.0002693578   0.0000290635   0.0000604012
       -0.0004003298  -0.0001299909  -0.0002027888   0.0001785888   0.0001277176
       -0.0001812213  -0.0002656212  -0.0001031893  -0.0000894219   0.0004908030
        0.0001506236   0.0001667195  -0.0003090975  -0.0001208934   0.0000217800
       -0.0001448442   0.0000459882   0.0002330846  -0.0001523609  -0.0000462151
        0.0000552348   0.0003956536  -0.0001367275  -0.0035581568  -0.0030406880
        0.0015094584   0.0054256692  -0.0008261521   0.0037221319  -0.0175102184
       -0.0000164255   0.0052838513   0.0147916711   0.0050484116  -0.0017318075
       -0.0019473483   0.0044015347   0.0049222181   0.0005168983   0.0001019878
        0.0004147358  -0.0009010942   0.0042299261   0.0039317280   0.0001015364
       -0.0001673656   0.0001160277   0.0000715828   0.0000478359   0.0000057052
        0.0000137637   0.0000196212   0.0000091198  -0.0000877168   0.0000558884
        0.0000349084  -0.0000244133  -0.0000498211  -0.0000076459  -0.0000215303
        0.0000229531   0.0000291021  -0.0000569194  -0.0000215860  -0.0000275222
        0.0000269319  -0.0000065726  -0.0000039959   0.0000275928  -0.0000313391
       -0.0000551960  -0.0000948086  -0.0001899448  -0.0004022526   0.0004206158
        0.0003003671   0.0000527422
       -0.0024864019  -0.0092789744   0.0058512430  -0.0513703772   0.0247770042
       -0.0174734335  -0.2580095818  -0.0358018649   0.0181018202   0.6164533947
       -0.0203990524   0.0260583732  -0.2117288721   0.0776255534  -0.0549840629
        0.0439069366   0.0453721114  -0.0289278176  -0.0439479417   0.0084170843
       -0.0063797238  -0.0143844301  -0.0525073009   0.0340473064   0.0032644289
        0.0052082857  -0.0034723364  -0.0022464601  -0.0047575446   0.0030630279
        0.0021929067  -0.0051024229   0.0035139645  -0.0020735428   0.0000834308
       -0.0002175704   0.0002217881  -0.0029510005   0.0018375510   0.0000521815
       -0.0000219203   0.0000354468   0.0002600534  -0.0002873912  -0.0000287778
        0.0001377575   0.0001476913   0.0000576494  -0.0000203325   0.0000833892
       -0.0000154544   0.0000277540   0.0001678329   0.0000658698   0.0000574126
       -0.0002515091  -0.0001020750  -0.0002684304   0.0001033414   0.0000781050
       -0.0001975131  -0.0002147889   0.0000020470  -0.0000312813   0.0002317251
        0.0000978366   0.0000694931  -0.0001460763  -0.0000465212   0.0000040966
       -0.0000676464  -0.0000426408   0.0001228659  -0.0000994480  -0.0000805480
        0.0000900214   0.0002740387   0.0000482382   0.0023269426   0.0031704693
       -0.0018149696  -0.0050494270   0.0009527730  -0.0004970028   0.0073497113
        0.0060633309  -0.0044042140  -0.0597160390  -0.0562144437   0.0367668180
       -0.0244982958   0.0169825976  -0.0118801692   0.0005862191  -0.0015734609
        0.0007872302  -0.0010896579   0.0002869426  -0.0001385496  -0.0000447892
        0.0001226398  -0.0000315348  -0.0000490363  -0.0000651975  -0.0000014155
        0.0000035700  -0.0000428824  -0.0000108173   0.0000470549  -0.0000327996
       -0.0000000325   0.0000145148   0.0000210704  -0.0000046775   0.0000138263
       -0.0000062191  -0.0000080906   0.0000221671   0.0000246615   0.0000107603
       -0.0000205424   0.0000318192   0.0000127222  -0.0000485252   0.0000226372
        0.0000401533  -0.0000447080  -0.0000940547  -0.0000561454   0.0001010885
       -0.0002544313   0.0001424175
        0.0034161981   0.0003898434  -0.0003579257   0.0207331976  -0.0003566912
        0.0028953623  -0.0740356250  -0.0801297570   0.0196386362  -0.0203990524
        0.5123439876  -0.2670277067   0.1402101969  -0.1743930079   0.0898486215
        0.0008391360  -0.0422051000   0.0288841238   0.0136578686  -0.0015420810
        0.0008091222  -0.0248734496  -0.0034115315   0.0010936189  -0.0006422920
       -0.0014592315   0.0032633216  -0.0011114129  -0.0007099368   0.0003966892
        0.0004786316   0.0008372025  -0.0000527529   0.0000131189  -0.0004615562
        0.0001587776   0.0004203553   0.0005400540  -0.0006188018  -0.0002625565
       -0.0001280539   0.0000840767   0.0000384709  -0.0000956580   0.0000601696
        0.0001231749   0.0001261801   0.0000240638  -0.0000343838   0.0001154906
        0.0000365919   0.0000336053   0.0002600210   0.0000612850   0.0000230127
       -0.0003566088  -0.0001206760  -0.0001702821   0.0002149334   0.0001081950
       -0.0001282154  -0.0002740683  -0.0000772093  -0.0000939245   0.0003902423
        0.0001328301   0.0001392480  -0.0002567888  -0.0001018846   0.0000004394
       -0.0001421887  -0.0000007004   0.0001723213  -0.0000762694  -0.0000409094
        0.0000397853   0.0002052569  -0.0000370253  -0.0007524907  -0.0004311521
        0.0000344235   0.0014115526  -0.0010477971   0.0000013298  -0.0000288521
        0.0000632644   0.0024268748  -0.0563896074  -0.2090136533   0.1147082487
       -0.0021751842   0.0029906522  -0.0012245470  -0.0015327843  -0.0024817070
        0.0051213320   0.0009243506   0.0003416652  -0.0002797737  -0.0001482283
        0.0000309653   0.0000630120  -0.0000018936   0.0000090534   0.0000015378
        0.0000045632  -0.0000267597  -0.0000102147  -0.0000015344  -0.0000021518
        0.0000008930   0.0000161398  -0.0000055012  -0.0000083066   0.0000182488
        0.0000091321   0.0000032908   0.0000018946   0.0000202790  -0.0000086563
       -0.0000019688   0.0000271884   0.0000078534  -0.0000104791  -0.0000043664
       -0.0000307899  -0.0000451469   0.0000539728   0.0001106231   0.0001238539
        0.0000422329   0.0000229761
       -0.0021593575  -0.0005753908  -0.0002203683  -0.0156262271   0.0023583139
        0.0009414311   0.0434963857   0.0204857755  -0.0595114567   0.0260583732
       -0.2670277067   0.2883241110  -0.0968065925   0.0877942563  -0.1042637047
        0.0006103925   0.0303717041  -0.0186927046  -0.0099905862   0.0006992412
       -0.0014749784   0.0161889452   0.0011325676  -0.0009216707   0.0008585203
        0.0032833287   0.0009994655   0.0005358479   0.0003020541  -0.0002766676
        0.0002176565   0.0001797137   0.0003163327  -0.0003702401   0.0003494421
       -0.0000520066   0.0004454991  -0.0001797183  -0.0000431046  -0.0005436149
       -0.0001146236   0.0001249716   0.0001154995  -0.0000940416  -0.0000287367
       -0.0001005500   0.0000124481   0.0000227535   0.0000796273  -0.0000799173
       -0.0000125296  -0.0000521726  -0.0001405292  -0.0000278279  -0.0000237268
        0.0001997522   0.0000597820   0.0000634653  -0.0001993079  -0.0000825138
       -0.0000238008   0.0002161432   0.0000588762   0.0000431311  -0.0001905060
       -0.0000474775  -0.0000903964   0.0001133136   0.0000455022   0.0000560233
        0.0000829459   0.0000325512  -0.0000707954  -0.0000536871  -0.0000137815
        0.0000752059   0.0001937440  -0.0000444198   0.0002274445  -0.0002677710
       -0.0002554673  -0.0008028154   0.0000175908  -0.0007956938  -0.0002683318
        0.0022489357   0.0016858378   0.0368461150   0.1146689986  -0.1098970793
        0.0008203448  -0.0007782916   0.0017656379   0.0008592554   0.0051503485
        0.0019664486  -0.0006336746  -0.0003100420   0.0000610155   0.0000815767
       -0.0000062178   0.0000168876  -0.0000163605  -0.0000071355  -0.0000176405
       -0.0000041463   0.0000136806   0.0000064402   0.0000043748  -0.0000012026
       -0.0000072289  -0.0000076094   0.0000049000   0.0000068935  -0.0000077316
       -0.0000097494   0.0000076708  -0.0000001031  -0.0000068703  -0.0000057088
       -0.0000009919  -0.0000136121  -0.0000046925  -0.0000002032   0.0000124362
       -0.0000062844   0.0000255524   0.0001271438   0.0001718240  -0.0001092086
        0.0000375423   0.0000893116
        0.0018761658   0.0015573407  -0.0009289604  -0.0020687243  -0.0058026075
        0.0035920820  -0.0608367008   0.0083056527  -0.0069486591  -0.2117288721
        0.1402101969  -0.0968065925   0.6766599420  -0.0051408699   0.0171921078
       -0.1076820000  -0.0809780870   0.0521860061  -0.0135897481  -0.0274640061
        0.0177796386   0.0060577386   0.0088413178  -0.0056458957  -0.0045425906
       -0.0032678418   0.0019624561   0.0009718808   0.0028984634  -0.0018883740
       -0.0003721995   0.0008728258  -0.0006630751   0.0005757874   0.0002003909
        0.0000471440  -0.0001862234   0.0006212193  -0.0003064806  -0.0000671732
        0.0000087600  -0.0000046153  -0.0000469370   0.0000528053  -0.0000511907
       -0.0000421471   0.0000036264  -0.0000155041   0.0000011100  -0.0000353431
        0.0000143036  -0.0000023679  -0.0000622776   0.0000009901  -0.0000163105
        0.0000929828   0.0000336390   0.0000585363  -0.0000586586  -0.0000390019
        0.0000303105   0.0000845229   0.0000214397   0.0000273347  -0.0001049661
       -0.0000210993  -0.0000320121   0.0000808659   0.0000212535  -0.0000169723
        0.0000269249  -0.0000199409  -0.0000320459  -0.0000087321  -0.0000048688
       -0.0000182495  -0.0000599597   0.0000240502  -0.0001671003  -0.0007375196
        0.0004068274   0.0001207602   0.0002987933  -0.0002400913  -0.0017695929
       -0.0007788208   0.0004085177   0.0040170626  -0.0030904235   0.0020945128
       -0.2875067356  -0.0508059852   0.0275273835   0.0045783314   0.0158331810
       -0.0104493628  -0.0043262914  -0.0015793450   0.0006933552   0.0001420012
       -0.0000236528  -0.0000307455  -0.0000300013  -0.0000084718  -0.0000046996
       -0.0000057327  -0.0000244913  -0.0000098939   0.0000411342  -0.0000226360
       -0.0000214316   0.0000194592   0.0000220531   0.0000052325   0.0000169078
       -0.0000105730  -0.0000066799   0.0000291000   0.0000110547   0.0000075970
       -0.0000122518   0.0000211925   0.0000102186  -0.0000007018   0.0000061584
        0.0000167611   0.0000230995   0.0000207799   0.0000381089  -0.0001469800
       -0.0000058403   0.0000235377
        0.0008461826  -0.0008631712   0.0002409904  -0.0133667666   0.0087380842
       -0.0021410742   0.0531352327   0.0188622002  -0.0092059971   0.0776255534
       -0.1743930079   0.0877942563  -0.0051408699   0.4759345104  -0.2407844416
       -0.0181087913  -0.2133377254   0.1084709422  -0.0720472088  -0.0039591933
        0.0023157964   0.0163263476  -0.0313549354   0.0170305941  -0.0071305062
        0.0018905649  -0.0020881813   0.0001223862  -0.0015806136   0.0011508035
        0.0032629509  -0.0048667004   0.0037332799  -0.0024604108   0.0004955421
       -0.0004134896   0.0005645830  -0.0027022910   0.0017214495  -0.0002870940
       -0.0000323739   0.0000549367   0.0002335811  -0.0002402916  -0.0000513585
       -0.0000332134   0.0000631037   0.0000281702   0.0000403545  -0.0000544342
       -0.0000410025  -0.0000093240  -0.0000777150  -0.0000008964   0.0000275320
        0.0000854157   0.0000049865  -0.0000791858  -0.0001104452  -0.0000459632
       -0.0000893302   0.0000859702   0.0000613742   0.0000636134  -0.0000982520
       -0.0000173240  -0.0000552956   0.0001003254   0.0000343584   0.0000234586
        0.0000782128  -0.0000033318  -0.0000354081  -0.0000741448  -0.0000205934
        0.0001213502   0.0002580872   0.0000209132   0.0022751260   0.0022306402
       -0.0013295934  -0.0029618563   0.0008293183  -0.0007958040   0.0073114665
        0.0024667569  -0.0017791366   0.0157247393  -0.0155397054   0.0112914796
       -0.0509837022  -0.0502479222   0.0100552291  -0.0033692222  -0.0157156377
        0.0111104417  -0.0015506458   0.0031373257   0.0035895480   0.0000521481
        0.0000737948  -0.0000459297  -0.0000175464  -0.0000261694  -0.0000104732
       -0.0000102058   0.0000085636   0.0000025952   0.0000054885  -0.0000047035
       -0.0000005803  -0.0000125442   0.0000107628   0.0000019852  -0.0000145824
       -0.0000094942  -0.0000030078  -0.0000003613  -0.0000156902   0.0000022112
       -0.0000074892  -0.0000083010  -0.0000044250  -0.0000061571   0.0000290842