53
 energy: -91.571833615841 gnorm: 0.000023310052 xtb: 6.7.1 (edcfbbe)
O            4.04004236840867        0.57432643071039        2.22142185746054
C            3.24519751506577        0.32907496632802        1.33119863010444
C            1.78990724622900        0.31562479694568        1.53050243421496
C            1.27236803409349        0.56417131083533        2.78713454713057
C           -0.10654074746401        0.53707664336223        2.99761943153284
C           -0.96450246377837        0.29639557437656        1.95393487138990
C           -0.47669709848106        0.06477975494498        0.65186815490201
C           -1.32826148605260       -0.20029969452925       -0.46043849249762
N           -2.72194814968108       -0.15351536555557       -0.30481327681721
C           -3.36372420220260        1.06227685288637       -0.02682998660756
C           -2.66622148482999        2.26004587370660        0.08020704268205
C           -3.32817875321407        3.44353233568653        0.36548846609315
C           -4.69989409557335        3.45458872881076        0.53046451544887
C           -5.41542313867814        2.27703733610523        0.38065361922759
C           -4.75841560319206        1.09229223031927        0.09563731151325
O           -5.53729535903298       -0.02520844733968       -0.07462874255904
C           -4.90487993680321       -1.18614552786679       -0.44609038416059
C           -5.71033616982107       -2.28708242470328       -0.68013418980276
C           -5.14634463559323       -3.50845391313412       -1.01374511308114
C           -3.77193999490913       -3.62393191720706       -1.09211708384191
C           -2.96146222975038       -2.52304801942119       -0.86374791536041
C           -3.51186486529632       -1.28223127207674       -0.56382349763605
C           -0.78109325058896       -0.51309823393481       -1.69204374660775
C            0.59565520509408       -0.53207018737883       -1.87880002929672
C            1.45288147181424       -0.24474818684505       -0.83068752729031
C            0.92760277555848        0.04805452763148        0.44564634581354
C            2.90007967568294       -0.25272109818138       -1.05392417046724
O            3.41404397576858       -0.50852117778715       -2.12915424326575
N            3.68996995090480        0.04762770930995        0.04864110492203
C            5.11274058950832        0.05334231038548       -0.15825353898329
C            5.87968776504844       -0.99414836064058        0.32570295369487
C            7.24952849838572       -0.98161118906181        0.12851321598138
C            7.84487463270519        0.06708614282026       -0.55231005242927
C            7.07095039218912        1.10812597095368       -1.03697626216078
C            5.70122208579582        1.10716022590171       -0.83846874124874
H            1.95686155418629        0.76764761602346        3.59704043873026
H           -0.49608458169186        0.70830666834480        3.98900716707869
H           -2.02926656981976        0.27754786491731        2.12807854322391
H           -1.59729524669726        2.26983463958080       -0.06109031113524
H           -2.76012433696026        4.35672669057858        0.45164953647464
H           -5.21917236570144        4.37182768187150        0.75851893975346
H           -6.48948153596372        2.25395215870161        0.47638223545936
H           -6.77803711031020       -2.16579949167809       -0.58714182966631
H           -5.78184215010123       -4.36043290642063       -1.19628388117434
H           -3.31622412192894       -4.57336471281818       -1.32692048856377
H           -1.88994064967622       -2.63456854208542       -0.91050923014111
H           -1.43660499145471       -0.71891489581118       -2.52486112507777
H            1.01794254639085       -0.75054677843767       -2.84802321601107
H            5.40407296021786       -1.80672232446263        0.85524862769745
H            7.85034265651624       -1.79483653839287        0.50704677063692
H            8.91349393541877        0.07272496995889       -0.70580169120578
H            7.53216447808268        1.92668470707246       -1.56883428735475
H            5.08746901216344        1.91414648669130       -1.21115570672753
