 Entering Gaussian System
 *********************************************
 Gaussian 98:
 frequency output generated by the xtb code
 *********************************************
                         Standard orientation:
 --------------------------------------------------------------------
  Center     Atomic     Atomic              Coordinates (Angstroms)
  Number     Number      Type              X           Y           Z
 --------------------------------------------------------------------
    1          6             0       12.494023    5.482392   -0.361429
    2          8             0       12.758804    4.256343    0.276006
    3          6             0       11.851625    3.249953    0.155603
    4          6             0       10.663056    3.323610   -0.564491
    5          6             0        9.815214    2.233611   -0.619694
    6          6             0       10.124624    1.049207    0.045064
    7          7             0        9.259295   -0.046996   -0.010434
    8          6             0        9.778855   -1.343943   -0.064564
    9          6             0        9.145570   -2.391644    0.600108
   10          6             0        9.648821   -3.677419    0.544677
   11          6             0       10.809577   -3.944318   -0.175344
   12          8             0       11.393182   -5.166619   -0.295838
   13          6             0       10.786582   -6.268400    0.335509
   14          6             0       11.450082   -2.893623   -0.838259
   15          6             0       10.943564   -1.616235   -0.787626
   16          6             0        7.876676    0.151381   -0.010115
   17          6             0        7.039109   -0.676930   -0.760650
   18          6             0        5.675722   -0.483775   -0.751440
   19          6             0        5.097059    0.545194   -0.004864
   20          6             0        3.646974    0.744264    0.000998
   21          6             0        3.092358    2.039066    0.027036
   22          6             0        1.735317    2.215829    0.037393
   23          6             0        0.859002    1.118149    0.022945
   24          6             0        1.401910   -0.179596    0.010531
   25          6             0        2.790567   -0.341032   -0.008168
   26          6             0        0.568506   -1.373987    0.013357
   27          8             0        1.048388   -2.519312    0.004578
   28          6             0       -0.860518   -1.124753    0.015899
   29          6             0       -1.737013   -2.222326    0.003712
   30          6             0       -3.094038   -2.045419    0.011550
   31          6             0       -3.648900   -0.750502    0.031272
   32          6             0       -5.098867   -0.550876    0.029039
   33          6             0       -5.680629    0.487781    0.759808
   34          6             0       -7.043674    0.683521    0.757789
   35          6             0       -7.877925   -0.152895    0.012703
   36          7             0       -9.260230    0.048876    0.000758
   37          6             0       -9.775807    1.348183    0.024311
   38          6             0      -10.946150    1.639086    0.730871
   39          6             0      -11.448900    2.918822    0.750265
   40          6             0      -10.798938    3.953541    0.071597
   41          8             0      -11.380014    5.179747    0.160592
   42          6             0      -10.764847    6.265896   -0.489287
   43          6             0       -9.632120    3.668282   -0.631378
   44          6             0       -9.132610    2.380107   -0.655436
   45          6             0      -10.127398   -1.046352   -0.039336
   46          6             0       -9.823237   -2.218888    0.648556
   47          6             0      -10.672687   -3.308309    0.609362
   48          6             0      -11.857624   -3.245995   -0.117755
   49          8             0      -12.766110   -4.252838   -0.223759
   50          6             0      -12.506968   -5.467035    0.438203
   51          6             0      -12.167429   -2.069098   -0.805040
   52          6             0      -11.317470   -0.988782   -0.770264
   53          6             0       -7.304218   -1.192394   -0.722149
   54          6             0       -5.940342   -1.386124   -0.708757
   55          6             0       -2.792099    0.334584    0.040093
   56          6             0       -1.403445    0.173011    0.025829
   57          6             0       -0.570058    1.367372    0.024706
   58          8             0       -1.049934    2.512710    0.033989
   59          6             0        5.941414    1.372146    0.738775
   60          6             0        7.305568    1.179897    0.742188
   61          6             0       11.318556    0.980053    0.768615
   62          6             0       12.166929    2.060994    0.819210
   63          1             0       12.425671    5.364618   -1.447723
   64          1             0       11.573067    5.940170    0.013732
   65          1             0       13.338596    6.126659   -0.122617
   66          1             0       10.388337    4.221140   -1.095331
   67          1             0        8.901861    2.298473   -1.192040
   68          1             0        8.250878   -2.195164    1.171719
   69          1             0        9.129680   -4.459944    1.074526
   70          1             0        9.774112   -6.441328   -0.042891
   71          1             0       10.752235   -6.140515    1.422229
   72          1             0       11.411907   -7.126483    0.094544
   73          1             0       12.345266   -3.112262   -1.398108
   74          1             0       11.441059   -0.816826   -1.315760
   75          1             0        7.472272   -1.464017   -1.360352
   76          1             0        5.045848   -1.120511   -1.353828
   77          1             0        3.746828    2.898248    0.009448
   78          1             0        1.295729    3.202735    0.046132
   79          1             0        3.171118   -1.352207    0.000105
   80          1             0       -1.297610   -3.209339   -0.001713
   81          1             0       -3.748245   -2.904731    0.031264
   82          1             0       -5.053725    1.130931    1.358422
   83          1             0       -7.479320    1.479286    1.344117
   84          1             0      -11.451171    0.852386    1.270810
   85          1             0      -12.348567    3.151779    1.297003
   86          1             0      -11.390364    7.130490   -0.273404
   87          1             0       -9.755576    6.445001   -0.105256
   88          1             0      -10.720556    6.113776   -1.572523
   89          1             0       -9.105307    4.438080   -1.172180
   90          1             0       -8.233137    2.169152   -1.214236
   91          1             0       -8.912744   -2.274683    1.226386
   92          1             0      -10.402114   -4.196325    1.158029
   93          1             0      -12.443760   -5.328717    1.522385
   94          1             0      -13.351649   -6.114103    0.207483
   95          1             0      -11.585091   -5.933652    0.076435
   96          1             0      -13.084909   -2.033538   -1.370310
   97          1             0      -11.563167   -0.090663   -1.316516
   98          1             0       -7.938644   -1.834947   -1.315195
   99          1             0       -5.514010   -2.178466   -1.305618
  100          1             0       -3.172011    1.345941    0.027842
  101          1             0        5.517175    2.156479    1.347632
  102          1             0        7.942347    1.815423    1.340241
  103          1             0       11.568533    0.072256    1.296632
  104          1             0       13.087347    2.016513    1.379045
 --------------------------------------------------------------------
     1 basis functions        1 primitive gaussians
     1 alpha electrons        1 beta electrons
 
 Harmonic frequencies (cm**-1), IR intensities (km*mol⁻¹),
 Raman scattering activities (A**4/amu), Raman depolarization ratios,
 reduced masses (AMU), force constants (mDyne/A) and normal coordinates:
                      1                      2                      3
                        a                      a                      a 
 Frequencies --     5.6545                 6.0573                 9.0312
 Red. masses --    12.0008                12.0345                12.0817
 Frc consts  --     0.0000                 0.0000                 0.0000
 IR Inten    --     0.4782                 0.3250                 0.6674
 Raman Activ --     0.0000                 0.0000                 0.0000
 Depolar     --     0.0000                 0.0000                 0.0000
 Atom AN      X      Y      Z        X      Y      Z        X      Y      Z
   1   6     0.05  -0.01   0.29     0.04  -0.03  -0.07     0.18  -0.12  -0.03
   2   8     0.03  -0.04   0.29     0.02  -0.02  -0.03     0.17  -0.15  -0.04
   3   6     0.02  -0.03   0.20     0.02  -0.01  -0.02     0.11  -0.09  -0.03
   4   6     0.04   0.00   0.16     0.03  -0.03  -0.04     0.10  -0.05  -0.02
   5   6     0.03   0.01   0.10     0.03  -0.02  -0.03     0.07  -0.02  -0.01
   6   6     0.00  -0.01   0.08     0.01  -0.01   0.01     0.03  -0.04  -0.02
   7   7    -0.00  -0.00   0.02     0.00  -0.00   0.02    -0.00  -0.01  -0.02
   8   6    -0.01  -0.00  -0.01    -0.01  -0.01   0.08    -0.04  -0.02  -0.02
   9   6    -0.03  -0.02  -0.05    -0.03   0.02   0.09    -0.07  -0.00  -0.01
  10   6    -0.03  -0.02  -0.08    -0.04   0.01   0.15    -0.11  -0.02  -0.01
  11   6    -0.02  -0.01  -0.06    -0.02  -0.02   0.19    -0.13  -0.06  -0.03
  12   8    -0.03  -0.01  -0.09    -0.03  -0.03   0.29    -0.20  -0.09  -0.04
  13   6    -0.04  -0.02  -0.13    -0.05  -0.00   0.27    -0.21  -0.06  -0.03
  14   6     0.00   0.01  -0.01     0.00  -0.05   0.17    -0.10  -0.08  -0.03
  15   6     0.01   0.01   0.01     0.01  -0.04   0.12    -0.06  -0.06  -0.03
  16   6    -0.00   0.01  -0.01     0.00   0.01  -0.02     0.00   0.03  -0.01
  17   6     0.01   0.03  -0.05     0.02  -0.00  -0.02    -0.02   0.05  -0.01
  18   6     0.01   0.03  -0.07     0.02   0.00  -0.05    -0.01   0.07   0.00
  19   6     0.00   0.02  -0.06     0.00   0.02  -0.08     0.01   0.08   0.01
  20   6     0.00   0.02  -0.08     0.00   0.02  -0.11     0.01   0.09   0.03
  21   6     0.00   0.02  -0.08     0.00   0.02  -0.12     0.01   0.09   0.04
  22   6     0.00   0.02  -0.10     0.00   0.02  -0.13     0.01   0.09   0.06
  23   6     0.00   0.02  -0.11     0.00   0.02  -0.13     0.01   0.10   0.06
  24   6     0.00   0.02  -0.11     0.00   0.02  -0.13     0.01   0.10   0.06
  25   6     0.00   0.02  -0.10     0.00   0.02  -0.11     0.01   0.09   0.05
  26   6     0.00   0.02  -0.12     0.00   0.02  -0.13     0.01   0.10   0.07
  27   8     0.00   0.02  -0.14     0.00   0.02  -0.16     0.02   0.11   0.09
  28   6     0.00   0.02  -0.11     0.00   0.02  -0.13     0.01   0.10   0.06
  29   6     0.00   0.02  -0.10     0.00   0.02  -0.13     0.02   0.09   0.06
  30   6     0.00   0.02  -0.08     0.00   0.02  -0.12     0.02   0.09   0.05
  31   6     0.00   0.02  -0.08     0.01   0.02  -0.11     0.01   0.09   0.04
  32   6     0.00   0.02  -0.06     0.00   0.02  -0.08     0.01   0.08   0.01
  33   6     0.01   0.03  -0.07     0.02   0.00  -0.05    -0.01   0.07   0.00
  34   6     0.01   0.03  -0.05     0.01  -0.00  -0.02    -0.02   0.05  -0.01
  35   6    -0.00   0.01  -0.01     0.00   0.01  -0.02     0.00   0.03  -0.01
  36   7    -0.00  -0.00   0.02     0.00  -0.00   0.02    -0.00  -0.01  -0.01
  37   6    -0.01  -0.00  -0.01    -0.01  -0.01   0.08    -0.04  -0.03  -0.02
  38   6     0.01   0.01   0.01     0.01  -0.04   0.12    -0.06  -0.06  -0.03
  39   6     0.00   0.01  -0.01    -0.00  -0.05   0.17    -0.10  -0.08  -0.03
  40   6    -0.02  -0.01  -0.06    -0.03  -0.02   0.19    -0.13  -0.06  -0.03
  41   8    -0.03  -0.01  -0.09    -0.04  -0.03   0.29    -0.20  -0.09  -0.04
  42   6    -0.04  -0.02  -0.13    -0.06   0.00   0.27    -0.20  -0.06  -0.03
  43   6    -0.03  -0.02  -0.08    -0.05   0.02   0.15    -0.11  -0.02  -0.01
  44   6    -0.03  -0.02  -0.05    -0.04   0.02   0.09    -0.07  -0.00  -0.01
  45   6     0.00  -0.01   0.08     0.01  -0.01   0.01     0.03  -0.04  -0.02
  46   6     0.03   0.01   0.10     0.03  -0.02  -0.03     0.06  -0.02  -0.01
  47   6     0.04   0.01   0.16     0.03  -0.03  -0.04     0.10  -0.05  -0.02
  48   6     0.02  -0.02   0.20     0.02  -0.01  -0.02     0.11  -0.09  -0.03
  49   8     0.02  -0.04   0.30     0.02  -0.02  -0.03     0.16  -0.14  -0.05
  50   6     0.05  -0.01   0.29     0.04  -0.03  -0.07     0.18  -0.12  -0.04
  51   6    -0.01  -0.05   0.17    -0.00   0.00   0.02     0.08  -0.10  -0.04
  52   6    -0.02  -0.04   0.11    -0.01   0.01   0.03     0.04  -0.08  -0.03
  53   6    -0.01  -0.00  -0.00    -0.01   0.02  -0.05     0.03   0.04  -0.01
  54   6    -0.01   0.00  -0.03    -0.01   0.03  -0.08     0.03   0.07   0.00
  55   6     0.00   0.02  -0.10     0.00   0.02  -0.11     0.01   0.09   0.05
  56   6     0.00   0.02  -0.11     0.00   0.02  -0.13     0.01   0.10   0.06
  57   6     0.00   0.02  -0.12     0.00   0.02  -0.13     0.01   0.10   0.07
  58   8     0.00   0.02  -0.14     0.00   0.02  -0.16     0.01   0.11   0.08
  59   6    -0.01   0.00  -0.03    -0.01   0.03  -0.08     0.03   0.07   0.00
  60   6    -0.01  -0.01  -0.00    -0.01   0.03  -0.05     0.03   0.04  -0.01
  61   6    -0.02  -0.04   0.11    -0.01   0.01   0.04     0.04  -0.08  -0.03
  62   6    -0.01  -0.05   0.17    -0.00   0.00   0.02     0.08  -0.11  -0.03
  63   1     0.02   0.01   0.08     0.02  -0.02  -0.02     0.05  -0.03  -0.01
  64   1     0.01  -0.01   0.08     0.01  -0.00  -0.03     0.06  -0.02  -0.01
  65   1     0.01  -0.01   0.10     0.01  -0.01  -0.02     0.06  -0.04  -0.01
  66   1     0.02   0.01   0.05     0.01  -0.01  -0.02     0.04  -0.01  -0.00
  67   1     0.02   0.01   0.02     0.01  -0.01  -0.01     0.02   0.00  -0.00
  68   1    -0.01  -0.01  -0.02    -0.01   0.01   0.02    -0.02   0.01   0.00
  69   1    -0.01  -0.01  -0.03    -0.02   0.01   0.05    -0.04  -0.00  -0.00
  70   1    -0.01  -0.00  -0.04    -0.01  -0.00   0.07    -0.06  -0.01  -0.01
  71   1    -0.02  -0.02  -0.04    -0.02   0.01   0.08    -0.05  -0.02  -0.01
  72   1    -0.01  -0.00  -0.04    -0.02  -0.00   0.09    -0.07  -0.02  -0.01
  73   1     0.00   0.01   0.00     0.00  -0.02   0.06    -0.03  -0.03  -0.01
  74   1     0.01   0.01   0.01     0.01  -0.02   0.03    -0.01  -0.02  -0.01
  75   1     0.01   0.01  -0.02     0.01  -0.01   0.00    -0.01   0.01  -0.00
  76   1     0.01   0.01  -0.03     0.01  -0.00  -0.01    -0.01   0.03   0.00
  77   1     0.00   0.01  -0.02     0.00   0.01  -0.03     0.00   0.03   0.01
  78   1     0.00   0.01  -0.03     0.00   0.01  -0.04     0.00   0.03   0.02
  79   1     0.00   0.01  -0.03     0.00   0.01  -0.03     0.00   0.03   0.01
  80   1     0.00   0.01  -0.03     0.00   0.01  -0.04     0.01   0.03   0.02
  81   1     0.00   0.01  -0.02     0.00   0.01  -0.03     0.00   0.03   0.01
  82   1     0.01   0.01  -0.03     0.01  -0.00  -0.01    -0.01   0.02   0.00
  83   1     0.01   0.01  -0.02     0.01  -0.01   0.00    -0.01   0.01  -0.00
  84   1     0.01   0.01   0.01     0.01  -0.02   0.03    -0.01  -0.02  -0.01
  85   1     0.00   0.01  -0.00     0.00  -0.02   0.06    -0.03  -0.03  -0.01
  86   1    -0.01  -0.01  -0.04    -0.02  -0.00   0.09    -0.07  -0.02  -0.01
  87   1    -0.01  -0.00  -0.04    -0.02  -0.00   0.07    -0.06  -0.01  -0.01
  88   1    -0.02  -0.02  -0.04    -0.03   0.01   0.08    -0.05  -0.02  -0.01
  89   1    -0.01  -0.01  -0.03    -0.02   0.01   0.05    -0.04  -0.00  -0.00
  90   1    -0.01  -0.01  -0.02    -0.01   0.01   0.02    -0.02   0.01   0.00
  91   1     0.02   0.01   0.02     0.01  -0.01  -0.01     0.02   0.00  -0.00
  92   1     0.02   0.01   0.05     0.01  -0.01  -0.02     0.04  -0.01  -0.00
  93   1     0.02   0.01   0.08     0.02  -0.02  -0.02     0.05  -0.03  -0.01
  94   1     0.01  -0.01   0.10     0.01  -0.01  -0.02     0.06  -0.04  -0.01
  95   1     0.01  -0.00   0.08     0.01  -0.01  -0.03     0.06  -0.02  -0.01
  96   1    -0.01  -0.02   0.06    -0.00   0.00   0.01     0.02  -0.04  -0.01
  97   1    -0.01  -0.02   0.03    -0.01   0.01   0.02     0.00  -0.02  -0.01
  98   1    -0.01  -0.01   0.01    -0.00   0.01  -0.01     0.01   0.01  -0.00
  99   1    -0.01  -0.00  -0.01    -0.00   0.01  -0.03     0.02   0.02   0.00
 100   1     0.00   0.01  -0.03     0.00   0.01  -0.03     0.00   0.03   0.01
 101   1    -0.01  -0.00  -0.01    -0.00   0.01  -0.03     0.02   0.02   0.00
 102   1    -0.01  -0.01   0.01    -0.00   0.01  -0.01     0.01   0.01  -0.00
 103   1    -0.01  -0.02   0.03    -0.01   0.01   0.02     0.00  -0.03  -0.01
 104   1    -0.01  -0.02   0.06    -0.00   0.00   0.01     0.02  -0.04  -0.01
                      4                      5                      6
                        a                      a                      a 
 Frequencies --    14.1456                18.2576                24.2856
 Red. masses --    11.6229                12.0144                12.3663
 Frc consts  --     0.0000                 0.0000                 0.0000
 IR Inten    --     0.2362                 0.6801                 3.9244
 Raman Activ --     0.0000                 0.0000                 0.0000
 Depolar     --     0.0000                 0.0000                 0.0000
 Atom AN      X      Y      Z        X      Y      Z        X      Y      Z
   1   6     0.16  -0.03   0.08     0.01   0.01  -0.13    -0.16   0.07   0.11
   2   8     0.12  -0.05   0.09     0.04   0.01  -0.16    -0.15   0.07   0.09
   3   6     0.07  -0.02   0.05     0.02   0.01  -0.09    -0.09   0.03   0.02
   4   6     0.09   0.03   0.02    -0.02   0.02  -0.02    -0.06  -0.00  -0.03
   5   6     0.06   0.05  -0.01    -0.03   0.03   0.03    -0.02  -0.03  -0.07
   6   6     0.01   0.04  -0.01     0.00   0.02   0.01    -0.02  -0.03  -0.07
   7   7    -0.02   0.07  -0.05    -0.00   0.03   0.05    -0.00  -0.04  -0.11
   8   6    -0.06   0.05  -0.02    -0.03   0.02   0.04    -0.00  -0.04  -0.05
   9   6    -0.10   0.07  -0.02    -0.04   0.04   0.05    -0.05  -0.03  -0.08
  10   6    -0.14   0.06  -0.00    -0.08   0.02   0.04    -0.04  -0.03  -0.02
  11   6    -0.14   0.01   0.02    -0.10  -0.01   0.02     0.01  -0.04   0.07
  12   8    -0.20  -0.01   0.04    -0.16  -0.03   0.00     0.03  -0.04   0.17
  13   6    -0.23   0.02   0.03    -0.16  -0.01   0.00    -0.00  -0.02   0.14
  14   6    -0.09  -0.01   0.02    -0.08  -0.02   0.01     0.05  -0.05   0.09
  15   6    -0.05   0.00   0.00    -0.05  -0.01   0.02     0.04  -0.05   0.03
  16   6    -0.02   0.09  -0.08    -0.00   0.04   0.07    -0.00  -0.03  -0.11
  17   6    -0.01   0.10  -0.09    -0.01   0.07   0.04    -0.00   0.00  -0.15
  18   6    -0.01   0.10  -0.10    -0.01   0.07   0.06    -0.00   0.01  -0.15
  19   6    -0.02   0.10  -0.11    -0.00   0.04   0.11     0.00  -0.02  -0.10
  20   6    -0.02   0.08  -0.09    -0.00   0.03   0.13     0.00  -0.01  -0.07
  21   6    -0.04   0.07  -0.10    -0.01   0.02   0.23     0.01  -0.01   0.03
  22   6    -0.05   0.04  -0.07    -0.02   0.01   0.24     0.01  -0.01   0.10
  23   6    -0.02   0.02  -0.04    -0.01   0.01   0.12     0.00  -0.00   0.05
  24   6     0.00   0.03  -0.03     0.00   0.01   0.01    -0.00  -0.00  -0.07
  25   6     0.01   0.06  -0.06     0.00   0.02   0.02    -0.00  -0.01  -0.13
  26   6     0.03   0.01   0.01     0.01   0.00  -0.12    -0.01  -0.00  -0.14
  27   8     0.06   0.03   0.01     0.02   0.01  -0.25    -0.01  -0.00  -0.30
  28   6     0.02  -0.02   0.04     0.01  -0.01  -0.12    -0.01   0.00  -0.05
  29   6     0.05  -0.04   0.07     0.02  -0.01  -0.24    -0.01   0.01  -0.10
  30   6     0.04  -0.07   0.10     0.01  -0.02  -0.24    -0.01   0.01  -0.03
  31   6     0.02  -0.08   0.09     0.00  -0.03  -0.13    -0.00   0.01   0.07
  32   6     0.01  -0.10   0.11     0.00  -0.04  -0.11    -0.00   0.02   0.10
  33   6     0.01  -0.10   0.10     0.01  -0.07  -0.06    -0.00  -0.01   0.15
  34   6     0.01  -0.10   0.09     0.01  -0.07  -0.04     0.00  -0.00   0.15
  35   6     0.02  -0.09   0.08     0.00  -0.04  -0.07     0.00   0.03   0.11
  36   7     0.02  -0.07   0.05     0.00  -0.03  -0.05     0.00   0.04   0.11
  37   6     0.06  -0.05   0.02     0.03  -0.02  -0.04     0.00   0.04   0.05
  38   6     0.05  -0.00  -0.00     0.05   0.01  -0.02    -0.05   0.05  -0.03
  39   6     0.10   0.01  -0.02     0.08   0.02  -0.01    -0.05   0.05  -0.09
  40   6     0.14  -0.01  -0.02     0.10   0.01  -0.02    -0.01   0.04  -0.07
  41   8     0.21   0.01  -0.04     0.15   0.03   0.00    -0.03   0.04  -0.17
  42   6     0.23  -0.02  -0.03     0.15   0.01  -0.00     0.01   0.02  -0.14
  43   6     0.14  -0.06   0.00     0.07  -0.02  -0.04     0.04   0.03   0.02
  44   6     0.10  -0.07   0.02     0.04  -0.04  -0.05     0.05   0.03   0.08
  45   6    -0.01  -0.04   0.01    -0.00  -0.02  -0.01     0.01   0.03   0.07
  46   6    -0.06  -0.05   0.01     0.03  -0.03  -0.03     0.02   0.03   0.07
  47   6    -0.10  -0.03  -0.02     0.02  -0.02   0.02     0.06   0.00   0.03
  48   6    -0.08   0.02  -0.05    -0.02  -0.01   0.09     0.09  -0.03  -0.02
  49   8    -0.12   0.05  -0.09    -0.04  -0.01   0.16     0.15  -0.07  -0.09
  50   6    -0.16   0.03  -0.08    -0.01  -0.00   0.13     0.16  -0.07  -0.11
  51   6    -0.02   0.03  -0.05    -0.05  -0.01   0.10     0.08  -0.03  -0.01
  52   6     0.01   0.01  -0.02    -0.04  -0.02   0.05     0.04   0.00   0.03
  53   6     0.02  -0.10   0.10    -0.00  -0.01  -0.12    -0.00   0.06   0.07
  54   6     0.02  -0.11   0.11    -0.00  -0.00  -0.14    -0.00   0.05   0.06
  55   6    -0.01  -0.06   0.06    -0.00  -0.02  -0.02     0.00   0.01   0.13
  56   6    -0.00  -0.03   0.03    -0.00  -0.01  -0.01     0.00   0.01   0.07
  57   6    -0.03  -0.01  -0.01    -0.01  -0.01   0.12     0.00   0.00   0.14
  58   8    -0.06  -0.03  -0.02    -0.02  -0.01   0.25     0.01   0.00   0.30
  59   6    -0.02   0.11  -0.11     0.00   0.00   0.14     0.00  -0.05  -0.06
  60   6    -0.02   0.10  -0.10     0.00   0.01   0.11     0.00  -0.06  -0.07
  61   6    -0.01  -0.01   0.02     0.04   0.02  -0.05    -0.04  -0.00  -0.03
  62   6     0.02  -0.03   0.05     0.05   0.01  -0.10    -0.07   0.03   0.01
  63   1     0.05  -0.01   0.02    -0.01  -0.00  -0.04    -0.03   0.03   0.03
  64   1     0.05  -0.00   0.02     0.01   0.01  -0.02    -0.06   0.00   0.02
  65   1     0.05  -0.02   0.03     0.01  -0.00  -0.05    -0.06   0.03   0.05
  66   1     0.04   0.01   0.01    -0.01   0.01   0.00    -0.02  -0.00  -0.01
  67   1     0.02   0.02  -0.01    -0.02   0.01   0.02    -0.00  -0.01  -0.03
  68   1    -0.03   0.03  -0.01    -0.01   0.02   0.02    -0.02  -0.00  -0.04
  69   1    -0.05   0.02  -0.00    -0.03   0.01   0.01    -0.02  -0.00  -0.01
  70   1    -0.07   0.01   0.00    -0.05   0.01   0.01     0.01  -0.01   0.02
  71   1    -0.07   0.01   0.01    -0.04  -0.00   0.00    -0.02   0.00   0.04
  72   1    -0.07  -0.00   0.01    -0.05  -0.01  -0.00     0.01  -0.01   0.06
  73   1    -0.03  -0.01   0.01    -0.03  -0.01  -0.00     0.03  -0.02   0.05
  74   1    -0.01  -0.00   0.00    -0.01  -0.01   0.00     0.02  -0.02   0.01
  75   1    -0.00   0.03  -0.02    -0.00   0.03   0.00    -0.00   0.01  -0.05
  76   1    -0.00   0.03  -0.03    -0.00   0.03   0.01    -0.00   0.01  -0.05
  77   1    -0.02   0.02  -0.04    -0.01   0.01   0.09     0.00  -0.00   0.02
  78   1    -0.02   0.01  -0.02    -0.01   0.00   0.09     0.00  -0.00   0.05
  79   1     0.01   0.02  -0.02     0.00   0.01  -0.02    -0.00  -0.00  -0.06
  80   1     0.02  -0.01   0.02     0.01  -0.00  -0.09    -0.00   0.00  -0.05
  81   1     0.02  -0.02   0.04     0.01  -0.01  -0.09    -0.00   0.00  -0.02
  82   1     0.00  -0.03   0.03     0.00  -0.03  -0.01     0.00  -0.01   0.05
  83   1     0.00  -0.03   0.02     0.00  -0.03  -0.00     0.00  -0.01   0.05
  84   1     0.01   0.00  -0.00     0.01   0.01  -0.00    -0.02   0.02  -0.01
  85   1     0.03   0.01  -0.01     0.03   0.01   0.00    -0.03   0.02  -0.05
  86   1     0.08   0.00  -0.01     0.05   0.01   0.01    -0.01   0.01  -0.06
  87   1     0.07  -0.02  -0.00     0.05  -0.01  -0.00    -0.01   0.01  -0.02
  88   1     0.07  -0.01  -0.01     0.04   0.00  -0.00     0.02  -0.00  -0.04
  89   1     0.05  -0.02   0.00     0.02  -0.01  -0.01     0.02   0.00   0.01
  90   1     0.03  -0.03   0.01     0.01  -0.02  -0.02     0.03   0.01   0.04
  91   1    -0.02  -0.03   0.01     0.02  -0.01  -0.02     0.00   0.02   0.03
  92   1    -0.04  -0.01  -0.01     0.01  -0.01  -0.00     0.02   0.00   0.01
  93   1    -0.05   0.01  -0.02     0.02   0.00   0.04     0.03  -0.03  -0.03
  94   1    -0.05   0.02  -0.03    -0.01   0.00   0.05     0.06  -0.03  -0.05
  95   1    -0.05   0.00  -0.02    -0.01  -0.01   0.02     0.06  -0.00  -0.02
  96   1    -0.00   0.02  -0.02    -0.02  -0.00   0.04     0.03  -0.01  -0.01
  97   1     0.01   0.01  -0.00    -0.02  -0.00   0.02     0.01  -0.00   0.01
  98   1     0.01  -0.03   0.03    -0.00   0.00  -0.04    -0.00   0.02   0.01
  99   1     0.01  -0.03   0.03    -0.00   0.01  -0.05    -0.00   0.02   0.01
 100   1    -0.01  -0.02   0.02    -0.00  -0.01   0.02     0.00   0.00   0.06
 101   1    -0.01   0.03  -0.04     0.00  -0.01   0.05     0.00  -0.02  -0.01
 102   1    -0.01   0.03  -0.03     0.00  -0.00   0.04     0.00  -0.02  -0.01
 103   1    -0.02  -0.00   0.00     0.02   0.00  -0.02    -0.01   0.00  -0.01
 104   1     0.00  -0.02   0.02     0.02   0.00  -0.04    -0.03   0.01   0.01
                      7                      8                      9
                        a                      a                      a 
 Frequencies --    28.5271                30.4168                31.8493
 Red. masses --    11.8367                11.7648                11.2527
 Frc consts  --     0.0000                 0.0000                 0.0000
 IR Inten    --     4.2654                 1.6114                21.9607
 Raman Activ --     0.0000                 0.0000                 0.0000
 Depolar     --     0.0000                 0.0000                 0.0000
 Atom AN      X      Y      Z        X      Y      Z        X      Y      Z
   1   6    -0.25   0.11   0.03     0.00   0.01   0.21    -0.23   0.17   0.13
   2   8    -0.20   0.13  -0.00    -0.02  -0.03   0.16    -0.14   0.16   0.03
   3   6    -0.12   0.07  -0.01    -0.00  -0.02   0.04    -0.06   0.09  -0.01
   4   6    -0.13   0.01  -0.01     0.03   0.00  -0.02    -0.07   0.05   0.00
   5   6    -0.08  -0.02  -0.00     0.04   0.01  -0.10    -0.01   0.01  -0.02
   6   6    -0.03  -0.01   0.00    -0.00  -0.02  -0.12     0.05   0.00  -0.06
   7   7    -0.02  -0.02   0.04    -0.02  -0.00  -0.19     0.07  -0.01  -0.04
   8   6    -0.02  -0.02   0.04    -0.02  -0.01  -0.13     0.04  -0.02  -0.00
   9   6    -0.05  -0.02   0.02    -0.02   0.01  -0.10    -0.02   0.01  -0.01
  10   6    -0.10  -0.03  -0.00     0.01   0.02  -0.02    -0.08  -0.01   0.00
  11   6    -0.11  -0.05  -0.01     0.03   0.00   0.03    -0.08  -0.07   0.03
  12   8    -0.18  -0.09  -0.07     0.08   0.02   0.15    -0.18  -0.12   0.03
  13   6    -0.23  -0.08  -0.13     0.11   0.05   0.23    -0.25  -0.08  -0.02
  14   6    -0.06  -0.06   0.02     0.02  -0.02  -0.02    -0.01  -0.10   0.05
  15   6    -0.02  -0.04   0.05    -0.01  -0.03  -0.10     0.05  -0.07   0.03
  16   6    -0.02  -0.02   0.03    -0.01   0.01  -0.15     0.06  -0.01  -0.03
  17   6    -0.01  -0.02   0.02    -0.04   0.00  -0.12     0.06   0.02  -0.06
  18   6    -0.01  -0.01   0.02    -0.04   0.00  -0.08     0.06   0.02  -0.05
  19   6    -0.01  -0.01   0.01    -0.01   0.01  -0.07     0.07  -0.01  -0.01
  20   6    -0.01  -0.00  -0.00    -0.01   0.01  -0.01     0.07  -0.01   0.00
  21   6    -0.00  -0.00  -0.07    -0.01   0.01   0.00     0.07  -0.01   0.02
  22   6    -0.00   0.00  -0.10    -0.01   0.00   0.06     0.07  -0.01   0.02
  23   6    -0.00   0.00  -0.05    -0.01   0.00   0.10     0.07  -0.01   0.02
  24   6    -0.00  -0.00   0.03    -0.01   0.00   0.09     0.07  -0.01   0.01
  25   6    -0.00  -0.00   0.05    -0.01   0.01   0.04     0.07  -0.01  -0.00
  26   6    -0.00  -0.00   0.09    -0.01   0.00   0.13     0.07  -0.01   0.02
  27   8    -0.00  -0.00   0.20    -0.01   0.00   0.19     0.08  -0.02   0.02
  28   6    -0.00  -0.00   0.05    -0.01   0.00   0.10     0.07  -0.01   0.02
  29   6    -0.00  -0.00   0.10    -0.01   0.00   0.06     0.07  -0.01   0.03
  30   6    -0.00   0.00   0.07    -0.01   0.00   0.00     0.07  -0.01   0.02
  31   6     0.00   0.00   0.00    -0.01   0.01  -0.01     0.07  -0.01   0.00
  32   6     0.01   0.01  -0.02    -0.01   0.01  -0.07     0.07  -0.01  -0.01
  33   6     0.01   0.01  -0.02    -0.04   0.00  -0.08     0.06   0.02  -0.05
  34   6     0.01   0.02  -0.03    -0.04   0.00  -0.12     0.06   0.02  -0.06
  35   6     0.01   0.02  -0.04    -0.01   0.01  -0.15     0.06  -0.01  -0.03
  36   7     0.01   0.02  -0.04    -0.01  -0.01  -0.19     0.07  -0.01  -0.04
  37   6     0.02   0.02  -0.04    -0.02  -0.01  -0.13     0.04  -0.02  -0.00
  38   6     0.02   0.04  -0.06    -0.01  -0.03  -0.10     0.05  -0.07   0.04
  39   6     0.06   0.06  -0.03     0.01  -0.02  -0.02    -0.01  -0.09   0.05
  40   6     0.11   0.06   0.01     0.03   0.00   0.03    -0.08  -0.07   0.03
  41   8     0.19   0.09   0.07     0.07   0.02   0.15    -0.17  -0.11   0.03
  42   6     0.23   0.08   0.13     0.10   0.05   0.23    -0.24  -0.07  -0.02
  43   6     0.10   0.03   0.01     0.00   0.02  -0.02    -0.08  -0.01   0.00
  44   6     0.05   0.02  -0.02    -0.02   0.01  -0.10    -0.02   0.01  -0.01
  45   6     0.03   0.01  -0.00    -0.00  -0.02  -0.12     0.05   0.00  -0.05
  46   6     0.08   0.02   0.00     0.04   0.00  -0.10    -0.01   0.01  -0.02
  47   6     0.13  -0.02   0.01     0.03   0.00  -0.02    -0.07   0.05   0.00
  48   6     0.13  -0.07   0.01    -0.00  -0.02   0.04    -0.05   0.08  -0.02
  49   8     0.21  -0.13   0.01    -0.02  -0.02   0.16    -0.13   0.16   0.02
  50   6     0.26  -0.12  -0.03    -0.00   0.02   0.21    -0.22   0.17   0.12
  51   6     0.06  -0.08   0.02    -0.03  -0.05   0.01     0.02   0.07  -0.07
  52   6     0.02  -0.04   0.02    -0.03  -0.05  -0.07     0.07   0.03  -0.09
  53   6     0.01   0.03  -0.04     0.01   0.02  -0.15     0.06  -0.04   0.01
  54   6     0.01   0.02  -0.03     0.01   0.02  -0.11     0.06  -0.04   0.02
  55   6     0.00   0.00  -0.05    -0.01   0.00   0.04     0.07  -0.01  -0.00
  56   6     0.00   0.00  -0.03    -0.01   0.00   0.09     0.07  -0.01   0.01
  57   6    -0.00   0.00  -0.09    -0.01   0.00   0.13     0.07  -0.01   0.02
  58   8    -0.00   0.00  -0.20    -0.01   0.00   0.19     0.08  -0.02   0.02
  59   6    -0.01  -0.02   0.02     0.01   0.02  -0.11     0.06  -0.04   0.02
  60   6    -0.02  -0.03   0.04     0.01   0.02  -0.15     0.06  -0.04   0.01
  61   6    -0.02   0.04  -0.01    -0.03  -0.05  -0.07     0.07   0.03  -0.09
  62   6    -0.06   0.07  -0.02    -0.03  -0.05   0.01     0.02   0.08  -0.07
  63   1    -0.07   0.04   0.01     0.02   0.02   0.06    -0.07   0.07   0.04
  64   1    -0.08   0.01   0.01    -0.01  -0.01   0.05    -0.08   0.02   0.05
  65   1    -0.08   0.05   0.01    -0.01   0.00   0.08    -0.08   0.06   0.05
  66   1    -0.05   0.00  -0.00     0.02   0.01   0.00    -0.04   0.01   0.01
  67   1    -0.02  -0.02   0.00     0.02   0.01  -0.04    -0.01  -0.01  -0.00
  68   1    -0.01  -0.00   0.01    -0.01   0.01  -0.04    -0.01   0.02  -0.01
  69   1    -0.04  -0.01  -0.01     0.00   0.01   0.00    -0.04   0.00  -0.00
  70   1    -0.07   0.00  -0.04     0.04  -0.01   0.07    -0.07   0.00  -0.02
  71   1    -0.07  -0.04  -0.03     0.03   0.04   0.06    -0.08  -0.03  -0.01
  72   1    -0.08  -0.03  -0.05     0.04   0.01   0.09    -0.09  -0.03  -0.01
  73   1    -0.02  -0.02   0.01     0.01  -0.01   0.00    -0.00  -0.04   0.02
  74   1     0.00  -0.01   0.02    -0.00  -0.01  -0.04     0.03  -0.03   0.01
  75   1    -0.00  -0.00   0.01    -0.02  -0.00  -0.04     0.02   0.01  -0.03
  76   1    -0.00  -0.00   0.00    -0.02  -0.00  -0.01     0.02   0.01  -0.02
  77   1     0.00  -0.00  -0.03    -0.00   0.00  -0.01     0.02  -0.00   0.01
  78   1    -0.00   0.00  -0.05    -0.00   0.00   0.02     0.02  -0.00   0.01
  79   1    -0.00  -0.00   0.03    -0.00   0.00   0.01     0.02  -0.00  -0.00
  80   1    -0.00  -0.00   0.05    -0.00   0.00   0.02     0.02  -0.00   0.01
  81   1    -0.00   0.00   0.03    -0.00   0.00  -0.01     0.02  -0.00   0.01
  82   1     0.00   0.00  -0.00    -0.02  -0.00  -0.01     0.02   0.01  -0.02
  83   1     0.00   0.00  -0.01    -0.02  -0.00  -0.04     0.02   0.01  -0.03
  84   1    -0.00   0.01  -0.02    -0.00  -0.01  -0.04     0.03  -0.03   0.01
  85   1     0.02   0.02  -0.01     0.01  -0.01   0.00    -0.00  -0.04   0.02
  86   1     0.08   0.03   0.05     0.04   0.02   0.09    -0.08  -0.03  -0.01
  87   1     0.07   0.00   0.05     0.03  -0.01   0.07    -0.07   0.00  -0.02
  88   1     0.07   0.04   0.04     0.02   0.04   0.06    -0.08  -0.03  -0.01
  89   1     0.04   0.01   0.01     0.00   0.01   0.00    -0.04   0.00  -0.00
  90   1     0.01   0.00  -0.01    -0.01   0.01  -0.04    -0.01   0.02  -0.01
  91   1     0.03   0.02  -0.00     0.02   0.01  -0.04    -0.01  -0.01  -0.00
  92   1     0.05  -0.00   0.00     0.02   0.01   0.00    -0.03   0.01   0.01
  93   1     0.07  -0.04  -0.01     0.02   0.03   0.06    -0.07   0.07   0.03
  94   1     0.09  -0.05  -0.01    -0.01   0.01   0.09    -0.08   0.06   0.05
  95   1     0.08  -0.01  -0.01    -0.01  -0.01   0.05    -0.07   0.02   0.05
  96   1     0.02  -0.03   0.01    -0.02  -0.02   0.01     0.01   0.03  -0.03
  97   1    -0.01  -0.01   0.01    -0.02  -0.02  -0.03     0.04   0.01  -0.04
  98   1     0.00   0.01  -0.01     0.01   0.01  -0.05     0.02  -0.02   0.01
  99   1     0.00   0.00  -0.01     0.01   0.01  -0.03     0.02  -0.02   0.02
 100   1     0.00   0.00  -0.03    -0.00   0.00   0.01     0.02  -0.00  -0.00
 101   1    -0.01  -0.00   0.01     0.01   0.01  -0.03     0.02  -0.02   0.02
 102   1    -0.00  -0.01   0.01     0.01   0.01  -0.05     0.02  -0.02   0.01
 103   1     0.01   0.01  -0.00    -0.02  -0.02  -0.03     0.04   0.01  -0.04
 104   1    -0.02   0.03  -0.01    -0.02  -0.02   0.01     0.01   0.03  -0.03
                     10                     11                     12
                        a                      a                      a 
 Frequencies --    35.4665                35.6528                42.3581
 Red. masses --     9.7997                10.5664                11.2413
 Frc consts  --     0.0000                 0.0000                 0.0000
 IR Inten    --     0.7681                 3.6361                 3.0772
 Raman Activ --     0.0000                 0.0000                 0.0000
 Depolar     --     0.0000                 0.0000                 0.0000
 Atom AN      X      Y      Z        X      Y      Z        X      Y      Z
   1   6     0.08  -0.08  -0.22     0.05   0.06   0.16     0.17  -0.02  -0.09
   2   8    -0.00  -0.00  -0.05     0.14  -0.03  -0.02     0.08   0.03   0.03
   3   6    -0.01   0.00   0.01     0.08   0.01  -0.01     0.05   0.05   0.03
   4   6     0.03  -0.04  -0.07     0.00   0.10   0.13     0.09   0.05  -0.04
   5   6     0.02  -0.04  -0.03    -0.03   0.12   0.12     0.07   0.06  -0.04
   6   6    -0.02   0.01   0.08     0.02   0.05  -0.02     0.01   0.08   0.01
   7   7    -0.01  -0.00   0.09     0.01   0.07  -0.02     0.01   0.08  -0.03
   8   6     0.01   0.01   0.07    -0.01   0.06  -0.02     0.01   0.08   0.01
   9   6    -0.04  -0.03  -0.04     0.06   0.11   0.12    -0.04   0.08  -0.03
  10   6    -0.03  -0.03  -0.07     0.03   0.10   0.13    -0.07   0.07  -0.03
  11   6     0.03   0.01   0.01    -0.07   0.04  -0.01    -0.04   0.06   0.02
  12   8     0.04   0.02  -0.03    -0.12   0.03  -0.02    -0.09   0.05   0.02
  13   6    -0.05  -0.03  -0.19    -0.01   0.08   0.17    -0.18   0.03  -0.10
  14   6     0.09   0.06   0.13    -0.15  -0.01  -0.17     0.03   0.06   0.09
  15   6     0.08   0.05   0.16    -0.12   0.00  -0.17     0.05   0.07   0.08
  16   6    -0.01   0.00   0.03     0.00   0.04   0.01     0.01   0.06  -0.07
  17   6     0.01   0.01   0.00     0.02   0.01   0.02     0.04   0.03  -0.06
  18   6     0.01   0.02  -0.03     0.02  -0.04   0.03     0.03  -0.03  -0.05
  19   6    -0.01   0.01  -0.04    -0.01  -0.05   0.03    -0.01  -0.06  -0.05
  20   6    -0.01   0.01  -0.05    -0.01  -0.08   0.02    -0.01  -0.11  -0.02
  21   6    -0.01   0.00  -0.02    -0.02  -0.08   0.00    -0.03  -0.11  -0.03
  22   6    -0.01  -0.00  -0.00    -0.02  -0.08  -0.03    -0.03  -0.12   0.01
  23   6    -0.01  -0.01  -0.01    -0.01  -0.08  -0.04    -0.01  -0.14   0.05
  24   6    -0.00  -0.01  -0.04    -0.01  -0.08  -0.03    -0.00  -0.13   0.05
  25   6    -0.00   0.00  -0.06    -0.01  -0.08  -0.00    -0.00  -0.12   0.02
  26   6     0.01  -0.01  -0.05    -0.01  -0.08  -0.05    -0.01  -0.14   0.08
  27   8     0.01  -0.01  -0.10    -0.02  -0.10  -0.07    -0.01  -0.16   0.14
  28   6     0.00  -0.02  -0.01    -0.02  -0.08  -0.04    -0.01  -0.14   0.05
  29   6     0.01  -0.02  -0.00    -0.02  -0.08  -0.02    -0.02  -0.13   0.01
  30   6     0.01  -0.03   0.02    -0.02  -0.07  -0.00    -0.03  -0.11  -0.03
  31   6     0.00  -0.03   0.05    -0.02  -0.07   0.00    -0.01  -0.11  -0.02
  32   6     0.00  -0.03   0.04    -0.01  -0.05   0.02    -0.01  -0.06  -0.05
  33   6    -0.00  -0.03   0.04     0.02  -0.03   0.02     0.03  -0.04  -0.05
  34   6    -0.00  -0.01   0.00     0.02   0.01   0.02     0.04   0.03  -0.06
  35   6     0.01   0.01  -0.03    -0.00   0.04   0.02     0.01   0.06  -0.07
  36   7     0.01   0.02  -0.09     0.00   0.07   0.01     0.01   0.08  -0.03
  37   6    -0.01   0.01  -0.07    -0.01   0.05   0.00     0.01   0.08   0.01
  38   6    -0.11  -0.05  -0.21    -0.09   0.01  -0.11     0.05   0.07   0.08
  39   6    -0.13  -0.06  -0.18    -0.11   0.00  -0.12     0.03   0.06   0.09
  40   6    -0.05  -0.00  -0.01    -0.06   0.04  -0.01    -0.04   0.06   0.02
  41   8    -0.07  -0.01   0.03    -0.10   0.03  -0.03    -0.09   0.05   0.01
  42   6     0.04   0.06   0.24    -0.02   0.07   0.09    -0.18   0.03  -0.11
  43   6     0.04   0.06   0.11     0.02   0.08   0.10    -0.07   0.07  -0.03
  44   6     0.06   0.07   0.08     0.04   0.09   0.10    -0.04   0.08  -0.03
  45   6     0.02   0.01  -0.08     0.01   0.05   0.01     0.01   0.08   0.01
  46   6    -0.03   0.08   0.07    -0.02   0.10   0.11     0.06   0.06  -0.04
  47   6    -0.03   0.07   0.11     0.01   0.08   0.10     0.09   0.05  -0.04
  48   6     0.04  -0.00  -0.01     0.07   0.01  -0.01     0.05   0.05   0.03
  49   8     0.04  -0.01   0.04     0.12  -0.02  -0.04     0.08   0.03   0.03
  50   6    -0.07   0.10   0.26     0.07   0.03   0.08     0.17  -0.02  -0.09
  51   6     0.11  -0.08  -0.18     0.11  -0.04  -0.11    -0.02   0.07   0.10
  52   6     0.10  -0.07  -0.21     0.08  -0.02  -0.10    -0.04   0.09   0.09
  53   6     0.01  -0.00  -0.00    -0.03   0.02   0.03    -0.03   0.05  -0.08
  54   6     0.01  -0.02   0.03    -0.04  -0.03   0.03    -0.03  -0.01  -0.07
  55   6    -0.00  -0.03   0.05    -0.01  -0.07  -0.02    -0.00  -0.12   0.02
  56   6    -0.00  -0.02   0.03    -0.01  -0.08  -0.04    -0.00  -0.13   0.05
  57   6    -0.01  -0.02   0.03    -0.01  -0.08  -0.06    -0.01  -0.14   0.08
  58   8    -0.02  -0.02   0.07    -0.01  -0.10  -0.10    -0.01  -0.16   0.14
  59   6    -0.02   0.01  -0.02    -0.03  -0.03   0.03    -0.03  -0.01  -0.08
  60   6    -0.02   0.01   0.01    -0.02   0.02   0.02    -0.03   0.05  -0.09
  61   6    -0.07   0.06   0.17     0.11  -0.04  -0.17    -0.04   0.08   0.09
  62   6    -0.07   0.06   0.14     0.14  -0.06  -0.17    -0.02   0.07   0.10
  63   1     0.04  -0.06  -0.06    -0.02   0.05   0.04     0.07  -0.03  -0.02
  64   1     0.02   0.00  -0.10     0.03   0.01   0.09     0.05   0.02  -0.05
  65   1     0.03  -0.02  -0.07     0.03   0.01   0.04     0.05  -0.01  -0.03
  66   1     0.02  -0.02  -0.05    -0.01   0.04   0.07     0.04   0.01  -0.02
  67   1     0.02  -0.02  -0.02    -0.02   0.06   0.07     0.03   0.02  -0.03
  68   1    -0.02  -0.02  -0.03     0.04   0.05   0.06    -0.02   0.03  -0.02
  69   1    -0.02  -0.02  -0.05     0.03   0.04   0.07    -0.03   0.02  -0.02
  70   1    -0.00   0.01  -0.09    -0.02   0.01   0.10    -0.05   0.03  -0.05
  71   1    -0.04  -0.04  -0.05     0.05   0.05   0.05    -0.07  -0.01  -0.03
  72   1    -0.01  -0.01  -0.06    -0.01   0.02   0.04    -0.06   0.00  -0.04
  73   1     0.04   0.03   0.06    -0.07  -0.02  -0.08     0.02   0.01   0.04
  74   1     0.03   0.02   0.07    -0.05  -0.01  -0.08     0.03   0.02   0.04
  75   1     0.01   0.00   0.00     0.01   0.01   0.01     0.02   0.01  -0.02
  76   1     0.01   0.01  -0.01     0.01  -0.02   0.01     0.01  -0.02  -0.01
  77   1    -0.01   0.00  -0.01    -0.01  -0.02   0.00    -0.01  -0.03  -0.02
  78   1    -0.01  -0.00   0.00    -0.01  -0.02  -0.01    -0.01  -0.04   0.00
  79   1     0.00   0.00  -0.02    -0.00  -0.02   0.00     0.00  -0.03   0.01
  80   1     0.00  -0.01  -0.01    -0.01  -0.02  -0.01    -0.01  -0.04   0.00
  81   1     0.00  -0.01   0.01    -0.01  -0.02   0.00    -0.01  -0.03  -0.02
  82   1    -0.00  -0.01   0.02     0.01  -0.01   0.01     0.01  -0.02  -0.01
  83   1    -0.00  -0.00  -0.00     0.01   0.01   0.01     0.02   0.01  -0.02
  84   1    -0.05  -0.03  -0.09    -0.04  -0.00  -0.05     0.03   0.02   0.04
  85   1    -0.06  -0.03  -0.08    -0.05  -0.01  -0.06     0.02   0.01   0.04
  86   1     0.01   0.01   0.07    -0.02   0.01   0.02    -0.06   0.00  -0.04
  87   1    -0.00  -0.00   0.12    -0.02   0.02   0.06    -0.05   0.03  -0.05
  88   1     0.06   0.05   0.07     0.03   0.03   0.03    -0.07  -0.01  -0.03
  89   1     0.03   0.03   0.07     0.02   0.03   0.05    -0.03   0.02  -0.02
  90   1     0.04   0.03   0.05     0.03   0.04   0.05    -0.02   0.03  -0.02
  91   1    -0.02   0.04   0.04    -0.02   0.05   0.05     0.03   0.02  -0.03
  92   1    -0.02   0.04   0.07    -0.01   0.03   0.05     0.04   0.01  -0.02
  93   1    -0.05   0.08   0.07    -0.01   0.03   0.02     0.07  -0.03  -0.02
  94   1    -0.02   0.02   0.08     0.03  -0.00   0.01     0.05  -0.01  -0.03
  95   1    -0.01   0.00   0.12     0.03   0.01   0.06     0.05   0.02  -0.05
  96   1     0.05  -0.04  -0.08     0.05  -0.03  -0.06    -0.02   0.02   0.05
  97   1     0.05  -0.04  -0.09     0.03  -0.02  -0.05    -0.03   0.03   0.04
  98   1     0.00   0.00  -0.00    -0.01   0.01   0.01    -0.01   0.02  -0.03
  99   1     0.00  -0.01   0.01    -0.02  -0.01   0.01    -0.02  -0.01  -0.02
 100   1    -0.00  -0.01   0.02    -0.00  -0.02  -0.01     0.00  -0.03   0.01
 101   1    -0.01   0.00  -0.01    -0.02  -0.01   0.01    -0.02  -0.00  -0.02
 102   1    -0.01   0.00   0.01    -0.01   0.01   0.01    -0.01   0.03  -0.03
 103   1    -0.03   0.03   0.07     0.04  -0.03  -0.08    -0.03   0.03   0.04
 104   1    -0.03   0.03   0.06     0.06  -0.04  -0.08    -0.02   0.02   0.05
                     13                     14                     15
                        a                      a                      a 
 Frequencies --    52.1816                56.4728                60.9610
 Red. masses --    11.6005                10.4616                11.2341
 Frc consts  --     0.0000                 0.0000                 0.0000
 IR Inten    --     0.0599                39.5591                10.1719
 Raman Activ --     0.0000                 0.0000                 0.0000
 Depolar     --     0.0000                 0.0000                 0.0000
 Atom AN      X      Y      Z        X      Y      Z        X      Y      Z
   1   6     0.00   0.03  -0.03    -0.06   0.03   0.04     0.09   0.06   0.04
   2   8     0.06   0.02  -0.09    -0.06   0.05   0.06     0.11   0.04  -0.01
   3   6     0.04   0.03  -0.01    -0.02   0.01   0.01     0.08   0.05  -0.01
   4   6    -0.03   0.05   0.11     0.03  -0.04  -0.08     0.07   0.07   0.02
   5   6    -0.04   0.05   0.15     0.05  -0.05  -0.08     0.06   0.07  -0.00
   6   6     0.02   0.03   0.09     0.02  -0.01   0.00     0.07   0.05  -0.05
   7   7     0.04   0.02   0.12     0.01  -0.01   0.05     0.09   0.05  -0.10
   8   6     0.05   0.02   0.10     0.02  -0.01   0.06     0.08   0.04  -0.04
   9   6     0.09   0.03   0.15     0.11   0.01   0.18     0.00   0.05  -0.10
  10   6     0.06   0.02   0.11     0.09   0.01   0.14    -0.03   0.04  -0.06
  11   6     0.00   0.01   0.01    -0.01  -0.02  -0.02     0.04   0.01   0.06
  12   8    -0.05  -0.00  -0.07    -0.07  -0.04  -0.13     0.01  -0.01   0.11
  13   6    -0.04  -0.01  -0.07    -0.02  -0.03  -0.06    -0.16  -0.01  -0.08
  14   6    -0.03   0.00  -0.02    -0.08  -0.03  -0.11     0.13   0.01   0.14
  15   6    -0.00   0.01   0.02    -0.06  -0.02  -0.06     0.15   0.02   0.08
  16   6     0.03  -0.02   0.05     0.01  -0.02   0.03     0.07   0.01  -0.07
  17   6     0.09  -0.04   0.01     0.01  -0.13   0.16     0.08   0.02  -0.09
  18   6     0.08  -0.07  -0.08     0.01  -0.12   0.13     0.07  -0.04  -0.03
  19   6     0.02  -0.07  -0.12     0.01   0.00  -0.05     0.05  -0.11   0.05
  20   6     0.02  -0.07  -0.18     0.01   0.01  -0.07     0.04  -0.12   0.07
  21   6     0.04  -0.06  -0.18     0.01   0.01  -0.16     0.07  -0.11   0.05
  22   6     0.04  -0.04  -0.12     0.01   0.02  -0.11     0.08  -0.07   0.02
  23   6     0.02  -0.02  -0.06     0.01   0.02  -0.01     0.04  -0.04   0.01
  24   6     0.00  -0.03  -0.12     0.01   0.02   0.03     0.01  -0.05   0.04
  25   6    -0.00  -0.05  -0.19     0.01   0.01   0.02     0.01  -0.10   0.06
  26   6    -0.03  -0.01  -0.09     0.01   0.02   0.06    -0.05  -0.02   0.05
  27   8    -0.06  -0.02  -0.21     0.01   0.02   0.15    -0.11  -0.05   0.13
  28   6    -0.02   0.02   0.06     0.01   0.02  -0.01    -0.04   0.04  -0.01
  29   6    -0.04   0.04   0.12     0.01   0.02  -0.11    -0.08   0.07  -0.02
  30   6    -0.04   0.06   0.18     0.01   0.01  -0.16    -0.07   0.11  -0.05
  31   6    -0.02   0.07   0.18     0.01   0.01  -0.07    -0.04   0.12  -0.07
  32   6    -0.02   0.07   0.12     0.01   0.00  -0.05    -0.04   0.11  -0.05
  33   6    -0.08   0.07   0.07     0.01  -0.12   0.13    -0.07   0.05   0.03
  34   6    -0.09   0.04  -0.01     0.00  -0.13   0.16    -0.08  -0.02   0.09
  35   6    -0.03   0.02  -0.05     0.01  -0.01   0.02    -0.07  -0.01   0.07
  36   7    -0.04  -0.02  -0.13     0.01  -0.01   0.05    -0.09  -0.04   0.10
  37   6    -0.05  -0.02  -0.10     0.02  -0.01   0.06    -0.08  -0.04   0.04
  38   6     0.00  -0.01  -0.02    -0.06  -0.03  -0.06    -0.15  -0.02  -0.08
  39   6     0.03  -0.00   0.03    -0.08  -0.03  -0.11    -0.13  -0.01  -0.14
  40   6    -0.00  -0.01  -0.01    -0.01  -0.02  -0.02    -0.04  -0.02  -0.06
  41   8     0.05   0.01   0.07    -0.07  -0.04  -0.13    -0.01   0.00  -0.11
  42   6     0.04   0.01   0.07    -0.02  -0.03  -0.06     0.16   0.01   0.08
  43   6    -0.06  -0.02  -0.11     0.09   0.01   0.14     0.03  -0.04   0.06
  44   6    -0.09  -0.03  -0.15     0.11   0.02   0.18    -0.00  -0.05   0.10
  45   6    -0.02  -0.03  -0.09     0.02  -0.01   0.00    -0.07  -0.05   0.05
  46   6     0.04  -0.05  -0.15     0.05  -0.05  -0.08    -0.06  -0.08  -0.00
  47   6     0.03  -0.05  -0.11     0.04  -0.04  -0.08    -0.06  -0.07  -0.02
  48   6    -0.04  -0.03   0.01    -0.02   0.01   0.01    -0.08  -0.04   0.01
  49   8    -0.06  -0.02   0.09    -0.06   0.05   0.06    -0.11  -0.04   0.01
  50   6    -0.00  -0.03   0.03    -0.07   0.03   0.04    -0.09  -0.06  -0.05
  51   6    -0.09  -0.01   0.06    -0.03   0.04   0.07    -0.09  -0.02   0.05
  52   6    -0.08  -0.01   0.01    -0.02   0.02   0.06    -0.08  -0.03   0.07
  53   6     0.04   0.04  -0.02     0.01   0.11  -0.14    -0.05   0.06  -0.01
  54   6     0.04   0.06   0.06     0.02   0.11  -0.18    -0.04   0.12  -0.07
  55   6     0.00   0.05   0.19     0.01   0.01   0.02    -0.01   0.10  -0.06
  56   6    -0.00   0.03   0.12     0.01   0.02   0.03    -0.01   0.05  -0.04
  57   6     0.03   0.01   0.09     0.01   0.02   0.06     0.05   0.02  -0.05
  58   8     0.06   0.02   0.21     0.01   0.02   0.15     0.12   0.05  -0.13
  59   6    -0.04  -0.06  -0.06     0.01   0.12  -0.18     0.04  -0.12   0.06
  60   6    -0.04  -0.04   0.02     0.01   0.11  -0.14     0.05  -0.06   0.01
  61   6     0.08   0.01  -0.01    -0.02   0.02   0.06     0.08   0.03  -0.07
  62   6     0.09   0.01  -0.06    -0.03   0.04   0.07     0.09   0.03  -0.05
  63   1    -0.03   0.01  -0.01     0.01   0.01   0.01     0.02   0.03   0.01
  64   1     0.01   0.01   0.02    -0.03  -0.00  -0.01     0.03   0.02   0.02
  65   1     0.01   0.00  -0.03    -0.03   0.02   0.03     0.03   0.01   0.01
  66   1    -0.02   0.02   0.05     0.02  -0.02  -0.04     0.02   0.03   0.02
  67   1    -0.02   0.02   0.07     0.02  -0.03  -0.04     0.01   0.03   0.01
  68   1     0.04   0.01   0.06     0.05   0.01   0.08    -0.01   0.02  -0.05
  69   1     0.03   0.01   0.04     0.05   0.01   0.07    -0.03   0.01  -0.03
  70   1    -0.02   0.02  -0.00    -0.02   0.01   0.02    -0.04   0.03  -0.07
  71   1     0.01  -0.02  -0.02     0.04  -0.02  -0.01    -0.09  -0.03  -0.02
  72   1    -0.03  -0.01  -0.05    -0.03  -0.01  -0.05    -0.06  -0.01  -0.02
  73   1    -0.02  -0.00  -0.03    -0.04  -0.01  -0.06     0.05  -0.00   0.07
  74   1    -0.01   0.00  -0.00    -0.03  -0.01  -0.04     0.06   0.00   0.04
  75   1     0.04  -0.01   0.01    -0.00  -0.07   0.08     0.03   0.02  -0.04
  76   1     0.04  -0.03  -0.03     0.00  -0.06   0.06     0.02  -0.01  -0.01
  77   1     0.01  -0.02  -0.06     0.00   0.00  -0.07     0.03  -0.04   0.02
  78   1     0.02  -0.01  -0.03     0.00   0.01  -0.05     0.03  -0.02  -0.00
  79   1    -0.01  -0.02  -0.06    -0.00   0.00   0.02    -0.01  -0.03   0.02
  80   1    -0.02   0.01   0.03     0.00   0.01  -0.05    -0.03   0.02   0.00
  81   1    -0.02   0.02   0.06     0.00   0.00  -0.07    -0.03   0.04  -0.02
  82   1    -0.04   0.03   0.03     0.00  -0.06   0.07    -0.02   0.01   0.01
  83   1    -0.04   0.01  -0.01    -0.00  -0.07   0.08    -0.03  -0.02   0.04
  84   1     0.01  -0.00   0.00    -0.03  -0.01  -0.04    -0.06  -0.00  -0.04
  85   1     0.02   0.00   0.03    -0.04  -0.02  -0.06    -0.05   0.00  -0.07
  86   1     0.03   0.01   0.05    -0.03  -0.01  -0.05     0.06   0.01   0.02
  87   1     0.02  -0.01   0.00    -0.02   0.01   0.02     0.03  -0.03   0.07
  88   1    -0.01   0.02   0.02     0.04  -0.02  -0.01     0.09   0.03   0.02
  89   1    -0.03  -0.01  -0.04     0.05   0.01   0.07     0.03  -0.01   0.03
  90   1    -0.04  -0.01  -0.06     0.05   0.01   0.08     0.01  -0.02   0.05
  91   1     0.02  -0.02  -0.06     0.03  -0.03  -0.04    -0.01  -0.03  -0.01
  92   1     0.02  -0.02  -0.04     0.02  -0.02  -0.04    -0.02  -0.03  -0.02
  93   1     0.03  -0.01   0.01     0.01   0.01   0.01    -0.02  -0.03  -0.01
  94   1    -0.01  -0.00   0.03    -0.03   0.02   0.03    -0.03  -0.01  -0.01
  95   1    -0.01  -0.01  -0.02    -0.03  -0.01  -0.01    -0.03  -0.02  -0.03
  96   1    -0.04   0.00   0.04    -0.02   0.02   0.03    -0.03  -0.00   0.02
  97   1    -0.04   0.00   0.02    -0.01   0.01   0.03    -0.03  -0.01   0.03
  98   1     0.02   0.01  -0.02     0.00   0.06  -0.07    -0.01   0.02  -0.01
  99   1     0.03   0.02   0.03     0.01   0.06  -0.09    -0.01   0.05  -0.04
 100   1     0.01   0.02   0.06    -0.00   0.00   0.02     0.01   0.03  -0.02
 101   1    -0.03  -0.02  -0.02     0.01   0.06  -0.09     0.01  -0.05   0.04
 102   1    -0.02  -0.01   0.02     0.00   0.06  -0.07     0.01  -0.02   0.01
 103   1     0.04   0.00  -0.02    -0.01   0.01   0.03     0.03   0.01  -0.03
 104   1     0.04  -0.00  -0.04    -0.02   0.02   0.03     0.03   0.00  -0.02
                     16                     17                     18
                        a                      a                      a 
 Frequencies --    61.6469                67.8719                77.9507
 Red. masses --    10.4647                12.2200                10.3949
 Frc consts  --     0.0000                 0.0000                 0.0000
 IR Inten    --     2.9444                36.4080                 0.2138
 Raman Activ --     0.0000                 0.0000                 0.0000
 Depolar     --     0.0000                 0.0000                 0.0000
 Atom AN      X      Y      Z        X      Y      Z        X      Y      Z
   1   6     0.01   0.04   0.05    -0.04  -0.01  -0.02     0.13  -0.07  -0.22
   2   8    -0.03   0.07   0.12     0.04  -0.04  -0.11    -0.08   0.07   0.13
   3   6     0.02   0.03   0.02     0.00  -0.01  -0.01    -0.07   0.06   0.11
   4   6     0.11  -0.02  -0.14    -0.08   0.03   0.14    -0.04   0.05   0.06
   5   6     0.12  -0.03  -0.17    -0.09   0.03   0.17    -0.03   0.04   0.02
   6   6     0.05   0.02  -0.06    -0.02  -0.01   0.08    -0.03   0.04   0.01
   7   7     0.05   0.02  -0.05    -0.01  -0.01   0.10    -0.00   0.02  -0.06
   8   6     0.05   0.02   0.01    -0.00  -0.01   0.06    -0.01   0.02  -0.05
   9   6     0.11   0.05   0.12    -0.01  -0.03   0.02    -0.00   0.05  -0.01
  10   6     0.08   0.04   0.12     0.00  -0.03  -0.00    -0.03   0.04  -0.01
  11   6    -0.01  -0.00   0.00     0.02   0.00   0.02    -0.08   0.00  -0.07
  12   8    -0.08  -0.03  -0.07     0.05   0.01   0.01    -0.12  -0.02  -0.07
  13   6    -0.10  -0.02  -0.06     0.04  -0.01  -0.04     0.01   0.05   0.17
  14   6    -0.03  -0.03  -0.06     0.02   0.02   0.05    -0.09  -0.03  -0.12
  15   6     0.00  -0.02  -0.05     0.01   0.01   0.06    -0.05  -0.01  -0.10
  16   6     0.04   0.00  -0.03    -0.01  -0.02   0.02    -0.01  -0.01  -0.04
  17   6     0.02  -0.12   0.13     0.03   0.02  -0.07     0.02   0.01  -0.09
  18   6     0.02  -0.14   0.15     0.03   0.03  -0.14     0.02  -0.03  -0.07
  19   6     0.02  -0.05   0.03    -0.00   0.01  -0.14     0.00  -0.09   0.01
  20   6     0.02  -0.05   0.04    -0.00   0.02  -0.16     0.01  -0.09   0.01
  21   6     0.03  -0.05   0.05     0.00   0.02  -0.21     0.04  -0.08   0.01
  22   6     0.03  -0.03   0.07     0.00   0.02  -0.12     0.05  -0.04   0.00
  23   6     0.02  -0.02   0.05     0.00   0.02   0.01     0.03  -0.03  -0.00
  24   6     0.00  -0.02   0.01     0.00   0.02   0.02    -0.01  -0.04   0.00
  25   6     0.00  -0.04   0.03     0.00   0.02  -0.06    -0.01  -0.08   0.00
  26   6    -0.02  -0.01  -0.05     0.00   0.02   0.14    -0.04  -0.02   0.02
  27   8    -0.05  -0.02  -0.12     0.01   0.02   0.37    -0.08  -0.04   0.05
  28   6    -0.02   0.02  -0.05     0.00   0.02   0.01    -0.03   0.03   0.00
  29   6    -0.03   0.03  -0.07     0.00   0.02  -0.12    -0.05   0.04  -0.00
  30   6    -0.03   0.05  -0.05     0.00   0.02  -0.22    -0.04   0.08  -0.01
  31   6    -0.02   0.05  -0.04    -0.00   0.02  -0.17    -0.01   0.09  -0.01
  32   6    -0.02   0.05  -0.03    -0.00   0.01  -0.14    -0.00   0.09  -0.01
  33   6    -0.02   0.14  -0.15     0.03   0.03  -0.15    -0.02   0.03   0.07
  34   6    -0.02   0.12  -0.13     0.03   0.02  -0.07    -0.02  -0.01   0.09
  35   6    -0.04  -0.00   0.03    -0.01  -0.02   0.03     0.00   0.01   0.04
  36   7    -0.05  -0.02   0.05    -0.01  -0.01   0.10     0.00  -0.02   0.06
  37   6    -0.05  -0.02  -0.02    -0.00  -0.01   0.06     0.01  -0.02   0.05
  38   6    -0.00   0.02   0.05     0.00   0.01   0.06     0.05   0.01   0.11
  39   6     0.03   0.03   0.06     0.02   0.02   0.04     0.09   0.03   0.12
  40   6     0.01   0.00  -0.00     0.02   0.00   0.02     0.08   0.00   0.07
  41   8     0.08   0.04   0.07     0.05   0.01   0.01     0.13   0.02   0.08
  42   6     0.10   0.02   0.06     0.04  -0.01  -0.04    -0.01  -0.06  -0.17
  43   6    -0.08  -0.05  -0.12     0.00  -0.03  -0.00     0.03  -0.04   0.01
  44   6    -0.11  -0.06  -0.12    -0.01  -0.03   0.02     0.00  -0.05   0.01
  45   6    -0.05  -0.01   0.06    -0.02  -0.00   0.08     0.03  -0.04  -0.01
  46   6    -0.12   0.03   0.17    -0.09   0.03   0.17     0.03  -0.04  -0.02
  47   6    -0.11   0.02   0.14    -0.09   0.03   0.13     0.05  -0.05  -0.06
  48   6    -0.02  -0.03  -0.02     0.00  -0.01  -0.01     0.08  -0.07  -0.11
  49   8     0.03  -0.07  -0.12     0.04  -0.04  -0.11     0.09  -0.07  -0.13
  50   6    -0.01  -0.04  -0.05    -0.04  -0.01  -0.02    -0.13   0.08   0.23
  51   6     0.04  -0.07  -0.10     0.07  -0.04  -0.09     0.10  -0.08  -0.14
  52   6     0.02  -0.06  -0.06     0.05  -0.03  -0.04     0.07  -0.06  -0.09
  53   6    -0.05  -0.10   0.16    -0.05  -0.05   0.04     0.02   0.09  -0.06
  54   6    -0.05  -0.07   0.13    -0.05  -0.03  -0.05     0.02   0.13  -0.08
  55   6    -0.00   0.04  -0.03     0.00   0.02  -0.06     0.01   0.07  -0.00
  56   6    -0.00   0.02  -0.01     0.00   0.02   0.02     0.00   0.04  -0.01
  57   6     0.02   0.01   0.05     0.00   0.02   0.14     0.04   0.02  -0.02
  58   8     0.05   0.02   0.12     0.00   0.02   0.37     0.08   0.04  -0.05
  59   6     0.05   0.07  -0.13    -0.04  -0.03  -0.05    -0.02  -0.13   0.08
  60   6     0.05   0.10  -0.16    -0.05  -0.05   0.04    -0.02  -0.09   0.05
  61   6    -0.02   0.05   0.06     0.05  -0.03  -0.04    -0.07   0.05   0.08
  62   6    -0.04   0.07   0.10     0.07  -0.04  -0.09    -0.10   0.07   0.14
  63   1     0.05   0.01   0.01    -0.06   0.01  -0.00     0.06  -0.10  -0.06
  64   1    -0.02   0.00  -0.03     0.01  -0.00   0.04     0.04   0.04  -0.12
  65   1    -0.01   0.02   0.05     0.00  -0.01  -0.03     0.05  -0.03  -0.09
  66   1     0.05  -0.02  -0.07    -0.04   0.02   0.06    -0.01   0.01   0.01
  67   1     0.05  -0.02  -0.08    -0.04   0.02   0.08    -0.00   0.01  -0.00
  68   1     0.05   0.03   0.06    -0.01  -0.01   0.00     0.01   0.02   0.01
  69   1     0.03   0.02   0.06    -0.00  -0.01  -0.01    -0.01   0.02   0.01
  70   1    -0.04   0.02   0.01     0.01  -0.00  -0.02    -0.01  -0.01   0.09
  71   1     0.00  -0.02  -0.01     0.00  -0.01  -0.01     0.04   0.06   0.04
  72   1    -0.06  -0.01  -0.05     0.02   0.00  -0.01     0.00   0.01   0.06
  73   1    -0.02  -0.02  -0.04     0.01   0.01   0.02    -0.04  -0.02  -0.05
  74   1    -0.01  -0.01  -0.03     0.00   0.01   0.02    -0.01  -0.01  -0.04
  75   1     0.00  -0.06   0.06     0.02   0.01  -0.02     0.01   0.02  -0.04
  76   1     0.00  -0.07   0.08     0.02   0.02  -0.06     0.01   0.00  -0.03
  77   1     0.01  -0.01   0.01     0.00   0.00  -0.09     0.02  -0.03   0.01
  78   1     0.01  -0.01   0.03     0.00   0.01  -0.04     0.02  -0.01  -0.00
  79   1    -0.01  -0.01   0.01     0.00   0.01  -0.01    -0.01  -0.02  -0.00
  80   1    -0.01   0.01  -0.03     0.00   0.01  -0.04    -0.02   0.01   0.00
  81   1    -0.01   0.01  -0.01     0.00   0.00  -0.09    -0.02   0.03  -0.01
  82   1    -0.00   0.07  -0.08     0.02   0.02  -0.06    -0.01  -0.00   0.03
  83   1    -0.00   0.06  -0.06     0.02   0.01  -0.02    -0.01  -0.02   0.04
  84   1     0.01   0.01   0.03     0.00   0.01   0.02     0.01   0.01   0.04
  85   1     0.02   0.02   0.04     0.01   0.01   0.02     0.04   0.02   0.05
  86   1     0.05   0.02   0.05     0.02   0.00  -0.01    -0.00  -0.01  -0.07
  87   1     0.04  -0.02  -0.01     0.02  -0.01  -0.02     0.01   0.01  -0.10
  88   1    -0.00   0.02   0.01     0.00  -0.01  -0.01    -0.04  -0.07  -0.05
  89   1    -0.03  -0.02  -0.06    -0.00  -0.01  -0.01     0.01  -0.02  -0.01
  90   1    -0.05  -0.03  -0.06    -0.01  -0.01   0.00    -0.01  -0.02  -0.01
  91   1    -0.05   0.02   0.08    -0.04   0.02   0.08     0.00  -0.01   0.00
  92   1    -0.05   0.02   0.06    -0.04   0.02   0.06     0.01  -0.01  -0.01
  93   1    -0.05  -0.01  -0.01    -0.06   0.01  -0.00    -0.06   0.10   0.06
  94   1     0.01  -0.02  -0.05     0.00  -0.01  -0.03    -0.06   0.04   0.09
  95   1     0.02  -0.00   0.03     0.01  -0.00   0.04    -0.05  -0.04   0.12
  96   1     0.03  -0.03  -0.06     0.04  -0.02  -0.06     0.04  -0.03  -0.06
  97   1     0.02  -0.02  -0.03     0.03  -0.02  -0.03     0.02  -0.02  -0.02
  98   1    -0.02  -0.06   0.08    -0.02  -0.03   0.03     0.01   0.04  -0.03
  99   1    -0.02  -0.04   0.06    -0.02  -0.01  -0.01     0.01   0.06  -0.04
 100   1     0.01   0.01  -0.01     0.00   0.01  -0.01     0.01   0.02   0.00
 101   1     0.02   0.04  -0.06    -0.02  -0.01  -0.01    -0.01  -0.06   0.04
 102   1     0.02   0.06  -0.08    -0.02  -0.03   0.03    -0.01  -0.03   0.03
 103   1    -0.02   0.02   0.04     0.03  -0.01  -0.03    -0.02   0.01   0.02
 104   1    -0.03   0.03   0.06     0.04  -0.02  -0.06    -0.04   0.03   0.06
                     19                     20                     21
                        a                      a                      a 
 Frequencies --    79.6568                98.4827                99.9888
 Red. masses --    10.3384                10.2323                10.4125
 Frc consts  --     0.0000                 0.0000                 0.0000
 IR Inten    --    47.5390                 5.8613                 0.3651
 Raman Activ --     0.0000                 0.0000                 0.0000
 Depolar     --     0.0000                 0.0000                 0.0000
 Atom AN      X      Y      Z        X      Y      Z        X      Y      Z
   1   6    -0.06   0.06   0.23    -0.11   0.08   0.13     0.09  -0.10  -0.10
   2   8     0.11  -0.09  -0.12     0.08  -0.02  -0.13    -0.08  -0.04   0.10
   3   6     0.07  -0.06  -0.10     0.07  -0.03  -0.09    -0.09  -0.00   0.07
   4   6     0.04  -0.01  -0.04     0.10  -0.07  -0.13    -0.13   0.06   0.14
   5   6     0.01   0.01  -0.03     0.08  -0.05  -0.06    -0.13   0.06   0.07
   6   6    -0.00  -0.01  -0.05     0.03   0.00   0.06    -0.08  -0.00  -0.06
   7   7    -0.02   0.01  -0.02     0.00   0.02   0.14    -0.06  -0.01  -0.13
   8   6    -0.00   0.01   0.02    -0.04   0.01   0.05    -0.02  -0.00  -0.05
   9   6    -0.01  -0.00  -0.01    -0.11  -0.04  -0.10     0.06   0.03   0.07
  10   6     0.02   0.01   0.01    -0.14  -0.04  -0.17     0.11   0.05   0.15
  11   6     0.08   0.04   0.10    -0.09  -0.01  -0.10     0.08   0.03   0.12
  12   8     0.13   0.06   0.13    -0.09   0.00  -0.14     0.12   0.05   0.18
  13   6    -0.08  -0.03  -0.21     0.13   0.05   0.16    -0.13  -0.03  -0.19
  14   6     0.11   0.06   0.15    -0.03   0.03   0.01     0.02   0.01   0.01
  15   6     0.06   0.04   0.10    -0.01   0.04   0.09    -0.04  -0.01  -0.08
  16   6    -0.02   0.01  -0.00     0.01   0.05   0.07    -0.05  -0.04  -0.06
  17   6    -0.04  -0.06   0.09     0.02   0.05   0.05    -0.08  -0.06  -0.01
  18   6    -0.05  -0.06   0.11     0.02   0.03   0.03    -0.07  -0.03   0.01
  19   6    -0.04   0.00   0.04     0.00   0.02   0.02    -0.03   0.01  -0.01
  20   6    -0.04   0.00   0.03    -0.00  -0.01   0.00    -0.02   0.03   0.01
  21   6    -0.04   0.00   0.01    -0.01  -0.02  -0.06    -0.02   0.03   0.03
  22   6    -0.04   0.00  -0.01    -0.01  -0.03  -0.07    -0.02   0.02   0.04
  23   6    -0.05   0.00  -0.01     0.00  -0.05  -0.03    -0.01   0.02   0.02
  24   6    -0.05   0.00   0.01     0.01  -0.05   0.00    -0.01   0.02   0.02
  25   6    -0.04   0.00   0.04     0.01  -0.03   0.03    -0.02   0.02   0.02
  26   6    -0.05   0.00  -0.02     0.01  -0.05   0.00     0.01   0.00   0.00
  27   8    -0.05   0.01  -0.07     0.01  -0.06   0.03     0.04   0.01   0.01
  28   6    -0.05   0.00  -0.01     0.01  -0.05  -0.03     0.01  -0.01  -0.02
  29   6    -0.04   0.00  -0.01    -0.01  -0.04  -0.07     0.02  -0.02  -0.04
  30   6    -0.04  -0.00   0.01    -0.01  -0.02  -0.06     0.02  -0.03  -0.03
  31   6    -0.04  -0.00   0.03    -0.00  -0.02   0.00     0.03  -0.03  -0.01
  32   6    -0.04  -0.00   0.03     0.00   0.02   0.03     0.03  -0.01   0.01
  33   6    -0.05  -0.06   0.11     0.03   0.03   0.03     0.07   0.03  -0.01
  34   6    -0.04  -0.06   0.09     0.03   0.05   0.05     0.08   0.06   0.01
  35   6    -0.02   0.01  -0.00     0.01   0.05   0.07     0.05   0.04   0.06
  36   7    -0.02   0.01  -0.02     0.00   0.02   0.14     0.06   0.02   0.13
  37   6    -0.00   0.01   0.02    -0.04   0.01   0.05     0.02   0.00   0.05
  38   6     0.05   0.04   0.10    -0.00   0.04   0.09     0.04   0.01   0.07
  39   6     0.10   0.06   0.15    -0.04   0.03   0.01    -0.02  -0.01  -0.01
  40   6     0.08   0.04   0.09    -0.09  -0.01  -0.11    -0.08  -0.04  -0.11
  41   8     0.12   0.06   0.13    -0.09  -0.00  -0.14    -0.12  -0.05  -0.17
  42   6    -0.08  -0.03  -0.20     0.14   0.05   0.17     0.12   0.03   0.19
  43   6     0.02   0.01   0.01    -0.15  -0.05  -0.18    -0.10  -0.05  -0.15
  44   6    -0.01  -0.00  -0.01    -0.12  -0.04  -0.10    -0.05  -0.03  -0.07
  45   6    -0.00  -0.01  -0.05     0.03   0.00   0.06     0.08   0.00   0.06
  46   6     0.01   0.01  -0.03     0.08  -0.06  -0.06     0.12  -0.06  -0.07
  47   6     0.04  -0.01  -0.04     0.10  -0.07  -0.14     0.13  -0.06  -0.14
  48   6     0.07  -0.06  -0.10     0.08  -0.03  -0.09     0.09   0.00  -0.07
  49   8     0.11  -0.09  -0.11     0.08  -0.02  -0.14     0.07   0.03  -0.10
  50   6    -0.05   0.06   0.22    -0.11   0.08   0.14    -0.09   0.10   0.09
  51   6     0.08  -0.08  -0.14     0.04   0.02   0.01     0.06   0.06   0.04
  52   6     0.03  -0.05  -0.10     0.02   0.03   0.08     0.06   0.05   0.09
  53   6    -0.01   0.07  -0.08    -0.01   0.06   0.04     0.02   0.01   0.06
  54   6    -0.02   0.06  -0.06    -0.01   0.05   0.02     0.01  -0.01   0.04
  55   6    -0.05   0.00   0.04     0.01  -0.03   0.03     0.02  -0.02  -0.02
  56   6    -0.05   0.00   0.01     0.01  -0.05   0.00     0.01  -0.02  -0.02
  57   6    -0.05   0.00  -0.02     0.01  -0.05   0.00    -0.01  -0.00  -0.00
  58   8    -0.06   0.01  -0.07     0.01  -0.06   0.03    -0.04  -0.01  -0.01
  59   6    -0.01   0.07  -0.06    -0.02   0.05   0.02    -0.01   0.01  -0.04
  60   6    -0.01   0.07  -0.08    -0.01   0.06   0.04    -0.02  -0.02  -0.07
  61   6     0.04  -0.05  -0.11     0.02   0.03   0.08    -0.06  -0.05  -0.10
  62   6     0.08  -0.08  -0.15     0.04   0.02   0.01    -0.06  -0.06  -0.04
  63   1    -0.04   0.09   0.06    -0.03   0.09   0.03     0.01  -0.08  -0.02
  64   1    -0.02  -0.03   0.12    -0.05  -0.04   0.07     0.05   0.03  -0.04
  65   1    -0.03   0.02   0.09    -0.06   0.04   0.08     0.06  -0.05  -0.07
  66   1     0.01   0.00  -0.01     0.04  -0.03  -0.07    -0.05   0.03   0.07
  67   1    -0.00   0.01   0.00     0.03  -0.03  -0.03    -0.04   0.03   0.03
  68   1    -0.01  -0.01  -0.02    -0.04  -0.02  -0.04     0.02   0.01   0.03
  69   1     0.00  -0.00  -0.01    -0.06  -0.02  -0.08     0.05   0.02   0.07
  70   1    -0.01   0.04  -0.12     0.04  -0.06   0.07    -0.03   0.07  -0.10
  71   1    -0.08  -0.07  -0.06     0.05   0.09   0.04    -0.07  -0.09  -0.05
  72   1    -0.03  -0.01  -0.08     0.08   0.03   0.10    -0.07  -0.02  -0.10
  73   1     0.05   0.02   0.07    -0.00   0.02   0.01     0.00  -0.00  -0.00
  74   1     0.02   0.01   0.04     0.01   0.02   0.05    -0.03  -0.01  -0.05
  75   1    -0.02  -0.03   0.04     0.01   0.02   0.01    -0.03  -0.03   0.00
  76   1    -0.02  -0.03   0.05     0.01   0.01   0.01    -0.03  -0.01   0.01
  77   1    -0.01   0.00  -0.00    -0.01  -0.00  -0.03    -0.01   0.01   0.01
  78   1    -0.01   0.00  -0.01    -0.01  -0.01  -0.03    -0.01   0.01   0.02
  79   1    -0.01   0.00   0.02     0.01  -0.01   0.02    -0.00   0.01   0.01
  80   1    -0.01   0.00  -0.01    -0.01  -0.01  -0.03     0.01  -0.00  -0.01
  81   1    -0.01   0.00  -0.00    -0.01  -0.00  -0.03     0.01  -0.01  -0.01
  82   1    -0.02  -0.03   0.05     0.01   0.01   0.01     0.03   0.01  -0.01
  83   1    -0.02  -0.03   0.04     0.01   0.02   0.01     0.03   0.02  -0.00
  84   1     0.02   0.01   0.03     0.01   0.02   0.05     0.03   0.01   0.05
  85   1     0.04   0.02   0.06    -0.00   0.02   0.01    -0.00  -0.00   0.00
  86   1    -0.03  -0.01  -0.08     0.08   0.03   0.10     0.07   0.02   0.10
  87   1    -0.01   0.03  -0.12     0.04  -0.06   0.08     0.03  -0.06   0.10
  88   1    -0.07  -0.07  -0.05     0.05   0.09   0.04     0.06   0.09   0.04
  89   1     0.00  -0.00  -0.01    -0.06  -0.03  -0.09    -0.05  -0.02  -0.07
  90   1    -0.01  -0.01  -0.02    -0.04  -0.02  -0.04    -0.02  -0.01  -0.03
  91   1    -0.00   0.01   0.00     0.03  -0.03  -0.03     0.04  -0.03  -0.03
  92   1     0.01   0.00  -0.00     0.04  -0.03  -0.07     0.05  -0.03  -0.07
  93   1    -0.04   0.09   0.05    -0.03   0.09   0.03    -0.01   0.07   0.02
  94   1    -0.02   0.02   0.09    -0.06   0.05   0.08    -0.05   0.05   0.06
  95   1    -0.02  -0.03   0.12    -0.05  -0.04   0.07    -0.05  -0.03   0.04
  96   1     0.03  -0.03  -0.05     0.01   0.01   0.01     0.01   0.03   0.02
  97   1     0.01  -0.02  -0.03    -0.00   0.02   0.05     0.01   0.03   0.05
  98   1    -0.00   0.03  -0.04    -0.01   0.02   0.01    -0.00   0.01   0.02
  99   1     0.00   0.03  -0.03    -0.01   0.02  -0.00    -0.00  -0.01   0.01
 100   1    -0.02  -0.00   0.02     0.01  -0.01   0.02     0.00  -0.01  -0.01
 101   1     0.00   0.03  -0.03    -0.01   0.02  -0.00     0.00   0.01  -0.01
 102   1    -0.00   0.04  -0.04    -0.01   0.02   0.01     0.00  -0.01  -0.03
 103   1     0.01  -0.02  -0.03    -0.00   0.02   0.05    -0.01  -0.03  -0.05
 104   1     0.03  -0.03  -0.06     0.01   0.01   0.01    -0.01  -0.03  -0.02
                     22                     23                     24
                        a                      a                      a 
 Frequencies --   105.8112               108.9701               116.9345
 Red. masses --     9.9567                 9.8430                11.4767
 Frc consts  --     0.0000                 0.0000                 0.0000
 IR Inten    --   117.5118                 3.3478                 5.8020
 Raman Activ --     0.0000                 0.0000                 0.0000
 Depolar     --     0.0000                 0.0000                 0.0000
 Atom AN      X      Y      Z        X      Y      Z        X      Y      Z
   1   6    -0.07   0.02   0.11     0.04  -0.01  -0.09     0.02   0.01  -0.10
   2   8     0.04  -0.06  -0.08    -0.02   0.04   0.03    -0.06   0.12   0.12
   3   6     0.04  -0.05  -0.07    -0.03   0.04   0.05     0.02   0.05   0.05
   4   6     0.08  -0.08  -0.15    -0.09   0.08   0.16     0.03   0.01   0.03
   5   6     0.06  -0.07  -0.10    -0.06   0.06   0.13     0.07  -0.03   0.00
   6   6    -0.01  -0.01   0.02    -0.00   0.01   0.01     0.11  -0.03  -0.02
   7   7    -0.02  -0.00   0.07     0.01   0.00  -0.02     0.10  -0.03  -0.01
   8   6    -0.01   0.00   0.07    -0.00  -0.00  -0.04     0.08  -0.04  -0.01
   9   6     0.07   0.02   0.16    -0.09  -0.03  -0.16     0.10  -0.02   0.03
  10   6     0.10   0.03   0.17    -0.13  -0.04  -0.19     0.08  -0.03   0.04
  11   6     0.03   0.03   0.05    -0.04  -0.03  -0.06     0.05  -0.07   0.00
  12   8     0.02   0.04  -0.02    -0.04  -0.03  -0.02     0.02  -0.10  -0.01
  13   6     0.01  -0.00  -0.09     0.02   0.01   0.11     0.00  -0.08   0.00
  14   6    -0.05   0.02  -0.04     0.04  -0.01   0.06     0.04  -0.09  -0.03
  15   6    -0.06   0.01  -0.02     0.06   0.00   0.06     0.06  -0.08  -0.03
  16   6    -0.02   0.01  -0.01     0.01  -0.00   0.01     0.09   0.01   0.00
  17   6     0.02   0.10  -0.14    -0.02  -0.12   0.17     0.06   0.09  -0.05
  18   6     0.02   0.11  -0.20    -0.02  -0.15   0.20     0.06   0.13  -0.05
  19   6    -0.01   0.02  -0.09    -0.00  -0.02   0.04     0.06   0.09   0.00
  20   6    -0.01   0.01  -0.06     0.00  -0.01   0.02     0.04   0.08   0.01
  21   6    -0.02   0.00   0.12     0.01  -0.01  -0.05    -0.01   0.06  -0.02
  22   6    -0.02  -0.01   0.16     0.01  -0.00  -0.04    -0.02   0.03  -0.05
  23   6    -0.01  -0.01   0.05     0.00  -0.00   0.00    -0.01   0.03  -0.03
  24   6    -0.01  -0.01  -0.05    -0.00  -0.00   0.01     0.03   0.04   0.01
  25   6    -0.01   0.00  -0.14    -0.01  -0.01   0.05     0.04   0.07   0.03
  26   6    -0.01  -0.01   0.01    -0.00  -0.00  -0.03     0.03   0.03   0.03
  27   8    -0.01  -0.01   0.03    -0.01  -0.00  -0.11     0.07   0.04   0.17
  28   6    -0.01  -0.01   0.05    -0.00   0.00  -0.01     0.02  -0.01  -0.08
  29   6    -0.02  -0.01   0.16    -0.01   0.01   0.03     0.03  -0.02  -0.21
  30   6    -0.02   0.00   0.12    -0.00   0.01   0.04     0.03  -0.06  -0.16
  31   6    -0.01   0.01  -0.06     0.00   0.01  -0.02    -0.04  -0.09   0.05
  32   6    -0.01   0.02  -0.09     0.00   0.02  -0.03    -0.06  -0.12   0.13
  33   6     0.02   0.12  -0.21     0.02   0.14  -0.19    -0.08  -0.10   0.09
  34   6     0.02   0.10  -0.15     0.02   0.12  -0.16    -0.08  -0.05   0.04
  35   6    -0.02   0.01  -0.01    -0.01   0.00  -0.00    -0.10  -0.02   0.03
  36   7    -0.02   0.00   0.07    -0.01  -0.00   0.01    -0.11   0.04  -0.06
  37   6    -0.01   0.01   0.07     0.00   0.00   0.03    -0.09   0.05  -0.05
  38   6    -0.06   0.01  -0.02    -0.05  -0.00  -0.06    -0.08   0.08  -0.04
  39   6    -0.05   0.02  -0.04    -0.04   0.01  -0.05    -0.05   0.09  -0.00
  40   6     0.03   0.03   0.05     0.04   0.03   0.06    -0.03   0.10   0.02
  41   8     0.02   0.04  -0.02     0.04   0.03   0.02     0.01   0.13   0.08
  42   6     0.01  -0.00  -0.09    -0.02  -0.01  -0.10    -0.07   0.10  -0.03
  43   6     0.10   0.03   0.17     0.12   0.05   0.18    -0.05   0.07  -0.01
  44   6     0.07   0.02   0.17     0.09   0.04   0.16    -0.08   0.06  -0.04
  45   6    -0.01  -0.01   0.02     0.00  -0.01  -0.01    -0.12   0.04  -0.05
  46   6     0.06  -0.07  -0.11     0.06  -0.06  -0.13    -0.04   0.02  -0.11
  47   6     0.09  -0.09  -0.16     0.09  -0.08  -0.16     0.02  -0.03  -0.13
  48   6     0.04  -0.05  -0.07     0.02  -0.04  -0.05    -0.01  -0.06  -0.07
  49   8     0.04  -0.06  -0.08     0.02  -0.04  -0.03     0.06  -0.15  -0.09
  50   6    -0.08   0.02   0.11    -0.04   0.01   0.08     0.02  -0.01   0.15
  51   6    -0.02  -0.01   0.04    -0.04  -0.00   0.05    -0.11  -0.04   0.02
  52   6    -0.04   0.01   0.08    -0.04   0.01   0.06    -0.17   0.01   0.03
  53   6    -0.04  -0.06   0.07    -0.02  -0.10   0.14    -0.09  -0.08   0.12
  54   6    -0.04  -0.07   0.04    -0.02  -0.11   0.14    -0.10  -0.13   0.18
  55   6    -0.01   0.00  -0.14     0.01   0.01  -0.04    -0.04  -0.07   0.09
  56   6    -0.01  -0.01  -0.05     0.00   0.00  -0.01    -0.03  -0.03  -0.01
  57   6    -0.01  -0.01   0.01     0.01   0.00   0.03    -0.03  -0.01  -0.03
  58   8    -0.01  -0.01   0.03     0.01   0.00   0.12    -0.07  -0.03  -0.06
  59   6    -0.04  -0.06   0.03     0.02   0.11  -0.13     0.09   0.02   0.05
  60   6    -0.04  -0.06   0.06     0.02   0.11  -0.13     0.09  -0.02   0.05
  61   6    -0.04   0.01   0.08     0.04  -0.01  -0.06     0.12  -0.00  -0.04
  62   6    -0.02  -0.01   0.04     0.03   0.00  -0.05     0.07   0.04   0.00
  63   1    -0.00   0.05   0.03    -0.02  -0.04  -0.02     0.03  -0.04  -0.03
  64   1    -0.04  -0.04   0.04     0.03   0.04  -0.02     0.00   0.03  -0.07
  65   1    -0.05   0.02   0.07     0.04  -0.02  -0.07     0.00   0.01  -0.04
  66   1     0.04  -0.04  -0.07    -0.04   0.03   0.07    -0.00   0.00   0.01
  67   1     0.02  -0.03  -0.04    -0.03   0.03   0.05     0.02  -0.01  -0.00
  68   1     0.03   0.01   0.06    -0.04  -0.01  -0.07     0.03  -0.00   0.01
  69   1     0.05   0.01   0.07    -0.06  -0.02  -0.09     0.03  -0.00   0.02
  70   1    -0.01   0.03  -0.01     0.02  -0.04   0.02    -0.01  -0.01   0.01
  71   1     0.03  -0.04  -0.02    -0.02   0.05   0.02     0.02  -0.03   0.00
  72   1    -0.02  -0.00  -0.07     0.04   0.01   0.08    -0.01  -0.03  -0.01
  73   1    -0.03   0.01  -0.03     0.03   0.00   0.04     0.01  -0.03  -0.02
  74   1    -0.04   0.00  -0.02     0.04   0.00   0.04     0.02  -0.03  -0.02
  75   1     0.02   0.04  -0.05    -0.01  -0.06   0.07     0.01   0.03  -0.03
  76   1     0.01   0.06  -0.09    -0.01  -0.07   0.09     0.02   0.05  -0.03
  77   1    -0.01   0.00   0.06     0.00  -0.00  -0.03    -0.01   0.02  -0.00
  78   1    -0.01  -0.00   0.08     0.00  -0.00  -0.02    -0.01   0.01  -0.02
  79   1     0.00   0.00  -0.07    -0.00  -0.00   0.03     0.01   0.02   0.01
  80   1    -0.01  -0.00   0.08    -0.00   0.00   0.01     0.01  -0.00  -0.09
  81   1    -0.01   0.00   0.06    -0.00   0.00   0.02     0.02  -0.03  -0.07
  82   1     0.01   0.06  -0.09     0.01   0.07  -0.09    -0.03  -0.03   0.03
  83   1     0.02   0.05  -0.06     0.01   0.06  -0.07    -0.02  -0.00   0.00
  84   1    -0.04   0.00  -0.02    -0.04  -0.00  -0.04    -0.03   0.02  -0.01
  85   1    -0.03   0.00  -0.04    -0.03  -0.00  -0.04    -0.01   0.03   0.01
  86   1    -0.02  -0.01  -0.07    -0.03  -0.01  -0.08    -0.02   0.03  -0.01
  87   1    -0.01   0.03  -0.01    -0.02   0.04  -0.02    -0.01   0.04  -0.04
  88   1     0.03  -0.04  -0.02     0.02  -0.05  -0.02    -0.05   0.01  -0.01
  89   1     0.05   0.01   0.07     0.06   0.02   0.08    -0.01   0.02  -0.00
  90   1     0.03   0.01   0.07     0.04   0.02   0.06    -0.03   0.02  -0.01
  91   1     0.03  -0.03  -0.04     0.03  -0.03  -0.05    -0.01   0.01  -0.04
  92   1     0.04  -0.04  -0.08     0.04  -0.03  -0.07     0.03  -0.01  -0.05
  93   1    -0.00   0.06   0.03     0.02   0.03   0.02     0.01   0.06   0.04
  94   1    -0.05   0.03   0.08    -0.03   0.02   0.07    -0.00  -0.01   0.08
  95   1    -0.04  -0.04   0.04    -0.03  -0.03   0.02    -0.00  -0.03   0.07
  96   1    -0.02   0.01   0.03    -0.02   0.01   0.04    -0.04  -0.01   0.02
  97   1    -0.03   0.01   0.05    -0.03   0.01   0.04    -0.07   0.01   0.03
  98   1    -0.02  -0.04   0.05    -0.01  -0.06   0.07    -0.02  -0.03   0.03
  99   1    -0.02  -0.04   0.04    -0.01  -0.06   0.07    -0.04  -0.05   0.06
 100   1     0.00   0.00  -0.07     0.01   0.00  -0.02    -0.02  -0.02   0.06
 101   1    -0.02  -0.04   0.03     0.01   0.06  -0.07     0.03   0.00   0.03
 102   1    -0.02  -0.03   0.04     0.01   0.06  -0.07     0.03  -0.02   0.03
 103   1    -0.03   0.01   0.05     0.03  -0.01  -0.04     0.05  -0.00  -0.02
 104   1    -0.02   0.01   0.03     0.02  -0.01  -0.04     0.02   0.02   0.00
                     25                     26                     27
                        a                      a                      a 
 Frequencies --   116.9584               130.4226               139.7247
 Red. masses --    10.8431                11.7659                11.6807
 Frc consts  --     0.0000                 0.0000                 0.0000
 IR Inten    --    28.0072                 3.1649                 4.0746
 Raman Activ --     0.0000                 0.0000                 0.0000
 Depolar     --     0.0000                 0.0000                 0.0000
 Atom AN      X      Y      Z        X      Y      Z        X      Y      Z
   1   6    -0.04   0.01  -0.11     0.06   0.01  -0.03    -0.08  -0.04  -0.06
   2   8    -0.03   0.09   0.02    -0.05   0.07   0.14    -0.07   0.01   0.04
   3   6     0.00   0.04   0.06     0.01   0.03   0.01    -0.02  -0.03   0.02
   4   6    -0.05   0.03   0.14     0.05  -0.00  -0.05    -0.02  -0.04   0.02
   5   6    -0.00  -0.00   0.14     0.06  -0.02  -0.08     0.00  -0.05   0.03
   6   6     0.07  -0.03   0.07     0.06  -0.01  -0.07     0.02  -0.04   0.03
   7   7     0.07  -0.03   0.09     0.04  -0.00  -0.05    -0.03  -0.01   0.07
   8   6     0.05  -0.04   0.06     0.02  -0.01  -0.06    -0.09  -0.03   0.01
   9   6     0.03  -0.06   0.02     0.02  -0.00  -0.05    -0.06  -0.03   0.03
  10   6     0.00  -0.07  -0.02     0.02  -0.00  -0.02    -0.02  -0.02   0.04
  11   6     0.00  -0.07  -0.03     0.03  -0.02   0.01    -0.01   0.01   0.04
[...]
  74   1     0.00   0.00  -0.00    -0.00  -0.00   0.00    -0.00  -0.00   0.00
  75   1     0.06  -0.10  -0.08    -0.00   0.00   0.00    -0.00   0.00   0.00
  76   1    -0.18  -0.18  -0.17     0.01   0.01   0.01     0.00   0.00   0.00
  77   1     0.00   0.00  -0.00     0.00   0.00  -0.00     0.00   0.00  -0.00
  78   1    -0.01   0.01   0.00     0.00  -0.00   0.00    -0.00   0.01   0.00
  79   1     0.02  -0.05  -0.00    -0.00   0.00   0.00     0.00  -0.00   0.00
  80   1     0.00  -0.00  -0.00     0.00  -0.00   0.00     0.00  -0.01  -0.00
  81   1     0.00   0.00  -0.00     0.00   0.00  -0.00    -0.00  -0.00   0.00
  82   1     0.47   0.48   0.45     0.01   0.01   0.01    -0.00  -0.00  -0.00
  83   1    -0.14   0.26   0.19    -0.00   0.00   0.00     0.00  -0.00  -0.00
  84   1     0.00   0.00  -0.00    -0.00  -0.00   0.00     0.00   0.00  -0.00
  85   1    -0.01   0.00   0.00     0.02  -0.01  -0.01    -0.01   0.00   0.01
  86   1     0.00  -0.00  -0.00    -0.00   0.00   0.00    -0.00   0.00   0.00
  87   1     0.00   0.00   0.00    -0.00  -0.00  -0.00     0.00  -0.00   0.00
  88   1    -0.00   0.00   0.00    -0.00   0.00   0.00    -0.00  -0.00   0.00
  89   1    -0.01  -0.01   0.01    -0.02  -0.03   0.02    -0.00  -0.00   0.00
  90   1     0.03  -0.01  -0.02    -0.01   0.00   0.01    -0.00   0.00   0.00
  91   1    -0.01   0.00  -0.01    -0.17   0.01  -0.11     0.18  -0.01   0.11
  92   1     0.00  -0.01   0.01    -0.16   0.52  -0.32     0.16  -0.54   0.33
  93   1     0.00   0.00   0.00    -0.00  -0.00  -0.01     0.00   0.00   0.01
  94   1     0.00   0.00   0.00    -0.01  -0.00  -0.00     0.01   0.00   0.00
  95   1     0.00  -0.00  -0.00    -0.01   0.00   0.00     0.01  -0.00  -0.00
  96   1    -0.00   0.00  -0.00    -0.02   0.00  -0.01     0.04  -0.00   0.03
  97   1     0.00  -0.01   0.00    -0.00   0.01  -0.01     0.00  -0.02   0.01
  98   1    -0.01  -0.01  -0.01     0.00   0.00   0.00    -0.01  -0.01  -0.01
  99   1     0.02  -0.04  -0.03     0.00  -0.00  -0.00     0.00  -0.00  -0.00
 100   1    -0.05   0.12  -0.00    -0.00   0.00   0.00    -0.00   0.00  -0.00
 101   1    -0.01   0.03   0.02     0.00  -0.00  -0.00    -0.00   0.00   0.00
 102   1     0.01   0.01   0.01     0.00   0.00   0.00     0.01   0.01   0.01
 103   1     0.00  -0.00   0.00    -0.00   0.01  -0.01    -0.00   0.02  -0.01
 104   1    -0.00   0.00  -0.00    -0.03   0.00  -0.02    -0.04   0.00  -0.03
                    301                    302                    303
                        a                      a                      a 
 Frequencies --  3109.4194              3109.5042              3111.8529
 Red. masses --     1.8551                 1.8553                 1.8601
 Frc consts  --     0.0000                 0.0000                 0.0000
 IR Inten    --   549.7157                 4.4415               694.5444
 Raman Activ --     0.0000                 0.0000                 0.0000
 Depolar     --     0.0000                 0.0000                 0.0000
 Atom AN      X      Y      Z        X      Y      Z        X      Y      Z
   1   6     0.00  -0.00   0.00    -0.00   0.00  -0.00     0.00  -0.00   0.00
   2   8    -0.00  -0.00   0.00    -0.00  -0.00  -0.00    -0.00  -0.00   0.00
   3   6     0.00   0.00   0.00     0.00   0.00   0.00     0.00   0.00   0.00
   4   6     0.00  -0.01   0.01    -0.00   0.00  -0.00     0.00  -0.00   0.00
   5   6     0.00  -0.00   0.00    -0.00   0.00  -0.00     0.00  -0.00   0.00
   6   6    -0.00   0.00  -0.00     0.00  -0.00   0.00    -0.00  -0.00  -0.00
   7   7    -0.00  -0.00  -0.00    -0.00  -0.00  -0.00     0.00  -0.00  -0.00
   8   6     0.00   0.00  -0.00     0.00   0.00  -0.00    -0.00   0.00   0.00
   9   6    -0.06   0.01   0.04    -0.05   0.01   0.03    -0.00   0.00   0.00
  10   6    -0.10  -0.14   0.10    -0.08  -0.12   0.08    -0.01  -0.01   0.01
  11   6     0.00  -0.01  -0.00     0.00  -0.01  -0.00     0.00  -0.01  -0.00
  12   8    -0.00  -0.00   0.00    -0.00  -0.00   0.00    -0.00   0.00  -0.00
  13   6    -0.00   0.00   0.00    -0.00   0.00   0.00     0.00   0.00  -0.00
  14   6    -0.01   0.01   0.01    -0.02   0.01   0.01     0.15  -0.04  -0.09
  15   6    -0.00  -0.00   0.00    -0.00  -0.01   0.00     0.02   0.04  -0.03
  16   6     0.00  -0.00   0.00     0.00  -0.00   0.00     0.00  -0.00  -0.00
  17   6     0.00  -0.00  -0.00     0.00  -0.00  -0.00    -0.00   0.00   0.00
  18   6     0.00  -0.00  -0.00    -0.00  -0.00  -0.00     0.00   0.00   0.00
  19   6     0.00   0.00   0.00    -0.00   0.00   0.00     0.00  -0.00   0.00
  20   6     0.00   0.00  -0.00     0.00  -0.00  -0.00     0.00   0.00  -0.00
  21   6    -0.00  -0.00   0.00     0.00   0.00  -0.00    -0.00  -0.00   0.00
  22   6     0.00  -0.00   0.00    -0.00   0.00   0.00     0.00  -0.00   0.00
  23   6     0.00  -0.00  -0.00    -0.00   0.00  -0.00     0.00  -0.00  -0.00
  24   6     0.00   0.00   0.00     0.00  -0.00  -0.00     0.00   0.00   0.00
  25   6     0.00  -0.00  -0.00     0.00  -0.00   0.00    -0.00   0.00  -0.00
  26   6    -0.00  -0.00  -0.00    -0.00   0.00   0.00    -0.00  -0.00  -0.00
  27   8    -0.00   0.00  -0.00     0.00  -0.00  -0.00     0.00   0.00   0.00
  28   6     0.00  -0.00  -0.00     0.00  -0.00   0.00     0.00   0.00  -0.00
  29   6     0.00  -0.00   0.00     0.00  -0.00  -0.00     0.00  -0.00   0.00
  30   6    -0.00  -0.00   0.00    -0.00  -0.00   0.00    -0.00  -0.00   0.00
  31   6     0.00   0.00  -0.00    -0.00   0.00  -0.00     0.00   0.00  -0.00
  32   6     0.00   0.00   0.00     0.00  -0.00  -0.00     0.00  -0.00   0.00
  33   6     0.00   0.00   0.00     0.00   0.00   0.00     0.00   0.00   0.00
  34   6     0.00  -0.00  -0.00    -0.00   0.00   0.00    -0.00   0.00   0.00
  35   6     0.00  -0.00   0.00    -0.00   0.00  -0.00     0.00  -0.00  -0.00
  36   7    -0.00  -0.00  -0.00     0.00   0.00   0.00     0.00  -0.00   0.00
  37   6     0.00   0.00  -0.00    -0.00  -0.00   0.00    -0.00   0.00   0.00
  38   6    -0.00  -0.00   0.00     0.00   0.01  -0.00     0.03   0.04  -0.03
  39   6    -0.01   0.00   0.01     0.02  -0.01  -0.01     0.16  -0.04  -0.10
  40   6     0.00  -0.01  -0.00    -0.00   0.01   0.00     0.00  -0.01  -0.00
  41   8    -0.00  -0.00   0.00     0.00   0.00  -0.00    -0.00   0.00  -0.00
  42   6    -0.00   0.00   0.00     0.00  -0.00  -0.00     0.00   0.00  -0.00
  43   6    -0.08  -0.12   0.09     0.10   0.14  -0.10    -0.01  -0.01   0.01
  44   6    -0.05   0.01   0.03     0.06  -0.01  -0.04    -0.00   0.00   0.00
  45   6    -0.00   0.00  -0.00     0.00   0.00  -0.00    -0.00  -0.00  -0.00
  46   6     0.00  -0.00   0.00     0.00  -0.00   0.00     0.00  -0.00   0.00
  47   6     0.00  -0.01   0.01     0.00  -0.00   0.00     0.00  -0.00   0.00
  48   6     0.00   0.00   0.00    -0.00  -0.00  -0.00     0.00   0.00   0.00
  49   8    -0.00  -0.00   0.00     0.00   0.00   0.00    -0.00  -0.00   0.00
  50   6     0.00  -0.00   0.00     0.00  -0.00  -0.00     0.00  -0.00   0.00
  51   6     0.01  -0.00   0.01    -0.00   0.00  -0.00     0.04  -0.00   0.02
  52   6     0.00  -0.00   0.00    -0.00  -0.00   0.00     0.00  -0.01   0.01
  53   6    -0.00  -0.00  -0.00     0.00   0.00   0.00    -0.00  -0.00  -0.00
  54   6     0.00  -0.00  -0.00    -0.00   0.00   0.00     0.00  -0.00  -0.00
  55   6     0.00  -0.00  -0.00    -0.00   0.00  -0.00    -0.00   0.00  -0.00
  56   6    -0.00   0.00   0.00    -0.00   0.00  -0.00     0.00  -0.00   0.00
  57   6     0.00  -0.00  -0.00     0.00  -0.00  -0.00    -0.00   0.00  -0.00
  58   8    -0.00   0.00  -0.00    -0.00   0.00   0.00     0.00  -0.00   0.00
  59   6     0.00  -0.00  -0.00     0.00  -0.00  -0.00     0.00  -0.00  -0.00
  60   6    -0.00  -0.00  -0.00     0.00   0.00   0.00    -0.00  -0.00  -0.00
  61   6     0.00  -0.00   0.00    -0.00   0.00  -0.00     0.00  -0.01   0.01
  62   6     0.01  -0.00   0.01     0.00  -0.00   0.00     0.04  -0.00   0.02
  63   1    -0.00  -0.00  -0.00     0.00   0.00   0.00    -0.00  -0.00  -0.00
  64   1    -0.00   0.00   0.00     0.00  -0.00  -0.00    -0.00   0.00   0.00
  65   1    -0.00   0.00  -0.00    -0.00  -0.00   0.00     0.00   0.00   0.00
  66   1    -0.01   0.03  -0.02     0.00  -0.01   0.01    -0.00   0.02  -0.01
  67   1    -0.01   0.00  -0.01     0.00  -0.00   0.00    -0.01   0.00  -0.01
  68   1     0.18  -0.04  -0.12     0.16  -0.03  -0.10     0.00  -0.00  -0.00
  69   1     0.33   0.50  -0.34     0.28   0.43  -0.29     0.02   0.03  -0.02
  70   1     0.01   0.00   0.00     0.01   0.00   0.00    -0.00  -0.00  -0.00
  71   1     0.00  -0.00  -0.01     0.00  -0.00  -0.01     0.00  -0.00   0.00
  72   1     0.00  -0.01  -0.00     0.00  -0.00  -0.00     0.00  -0.00  -0.00
  73   1     0.05  -0.01  -0.03     0.07  -0.02  -0.04    -0.51   0.12   0.32
  74   1     0.01   0.02  -0.01     0.01   0.02  -0.01    -0.08  -0.12   0.08
  75   1    -0.00   0.00   0.00    -0.00   0.01   0.01     0.00  -0.01  -0.00
  76   1    -0.00  -0.00  -0.00     0.00   0.00   0.00    -0.00  -0.00  -0.00
  77   1     0.00   0.00  -0.00    -0.00  -0.00   0.00     0.00   0.00  -0.00
  78   1    -0.00   0.00   0.00     0.00  -0.00  -0.00    -0.00   0.00   0.00
  79   1    -0.00   0.00  -0.00    -0.00   0.00  -0.00     0.00  -0.00  -0.00
  80   1    -0.00   0.00   0.00    -0.00   0.00   0.00    -0.00   0.00   0.00
  81   1     0.00   0.00  -0.00     0.00   0.00  -0.00     0.00   0.00  -0.00
  82   1    -0.00  -0.00  -0.00    -0.00  -0.00  -0.00    -0.00  -0.00  -0.00
  83   1    -0.00   0.00   0.00     0.00  -0.01  -0.01     0.00  -0.01  -0.00
  84   1     0.01   0.01  -0.01    -0.01  -0.02   0.01    -0.08  -0.13   0.09
  85   1     0.04  -0.01  -0.02    -0.07   0.02   0.04    -0.55   0.14   0.34
  86   1     0.00  -0.00  -0.00    -0.00   0.01   0.00     0.00  -0.00  -0.00
  87   1     0.01   0.00   0.00    -0.01  -0.00  -0.00    -0.00  -0.00  -0.00
  88   1     0.00  -0.00  -0.01    -0.00   0.00   0.01     0.00  -0.00   0.00
  89   1     0.29   0.43  -0.30    -0.33  -0.49   0.34     0.02   0.03  -0.02
  90   1     0.16  -0.04  -0.10    -0.18   0.04   0.11     0.00  -0.00  -0.00
  91   1    -0.01   0.00  -0.01    -0.00   0.00  -0.00    -0.01   0.00  -0.01
  92   1    -0.01   0.03  -0.02    -0.00   0.01  -0.00    -0.00   0.02  -0.01
  93   1    -0.00  -0.00  -0.00    -0.00  -0.00  -0.00    -0.00  -0.00  -0.00
  94   1    -0.00   0.00  -0.00     0.00  -0.00  -0.00     0.00   0.00   0.00
  95   1    -0.00   0.00   0.00    -0.00   0.00   0.00    -0.00   0.00   0.00
  96   1    -0.04   0.00  -0.02     0.02  -0.00   0.01    -0.12   0.01  -0.08
  97   1    -0.00   0.00  -0.00    -0.00   0.00  -0.00    -0.01   0.04  -0.02
  98   1     0.00   0.00   0.00    -0.00  -0.00  -0.00     0.00   0.00   0.00
  99   1    -0.00   0.00   0.00     0.00  -0.00  -0.00    -0.00   0.00   0.00
 100   1    -0.00   0.00  -0.00     0.00  -0.00   0.00     0.00  -0.00  -0.00
 101   1    -0.00   0.00   0.00    -0.00   0.00   0.00    -0.00   0.00   0.00
 102   1     0.00   0.00   0.00    -0.00  -0.00   0.00     0.00   0.00   0.00
 103   1    -0.00   0.00  -0.00     0.00  -0.00   0.00    -0.01   0.04  -0.02
 104   1    -0.04   0.00  -0.02    -0.01   0.00  -0.01    -0.12   0.01  -0.08
                    304                    305                    306
                        a                      a                      a 
 Frequencies --  3111.9906              3112.1035              3112.2743
 Red. masses --     1.8599                 1.8604                 1.8616
 Frc consts  --     0.0000                 0.0000                 0.0000
 IR Inten    --     1.4225               210.5118                 0.0753
 Raman Activ --     0.0000                 0.0000                 0.0000
 Depolar     --     0.0000                 0.0000                 0.0000
 Atom AN      X      Y      Z        X      Y      Z        X      Y      Z
   1   6    -0.00   0.00  -0.00    -0.00   0.00  -0.00     0.00  -0.00   0.00
   2   8     0.00   0.00  -0.00     0.00   0.00  -0.00    -0.00  -0.00   0.00
   3   6    -0.00  -0.00  -0.00    -0.00  -0.01  -0.00     0.00   0.01   0.00
   4   6     0.00  -0.01   0.00     0.00  -0.01   0.01    -0.00   0.01  -0.01
   5   6     0.00  -0.00   0.00     0.00  -0.00   0.00    -0.00   0.00  -0.00
   6   6     0.00   0.00   0.00     0.00   0.00   0.00    -0.00  -0.00  -0.00
   7   7     0.00  -0.00  -0.00    -0.00  -0.00  -0.00     0.00   0.00  -0.00
   8   6    -0.00   0.00   0.00    -0.00   0.00   0.00    -0.00   0.00   0.00
   9   6    -0.01   0.00   0.00    -0.00   0.00   0.00    -0.00   0.00   0.00
  10   6    -0.01  -0.02   0.01    -0.01  -0.01   0.01    -0.00  -0.00   0.00
  11   6     0.00  -0.01  -0.00     0.00  -0.00  -0.00     0.00  -0.00  -0.00
  12   8    -0.00   0.00  -0.00    -0.00   0.00  -0.00    -0.00   0.00  -0.00
  13   6     0.00   0.00  -0.00    -0.00  -0.00   0.00     0.00  -0.00  -0.00
  14   6     0.15  -0.04  -0.09     0.04  -0.01  -0.02     0.06  -0.01  -0.04
  15   6     0.02   0.04  -0.03     0.01   0.01  -0.01     0.01   0.02  -0.01
  16   6     0.00  -0.00  -0.00    -0.00  -0.00  -0.00     0.00   0.00   0.00
  17   6    -0.00   0.00   0.00     0.00  -0.00  -0.00    -0.00   0.00   0.00
  18   6     0.00   0.00   0.00    -0.00  -0.00  -0.00     0.00   0.00   0.00
  19   6    -0.00   0.00   0.00    -0.00   0.00  -0.00    -0.00   0.00   0.00
  20   6     0.00  -0.00  -0.00    -0.00  -0.00   0.00     0.00  -0.00  -0.00
  21   6     0.00   0.00  -0.00     0.00   0.00  -0.00     0.00   0.00  -0.00
  22   6    -0.00   0.00   0.00    -0.00   0.00  -0.00    -0.00   0.00   0.00
  23   6    -0.00   0.00  -0.00    -0.00   0.00   0.00    -0.00   0.00  -0.00
  24   6     0.00  -0.00  -0.00     0.00  -0.00  -0.00     0.00  -0.00  -0.00
  25   6     0.00  -0.00   0.00     0.00  -0.00   0.00     0.00  -0.00   0.00
  26   6    -0.00   0.00  -0.00     0.00   0.00   0.00    -0.00   0.00   0.00
  27   8     0.00  -0.00  -0.00    -0.00  -0.00   0.00     0.00  -0.00  -0.00
  28   6     0.00  -0.00  -0.00    -0.00  -0.00   0.00     0.00  -0.00   0.00
  29   6     0.00  -0.00  -0.00    -0.00   0.00  -0.00     0.00  -0.00  -0.00
  30   6    -0.00  -0.00   0.00     0.00   0.00  -0.00    -0.00  -0.00   0.00
  31   6    -0.00   0.00  -0.00    -0.00  -0.00   0.00    -0.00   0.00   0.00
  32   6     0.00  -0.00  -0.00    -0.00   0.00  -0.00     0.00  -0.00  -0.00
  33   6    -0.00  -0.00  -0.00    -0.00  -0.00  -0.00    -0.00  -0.00  -0.00
  34   6     0.00  -0.00  -0.00     0.00  -0.00  -0.00     0.00  -0.00  -0.00
  35   6    -0.00   0.00   0.00    -0.00  -0.00  -0.00    -0.00  -0.00  -0.00
  36   7    -0.00   0.00  -0.00    -0.00  -0.00  -0.00    -0.00  -0.00  -0.00
  37   6     0.00  -0.00  -0.00    -0.00   0.00   0.00     0.00  -0.00  -0.00
  38   6    -0.02  -0.04   0.03     0.00   0.01  -0.00    -0.01  -0.02   0.01
  39   6    -0.14   0.04   0.08     0.03  -0.01  -0.02    -0.06   0.02   0.04
  40   6    -0.00   0.01   0.00     0.00  -0.00  -0.00    -0.00   0.00   0.00
  41   8     0.00  -0.00   0.00     0.00   0.00  -0.00     0.00  -0.00   0.00
  42   6    -0.00  -0.00   0.00    -0.00  -0.00   0.00    -0.00   0.00   0.00
  43   6     0.01   0.02  -0.01    -0.01  -0.01   0.01     0.00   0.00  -0.00
  44   6     0.01  -0.00  -0.00    -0.00   0.00   0.00     0.00  -0.00  -0.00
  45   6    -0.00  -0.00  -0.00     0.00   0.00   0.00     0.00   0.00   0.00
  46   6    -0.00   0.00  -0.00     0.00  -0.00   0.00     0.00  -0.00   0.00
  47   6    -0.00   0.01  -0.00     0.00  -0.01   0.01     0.00  -0.01   0.01
  48   6     0.00   0.00   0.00    -0.00  -0.01  -0.00    -0.00  -0.01  -0.00
  49   8    -0.00  -0.00   0.00     0.00   0.00  -0.00     0.00   0.00  -0.00
  50   6     0.00  -0.00   0.00    -0.00   0.00  -0.00    -0.00   0.00  -0.00
  51   6     0.07  -0.00   0.04    -0.16   0.01  -0.10    -0.14   0.01  -0.09
  52   6     0.01  -0.02   0.01    -0.01   0.05  -0.03    -0.01   0.04  -0.03
  53   6    -0.00  -0.00  -0.00     0.00   0.00   0.00     0.00   0.00   0.00
  54   6     0.00  -0.00  -0.00    -0.00   0.00   0.00     0.00  -0.00  -0.00
  55   6    -0.00   0.00  -0.00     0.00  -0.00   0.00    -0.00   0.00  -0.00
  56   6    -0.00   0.00   0.00    -0.00   0.00  -0.00    -0.00   0.00   0.00
  57   6     0.00  -0.00  -0.00     0.00  -0.00   0.00     0.00  -0.00  -0.00
  58   8    -0.00   0.00   0.00    -0.00   0.00   0.00    -0.00   0.00   0.00
  59   6    -0.00   0.00   0.00    -0.00   0.00   0.00     0.00   0.00   0.00
  60   6     0.00   0.00   0.00     0.00   0.00   0.00    -0.00  -0.00  -0.00
  61   6    -0.00   0.02  -0.01    -0.01   0.05  -0.03     0.01  -0.05   0.03
  62   6    -0.06   0.00  -0.03    -0.15   0.01  -0.09     0.15  -0.01   0.09
  63   1    -0.00  -0.00   0.00    -0.00  -0.00   0.00     0.00   0.00  -0.00
  64   1     0.00  -0.00  -0.00     0.00  -0.00  -0.00    -0.00   0.00   0.00
  65   1    -0.00  -0.00  -0.00    -0.00  -0.00  -0.00    -0.00  -0.00  -0.00
  66   1    -0.01   0.02  -0.01    -0.01   0.03  -0.02     0.01  -0.04   0.02
  67   1    -0.01   0.00  -0.00    -0.01   0.00  -0.00     0.01  -0.00   0.00
  68   1     0.02  -0.00  -0.01     0.02  -0.00  -0.01     0.00  -0.00  -0.00
  69   1     0.04   0.06  -0.04     0.03   0.04  -0.03     0.01   0.01  -0.01
  70   1    -0.00  -0.00  -0.00     0.00  -0.00   0.00    -0.00  -0.00  -0.00
  71   1     0.00  -0.00   0.00     0.00  -0.00  -0.00     0.00  -0.00   0.00
  72   1     0.00  -0.00  -0.00    -0.00   0.00  -0.00    -0.00   0.00   0.00
  73   1    -0.51   0.12   0.32    -0.13   0.03   0.08    -0.21   0.05   0.13
  74   1    -0.08  -0.12   0.08    -0.02  -0.03   0.02    -0.03  -0.06   0.04
  75   1     0.00  -0.00  -0.00    -0.00   0.00   0.00     0.00  -0.00  -0.00
  76   1    -0.00  -0.00  -0.00     0.00   0.00   0.00    -0.00  -0.00  -0.00
  77   1    -0.00  -0.00   0.00    -0.00  -0.00   0.00    -0.00  -0.00   0.00
  78   1     0.00  -0.00  -0.00     0.00  -0.00  -0.00     0.00  -0.00  -0.00
  79   1    -0.00   0.00  -0.00    -0.00   0.00  -0.00    -0.00   0.00  -0.00
  80   1    -0.00   0.00   0.00     0.00  -0.00  -0.00    -0.00   0.00   0.00
  81   1     0.00   0.00  -0.00    -0.00  -0.00   0.00     0.00   0.00  -0.00
  82   1     0.00   0.00   0.00     0.00   0.00   0.00     0.00   0.00   0.00
  83   1    -0.00   0.00   0.00    -0.00   0.00   0.00    -0.00   0.00   0.00
  84   1     0.07   0.11  -0.08    -0.01  -0.02   0.01     0.03   0.05  -0.04
  85   1     0.49  -0.12  -0.30    -0.10   0.03   0.06     0.21  -0.05  -0.12
  86   1    -0.00   0.00   0.00     0.00   0.00  -0.00     0.00  -0.00  -0.00
  87   1     0.00   0.00   0.00     0.00  -0.00   0.00     0.00   0.00   0.00
  88   1    -0.00   0.00  -0.00     0.00  -0.00  -0.00    -0.00   0.00  -0.00
  89   1    -0.04  -0.06   0.04     0.02   0.04  -0.02    -0.01  -0.01   0.01
  90   1    -0.02   0.00   0.01     0.01  -0.00  -0.01    -0.00   0.00   0.00
  91   1     0.01  -0.00   0.00    -0.01   0.00  -0.00    -0.01   0.00  -0.00
  92   1     0.01  -0.02   0.01    -0.01   0.03  -0.02    -0.01   0.04  -0.02
  93   1     0.00   0.00  -0.00    -0.00  -0.00   0.00    -0.00  -0.00   0.00
  94   1     0.00   0.00   0.00    -0.00  -0.00  -0.00     0.00   0.00   0.00
  95   1    -0.00   0.00   0.00     0.00  -0.00  -0.00     0.00  -0.00  -0.00
  96   1    -0.23   0.01  -0.14     0.55  -0.02   0.34     0.49  -0.02   0.30
  97   1    -0.02   0.06  -0.04     0.04  -0.15   0.09     0.04  -0.14   0.08
  98   1     0.00   0.00   0.00    -0.00  -0.00  -0.00    -0.00  -0.00  -0.00
  99   1    -0.00   0.00   0.00     0.00  -0.00  -0.00    -0.00   0.00   0.00
 100   1     0.00  -0.00   0.00    -0.00   0.00  -0.00     0.00  -0.00   0.00
 101   1     0.00  -0.00  -0.00     0.00  -0.00  -0.00     0.00  -0.00  -0.00
 102   1    -0.00  -0.00  -0.00    -0.00  -0.00  -0.00     0.00   0.00   0.00
 103   1     0.01  -0.05   0.03     0.04  -0.14   0.08    -0.04   0.15  -0.09
 104   1     0.20  -0.01   0.12     0.53  -0.03   0.32    -0.53   0.03  -0.33
