$hessian                                                                        
        0.5156651979   0.0266008861   0.0066211629  -0.0821951181   0.0408876843
       -0.0360994310   0.0063512889  -0.0211396033   0.0144550283  -0.0004780668
       -0.0015979986   0.0013803760   0.0007389338  -0.0002392925   0.0000769171
        0.0008066397   0.0000432303   0.0003235945  -0.0004571431  -0.0003255769
        0.0000887073  -0.0000041563   0.0000485215  -0.0000431423  -0.0000132120
       -0.0000043641   0.0000034268   0.0000087312  -0.0000156898   0.0000023328
       -0.0000115195   0.0000281733   0.0000176606   0.0000010840  -0.0000344231
       -0.0000069254   0.0000015684  -0.0000010760   0.0000064018   0.0000017781
        0.0000214156  -0.0000185878   0.0000263902  -0.0000274381  -0.0000466378
        0.0001964685  -0.0000563984   0.0000775433  -0.0000646768  -0.0000165782
       -0.0000233415   0.0000295967  -0.0000005532  -0.0000122414  -0.0000350278
        0.0000136606   0.0000123724   0.0000130618  -0.0000173839   0.0000030479
       -0.0000345971  -0.0000052180   0.0000043045  -0.0000075662  -0.0000238099
       -0.0000010064   0.0000050327   0.0000072678   0.0000010579   0.0000124656
        0.0000066662  -0.0000014026  -0.0000220107   0.0000084487  -0.0000012762
        0.0000516840  -0.0001054488  -0.0000005335  -0.0000423040   0.0001032124
        0.0000004754  -0.0000317414   0.0000277526   0.0000003232   0.0000164446
        0.0000124865   0.0000003985  -0.0000020269   0.0000097786   0.0000016421
        0.0000065267  -0.0000069594   0.0000001532  -0.0000084202   0.0000005894
        0.0000002426  -0.0000035247  -0.0000051762  -0.0000057975  -0.0000020586
       -0.0000063438  -0.0000058413  -0.0000119202   0.0000015175   0.0000003752
        0.0000007832   0.0000028432   0.0000003336   0.0000047030  -0.0000150909
       -0.0000003034   0.0000079448  -0.0000000555  -0.0000053746   0.0000089504
        0.0000050261  -0.0000095779   0.0000138210  -0.0000246647  -0.0000032087
       -0.0000091591   0.0000290121  -0.0000009512  -0.0000090013  -0.0000124274
        0.0000067916  -0.0000088043   0.0000022623   0.0000098457  -0.0000034779
       -0.0000109053   0.0000058747   0.0000053544   0.0000087096  -0.0000003592
       -0.0000024924   0.0000065692  -0.0000057409  -0.0000054661   0.0000012391
       -0.0000075232   0.0000137166   0.0000121981   0.0000018428  -0.0000108341
       -0.0000157260   0.0000001823  -0.0000018221   0.0000060322  -0.0000043920
        0.0000036629  -0.0000059222   0.0000088730   0.0000073607  -0.0000025497
        0.0000054553  -0.0000010152   0.0000122176   0.0000052275  -0.0000008712
        0.0000068930   0.0000046501   0.0000212705   0.0000010303  -0.0000012289
       -0.0000018372  -0.0000376343  -0.0000010549  -0.0000494418   0.0001276658
        0.0000022483   0.0000551881  -0.0001147209  -0.0000005627   0.0000095690
        0.0000031897  -0.0000183679  -0.0000647402   0.0000132893  -0.0000333860
       -0.0003219603  -0.0015366159  -0.0003197174  -0.0020513790  -0.0019394731
       -0.0012820937  -0.0446035157  -0.0029289076  -0.0098446017  -0.1996728875
        0.0682043199   0.0695893900  -0.1927227060  -0.1044397719  -0.0451671128
       -0.0010335020  -0.0014904733   0.0001341823   0.0000696643   0.0000339509
       -0.0000358847   0.0000001169  -0.0000001790   0.0000021824   0.0000025987
        0.0000044993   0.0000020779   0.0000001666   0.0000025027  -0.0000002782
        0.0000008028   0.0000014379  -0.0000026681  -0.0000003526   0.0000065040
        0.0000010275  -0.0000061152   0.0000076834   0.0000084967  -0.0000019036
       -0.0000041068   0.0000245208   0.0000051905   0.0000094104   0.0000167784
        0.0000043086   0.0000055513   0.0000093153   0.0000144865   0.0000172491
       -0.0000008928  -0.0000007568   0.0000092128  -0.0000004926   0.0000070337
        0.0000016632   0.0000011725   0.0000011177  -0.0000072343   0.0000001536
       -0.0000017800  -0.0000046450   0.0000003388   0.0000013065   0.0000021144
        0.0000030678  -0.0000026304   0.0000050821   0.0000042513  -0.0000032033
       -0.0000027017   0.0000022003  -0.0000048555   0.0000002047   0.0000021879
       -0.0000020301   0.0000035190  -0.0000001551   0.0000033241   0.0000005292
        0.0000001726   0.0000007674  -0.0000003133  -0.0000037297   0.0000023090
        0.0000027595  -0.0000029794   0.0000018052  -0.0000002904  -0.0000019027
        0.0000017387  -0.0000018775   0.0000019950   0.0000016397  -0.0000037252
        0.0000022961   0.0000005935  -0.0000006862   0.0000032996  -0.0000021517
       -0.0000035261  -0.0000000163   0.0000025296  -0.0000020553  -0.0000001154
       -0.0000040795   0.0000000055  -0.0000024021  -0.0000023181   0.0000020616
       -0.0000024559  -0.0000029027  -0.0000049466  -0.0000036281   0.0000014310
       -0.0000038344  -0.0000023463  -0.0000065068   0.0000048760   0.0000000118
       -0.0000184235   0.0000052757   0.0000101406   0.0000190737  -0.0000189509
        0.0000193926  -0.0001965153  -0.0001568923   0.0001011911   0.0000293066
        0.0000303544  -0.0000370427
        0.0266008861   0.4409605111   0.0329421929   0.0275424314  -0.1654125656
        0.0626139730  -0.0074743083  -0.0383421953   0.0092017746   0.0015232881
        0.0019646430  -0.0006168209  -0.0002311579  -0.0006748919   0.0004562490
       -0.0008297630  -0.0005918475  -0.0001244903   0.0008592950   0.0009212046
        0.0000006731   0.0001999131  -0.0005334023   0.0001535679   0.0000811764
        0.0001249738  -0.0000277079   0.0000146433  -0.0000414349  -0.0000170343
        0.0000525714  -0.0001093613  -0.0000247809  -0.0000609924   0.0001262279
        0.0000173913  -0.0000043922  -0.0000202676   0.0000055810   0.0000038097
       -0.0000570067   0.0000076732  -0.0001443281   0.0000588960   0.0000287830
       -0.0005276644   0.0001304365  -0.0002145045   0.0001635000   0.0000859241
        0.0000320807  -0.0001213665   0.0000312937   0.0000433878   0.0001762574
       -0.0000553070  -0.0000062846  -0.0001000350   0.0001002526  -0.0000038031
        0.0000722340  -0.0000692046  -0.0000247330  -0.0000558162   0.0000812643
        0.0000284924   0.0000708718  -0.0002165681  -0.0000142285  -0.0001231493
        0.0002060786   0.0000076904   0.0000580415  -0.0000859125   0.0000072203
        0.0000381590  -0.0001256831   0.0000112890  -0.0000577764   0.0000831082
        0.0000004595   0.0000321007   0.0000956048   0.0000071946  -0.0000135005
       -0.0000814422  -0.0000128186   0.0000216719  -0.0000498931  -0.0000099501
       -0.0000221350   0.0000076117   0.0000018009   0.0000581330   0.0000076136
       -0.0000016492  -0.0000266838   0.0000708378   0.0000471523   0.0000379191
        0.0000812990   0.0000239129  -0.0000782189   0.0000133653   0.0000001072
        0.0000405270  -0.0000042206  -0.0000008960   0.0000124630  -0.0000317525
        0.0000077691  -0.0001093005   0.0000206596   0.0000231877  -0.0000525202
       -0.0001178740   0.0000674211  -0.0001734454   0.0003303725   0.0000356488
        0.0001375530  -0.0003363443  -0.0000129428   0.0000378899   0.0000843658
       -0.0000403011   0.0001158362  -0.0000442961  -0.0000734646   0.0000625446
        0.0000936630  -0.0000178311   0.0000173573   0.0000233849  -0.0000055745
        0.0000340076  -0.0000961631   0.0000180896   0.0001117036   0.0000067765
        0.0000710325  -0.0002439774  -0.0002464467  -0.0000376423   0.0002132218
        0.0002620146   0.0000182451   0.0000065080  -0.0000784098   0.0000367181
       -0.0000104334   0.0001182815  -0.0000643531  -0.0001036618   0.0000142188
       -0.0000236950   0.0000183382  -0.0000964022  -0.0000217764  -0.0000459561
       -0.0000642471  -0.0000536380  -0.0000205424   0.0000820703   0.0000175675
        0.0000529900  -0.0000484062  -0.0000007035  -0.0000533036   0.0001601759
       -0.0000257261   0.0000197321  -0.0001302379   0.0000057165  -0.0001109266
       -0.0000233863   0.0000167649   0.0001284809  -0.0001137337   0.0000165027
        0.0004957729  -0.0016510026   0.0015342875  -0.0036505752  -0.0024090570
       -0.0005784666  -0.0031660775  -0.0454202751  -0.0358672771   0.0689804666
       -0.0714728641  -0.0336279035  -0.1097251668  -0.1160447101  -0.0359192636
       -0.0002454850  -0.0010373867   0.0001681329   0.0000932675   0.0000347223
        0.0001265295   0.0000042370  -0.0000059635  -0.0000064703   0.0000004095
       -0.0000068052  -0.0000087623   0.0000040706  -0.0000032149  -0.0000009852
        0.0000010227  -0.0000035834  -0.0000048737  -0.0000035582  -0.0000008201
       -0.0000003845  -0.0000046763  -0.0000092463   0.0000031460  -0.0000048683
       -0.0000046156  -0.0000081967  -0.0000184187   0.0000035672   0.0000072028
       -0.0000003456  -0.0000065843  -0.0000105776  -0.0000485724  -0.0000394060
       -0.0000052474  -0.0000029093  -0.0000125510   0.0000010341  -0.0000020856
        0.0000032469  -0.0000053856  -0.0000026831   0.0000109185  -0.0000001058
        0.0000285823   0.0000142850   0.0000048940  -0.0000165015  -0.0000104120
       -0.0000045590   0.0000109563  -0.0000165322   0.0000005853   0.0000063664
        0.0000112012   0.0000043811   0.0000203190  -0.0000055173  -0.0000044008
        0.0000074609  -0.0000136813  -0.0000005963  -0.0000200581  -0.0000001403
        0.0000024411  -0.0000051807   0.0000012977   0.0000184102  -0.0000118543
       -0.0000187127   0.0000051950  -0.0000090357   0.0000041764  -0.0000085483
       -0.0000102560  -0.0000000669   0.0000077778  -0.0000062081   0.0000215267
       -0.0000045871  -0.0000091115   0.0000025862  -0.0000170942   0.0000089228
        0.0000120577   0.0000010461  -0.0000182345   0.0000066880  -0.0000027098
        0.0000197804   0.0000011538   0.0000055650   0.0000029211  -0.0000113680
       -0.0000035085   0.0000144903   0.0000129888  -0.0000001166  -0.0000133686
        0.0000182263   0.0000058432   0.0000062024  -0.0000031754  -0.0000016630
        0.0000213298  -0.0000087897  -0.0000159728  -0.0000328583   0.0000161761
       -0.0000290823  -0.0002993222  -0.0003753837  -0.0001538552  -0.0002198673
       -0.0000311796  -0.0001018379
        0.0066211629   0.0329421929   0.4766011986  -0.0308715144   0.0699920364
       -0.0931122756   0.0091013396   0.0015172934   0.0003957710   0.0003140566
       -0.0023658829  -0.0007678683   0.0000863339   0.0003326518   0.0005366214
        0.0007632729   0.0005671530   0.0004770046  -0.0003914081  -0.0008655161
       -0.0003229887  -0.0001252071   0.0001661642  -0.0001236026  -0.0000090055
       -0.0000606426   0.0000311577   0.0000308340  -0.0000101751  -0.0000067925
       -0.0000683742   0.0001924456   0.0000276325   0.0000902826  -0.0001639714
       -0.0000504454  -0.0000085233   0.0000039893   0.0000219002   0.0000033057
       -0.0000660828   0.0000024931  -0.0000086170  -0.0000440793   0.0000015666
        0.0000776456  -0.0000108997   0.0001637696  -0.0000277127  -0.0000002212
       -0.0000289066  -0.0000091342   0.0000167538  -0.0000091814  -0.0000163766
        0.0000025434  -0.0000033998  -0.0000131050  -0.0000243137   0.0000017750
       -0.0000310160  -0.0000007259  -0.0000035603  -0.0000317764  -0.0000365890
       -0.0000091759   0.0000350094  -0.0000402014   0.0000037823  -0.0000128467
        0.0000519992  -0.0000055467  -0.0000405739   0.0000109099  -0.0000011659
        0.0001060789  -0.0002272079   0.0000045330  -0.0000977239   0.0002077746
       -0.0000075106  -0.0000485741   0.0000752538  -0.0000006248   0.0000298332
        0.0000294388   0.0000004750   0.0000078922   0.0000301847   0.0000035628
        0.0000199414  -0.0000114079   0.0000008722  -0.0000232046   0.0000036245
       -0.0000002483   0.0000031663  -0.0000209682  -0.0000181554  -0.0000106283
       -0.0000313468  -0.0000147022   0.0000103623  -0.0000020086   0.0000016860
       -0.0000118692   0.0000008873  -0.0000011082   0.0000008199  -0.0000070873
       -0.0000021624   0.0000412844  -0.0000054029  -0.0000135576   0.0000268686
        0.0000401242  -0.0000322319   0.0000660291  -0.0001216407  -0.0000123774
       -0.0000509004   0.0001244859   0.0000022156  -0.0000162047  -0.0000353410
        0.0000190011  -0.0000433174   0.0000163066   0.0000316221  -0.0000222391
       -0.0000406031   0.0000119647   0.0000035356   0.0000070729   0.0000018722
       -0.0000114912   0.0000364479  -0.0000122318  -0.0000408960  -0.0000008255
       -0.0000316925   0.0000924905   0.0000920421   0.0000149098  -0.0000786013
       -0.0001008619  -0.0000064469  -0.0000039375   0.0000337617  -0.0000159079
        0.0000094573  -0.0000436289   0.0000309560   0.0000395399  -0.0000080704
        0.0000133127  -0.0000057474   0.0000447353   0.0000141240   0.0000123128
        0.0000270322   0.0000195245   0.0000429297   0.0000018467  -0.0000047382
        0.0000072636  -0.0000974752  -0.0000034187  -0.0001248506   0.0003316122
        0.0000144879   0.0001224386  -0.0003047695  -0.0000127641  -0.0000073952
        0.0000071501  -0.0000169339  -0.0000101791   0.0000561598   0.0000410833
       -0.0011823804   0.0003967009   0.0007048756  -0.0005715160   0.0004921459
        0.0009715293  -0.0105931236  -0.0364064246  -0.2546400356   0.0700711759
       -0.0333338066  -0.0737047813  -0.0430687662  -0.0328490492  -0.0569217293
       -0.0003863264  -0.0005684585  -0.0002246062  -0.0000547156   0.0000501205
        0.0000378300   0.0000218879   0.0000117386  -0.0000166261   0.0000085835
        0.0000090202  -0.0000031982  -0.0000014013   0.0000057066   0.0000012186
       -0.0000006834   0.0000034644  -0.0000036660   0.0000022628   0.0000068767
        0.0000006650   0.0000106704  -0.0000045231   0.0000070348  -0.0000000287
        0.0000012521   0.0000241689   0.0000069289  -0.0000153109   0.0000062610
        0.0000050755  -0.0000029105   0.0000067023   0.0000188018   0.0000148978
        0.0000079095   0.0000049006   0.0000177622   0.0000027988   0.0000154739
       -0.0000026040   0.0000042477   0.0000047394  -0.0000178606   0.0000014626
       -0.0000062859  -0.0000122997   0.0000006524   0.0000042709   0.0000050074
        0.0000052669  -0.0000052308   0.0000110386   0.0000051359  -0.0000052719
       -0.0000059588   0.0000017070  -0.0000113587   0.0000020969   0.0000045084
       -0.0000043795   0.0000090652   0.0000003796   0.0000093815   0.0000012060
       -0.0000002492   0.0000023363  -0.0000011628  -0.0000115636   0.0000067752
        0.0000091678  -0.0000044496   0.0000051325  -0.0000007152   0.0000001784
        0.0000047538  -0.0000019914   0.0000001981   0.0000039415  -0.0000105825
        0.0000044313   0.0000037162  -0.0000011549   0.0000099570  -0.0000056387
       -0.0000082219  -0.0000004629   0.0000093321  -0.0000046866   0.0000003712
       -0.0000114226   0.0000001009  -0.0000048908  -0.0000035714   0.0000067039
       -0.0000018952  -0.0000083975  -0.0000110882  -0.0000053295   0.0000055582
       -0.0000112444  -0.0000055915  -0.0000146294   0.0000098093   0.0000012366
        0.0000115382  -0.0000070289  -0.0000017013   0.0000006860  -0.0000219524
       -0.0000284769   0.0001312101  -0.0000195627  -0.0001265514   0.0000734583
        0.0000405890   0.0000559245
       -0.0821951181   0.0275424314  -0.0308715144   0.2838800380   0.0854612587
        0.0935225283  -0.1684356938  -0.0856711999  -0.0425426856  -0.0350087932
       -0.0326960093  -0.0097070920  -0.0033170972   0.0008027544  -0.0062482719
        0.0015536979   0.0022177108  -0.0001080373  -0.0022313500  -0.0033758399
        0.0002957372  -0.0007151648   0.0018253493  -0.0005687356  -0.0001875278
       -0.0004340483   0.0000478009   0.0000489129   0.0000274734  -0.0001491101
       -0.0002506602   0.0003975809   0.0000386446   0.0003147628  -0.0003693897
       -0.0000414882   0.0000449275   0.0001076950  -0.0001273885  -0.0001381401
       -0.0000321441   0.0002864275   0.0004380831  -0.0002303092   0.0000610967
        0.0012875251  -0.0003282357   0.0007637906  -0.0004142824  -0.0002314762
        0.0000305179   0.0002504863  -0.0000460814  -0.0000306124  -0.0004281736
        0.0001408780  -0.0000065069   0.0003329144  -0.0002568224  -0.0000313420
       -0.0001583906   0.0002544530   0.0000661326   0.0001623594  -0.0001834802
       -0.0000519179  -0.0001226929   0.0005594539   0.0000255073   0.0003796318
       -0.0005181829   0.0000085694  -0.0001960469   0.0001746991  -0.0000285352
        0.0000866639  -0.0002003329  -0.0000496145  -0.0001422339   0.0003059952
        0.0000233098  -0.0002287197  -0.0002317055  -0.0000339579   0.0001042982
        0.0002582760   0.0000336899  -0.0000375761   0.0001469419   0.0000158941
        0.0000447750  -0.0000497882  -0.0000114707  -0.0001118649  -0.0000206846
        0.0000054841   0.0001092796  -0.0001875823  -0.0000741669  -0.0001026110
       -0.0002683230  -0.0000257940   0.0004443028  -0.0000736927  -0.0000135532
       -0.0001393935   0.0000011713   0.0000020958  -0.0001225506   0.0003344719
       -0.0000258221   0.0003189212  -0.0000532252  -0.0000267164   0.0000578462
        0.0004104116  -0.0001037389   0.0005312556  -0.0010984720  -0.0001266433
       -0.0004097587   0.0010759892   0.0000571467  -0.0000781984  -0.0002097871
        0.0000812033  -0.0003869835   0.0000923857   0.0001370549  -0.0002166993
       -0.0001750142  -0.0000154303  -0.0001767057  -0.0002391971   0.0000312057
       -0.0001172227   0.0002740201   0.0000218618  -0.0003936776  -0.0000037207
       -0.0001377164   0.0007884944   0.0008350134   0.0001342395  -0.0006899373
       -0.0008229749  -0.0000649803  -0.0000083159   0.0002236507  -0.0000774915
       -0.0000058860  -0.0004065748   0.0001022551   0.0002950899  -0.0000400838
        0.0000297693  -0.0000013775   0.0001585216   0.0000237670   0.0001101081
        0.0001074017   0.0000980829   0.0000765279  -0.0002005258  -0.0000407253
       -0.0001367656   0.0000106783   0.0000267075   0.0001875948  -0.0006639662
        0.0000375094  -0.0000467367   0.0005344716  -0.0000133916   0.0002884283
       -0.0000600068  -0.0000574076  -0.0002373751   0.0004048930  -0.0000401611
        0.0005566361   0.0015767031  -0.0026113605   0.0057892994  -0.0080110158
        0.0043843326   0.0002903007   0.0051705365  -0.0055423023  -0.0065347133
        0.0296282602  -0.0148381428   0.0047421284  -0.0230595162   0.0112457615
        0.0012815500   0.0002048157   0.0015475400  -0.0012118146  -0.0013922459
       -0.0001553435  -0.0000831996   0.0000146795   0.0000312475  -0.0000879290
       -0.0000574940   0.0000669214  -0.0000789410  -0.0000202345  -0.0000146862
       -0.0000165177   0.0000081566   0.0000990114   0.0000345332  -0.0001218591
       -0.0000089140   0.0001175895  -0.0000308010  -0.0001217851  -0.0000483108
        0.0001071955  -0.0000493491   0.0000515213  -0.0001397424  -0.0001676714
       -0.0000584343  -0.0000711598  -0.0000738981   0.0000483797   0.0000401876
       -0.0000029638  -0.0000146076  -0.0000130456  -0.0000091700  -0.0000443484
       -0.0000651839   0.0000013937  -0.0000082990   0.0000343610  -0.0000026856
       -0.0000689938   0.0000437934  -0.0000235130   0.0000261512   0.0000043280
       -0.0000220851  -0.0000188537  -0.0000316877  -0.0000866853   0.0000268483
       -0.0000078176  -0.0000640049  -0.0000089388   0.0000241403  -0.0000261460
       -0.0000053729  -0.0000162251   0.0000036600   0.0000183846  -0.0000092076
       -0.0000205146   0.0000514004   0.0000008042  -0.0000072277  -0.0000101533
        0.0000398996   0.0000252222  -0.0000146289  -0.0000268698   0.0000715678
       -0.0000009711   0.0000352153  -0.0000718427  -0.0000166599  -0.0000325927
       -0.0000223913   0.0000258677  -0.0000049458   0.0000092089   0.0000001694
        0.0000160361  -0.0000015736   0.0000195910   0.0000055944   0.0000227076
       -0.0000184779  -0.0000160623   0.0000247758   0.0000260984   0.0000055135
        0.0000642853  -0.0000096403   0.0000441493   0.0000865998   0.0000210945
       -0.0000105212   0.0000241527   0.0000435169  -0.0000556043   0.0000038753
       -0.0000660015   0.0000896690   0.0000632778   0.0001351830   0.0000436673
        0.0000465321   0.0003733115   0.0005646488  -0.0000227323   0.0001990484
        0.0001843235   0.0015889055
        0.0408876843  -0.1654125656   0.0699920364   0.0854612587   0.4488172984
       -0.1046343216  -0.1073278838  -0.1601423518  -0.0116335508  -0.0126752925
       -0.0040901517  -0.0034341689  -0.0012095004  -0.0012917378   0.0020301731
        0.0013275892   0.0036610253  -0.0007934352  -0.0027221705  -0.0045782930
       -0.0004386667  -0.0009973275   0.0023290995  -0.0007934879  -0.0002722329
       -0.0006066026   0.0000498444  -0.0000360889   0.0001174625  -0.0001001373
       -0.0001795948   0.0003479419   0.0000505958   0.0002423700  -0.0003350727
       -0.0000394754   0.0000621657   0.0001185171  -0.0001224772  -0.0001476738
        0.0001166741   0.0002421461   0.0006233078  -0.0002445577  -0.0000095051
        0.0021552917  -0.0004035492   0.0008641662  -0.0006179312  -0.0003738162
        0.0000040779   0.0003892126  -0.0000937510  -0.0000752407  -0.0006510302
        0.0001697223  -0.0000174005   0.0004589467  -0.0003625904  -0.0000280715
       -0.0002357888   0.0003145950   0.0000882910   0.0001152443  -0.0002779828
       -0.0000669825  -0.0000382475   0.0008207257   0.0000287092   0.0003579012
       -0.0007887100   0.0000126443  -0.0001535361   0.0002883691  -0.0000407648
       -0.0003150912   0.0007631082  -0.0000542363   0.0002777159  -0.0005962866
        0.0000153798  -0.0000876982  -0.0003004027  -0.0000415600   0.0000125345
        0.0002975370   0.0000417013  -0.0000577979   0.0001531265   0.0000236861
        0.0000598528  -0.0000648416  -0.0000081198  -0.0001581741  -0.0000286260
        0.0000072641   0.0001387885  -0.0002345966  -0.0001070651  -0.0001436308
       -0.0003331192  -0.0000420774   0.0005557454  -0.0000924541  -0.0000126749
       -0.0001647737   0.0000066951   0.0000029588  -0.0001533426   0.0004137225
       -0.0000307320   0.0004131132  -0.0000812418  -0.0000421230   0.0000906203
        0.0005107986  -0.0001549094   0.0006656176  -0.0013607365  -0.0001526548
       -0.0005253256   0.0013377478   0.0000734530  -0.0001015921  -0.0002623685
        0.0001044613  -0.0004762907   0.0001447953   0.0001920041  -0.0002649913
       -0.0002680692  -0.0000019481  -0.0002305494  -0.0003095370   0.0000332762
       -0.0001386778   0.0003666374   0.0000087958  -0.0004819174  -0.0000246798
       -0.0001876739   0.0009712668   0.0010202707   0.0001610237  -0.0008570488
       -0.0010169715  -0.0000837843  -0.0000116021   0.0002696836  -0.0000990352
       -0.0000083797  -0.0004998793   0.0001497068   0.0003886419  -0.0000440566
        0.0000469354  -0.0000328413   0.0002443336   0.0000369390   0.0001541800
        0.0001514286   0.0001318132   0.0001843807  -0.0002097172  -0.0000549366
       -0.0003315015   0.0000225233   0.0000356857  -0.0000682562  -0.0001308419
        0.0000534534   0.0002478198  -0.0000290053  -0.0000220478   0.0004788316
       -0.0000166656  -0.0000435742  -0.0005263899   0.0005819723  -0.0000433147
        0.0021176134  -0.0018397327   0.0040102969  -0.0254774227  -0.0471634542
        0.0054900566   0.0036926478  -0.0086218991   0.0188353115   0.0165924783
       -0.0308478104   0.0106756890  -0.0008495238  -0.0294768426   0.0115384261
        0.0000620034  -0.0005642022  -0.0002404455   0.0000237148  -0.0002138360
       -0.0001655995  -0.0000914834   0.0000113860   0.0000673631  -0.0000892687
       -0.0000563196   0.0000898037  -0.0000858443  -0.0000191268  -0.0000144364
       -0.0000167455   0.0000115678   0.0000956571   0.0000385632  -0.0001205259
       -0.0000066980   0.0001136397  -0.0000105031  -0.0001079134  -0.0000379085
        0.0001029262   0.0000163683   0.0000721933  -0.0001313787  -0.0001582686
       -0.0000662849  -0.0000592066  -0.0000618552   0.0000897902   0.0000796386
       -0.0000001302   0.0000003148   0.0000092971  -0.0000089297  -0.0000692872
       -0.0000668939   0.0000061095   0.0000085539   0.0000436096  -0.0000014006
       -0.0000910513   0.0000372362  -0.0000277185   0.0000333907   0.0000094119
       -0.0000175316  -0.0000258506  -0.0000176171  -0.0000867723   0.0000207352
       -0.0000141192  -0.0000691020  -0.0000230965   0.0000254007  -0.0000246774
       -0.0000122406  -0.0000059611   0.0000038559   0.0000341456  -0.0000099125
       -0.0000197856   0.0000553391  -0.0000012910  -0.0000224264  -0.0000010943
        0.0000521680   0.0000217153  -0.0000081018  -0.0000291846   0.0000784949
        0.0000066220   0.0000319143  -0.0000786973  -0.0000104768  -0.0000464994
       -0.0000205999   0.0000317767  -0.0000066662   0.0000219288  -0.0000054724
        0.0000067802  -0.0000022031   0.0000332033   0.0000003450   0.0000235414
       -0.0000315208  -0.0000160738   0.0000223093   0.0000213563   0.0000128698
        0.0000676304  -0.0000178234   0.0000312219   0.0000878747   0.0000312397
       -0.0000250401   0.0000217468   0.0000155508  -0.0000603285   0.0000047437
       -0.0000969482   0.0000904554   0.0000930487   0.0001687239   0.0000062597
        0.0001111591  -0.0007132200  -0.0008725339   0.0002119044   0.0002371592
        0.0012544887  -0.0015309126
       -0.0360994310   0.0626139730  -0.0931122756   0.0935225283  -0.1046343216
        0.1571554896  -0.0343340403   0.0006419543  -0.0545444536  -0.0181412444
       -0.0153357177   0.0008691519  -0.0052224932   0.0033815027   0.0019900453
        0.0000630627  -0.0005407474   0.0002789127   0.0005065561  -0.0002600411
       -0.0005402583  -0.0001633471   0.0001930656  -0.0001273273  -0.0000202321
       -0.0000433704   0.0000003480  -0.0000350167   0.0000337009   0.0000160306
       -0.0000035805  -0.0000255461  -0.0000298768   0.0000194517  -0.0000035356
        0.0000312864   0.0000168024   0.0000203039  -0.0000505686  -0.0000073362
        0.0000482350   0.0000559240   0.0000837390   0.0000389105   0.0000703474
        0.0002766814   0.0000940971  -0.0001116980  -0.0000100639  -0.0000429943
        0.0000692849   0.0000607665  -0.0000335466   0.0000128718  -0.0000931200
        0.0000171139  -0.0000214270   0.0000838314  -0.0000569649  -0.0000074659
       -0.0000156522   0.0000947743   0.0000223057   0.0000640575  -0.0000221988
       -0.0000098738  -0.0000805835   0.0002035861   0.0000070004   0.0001121373
       -0.0002071343   0.0000009600  -0.0000211970   0.0000344516  -0.0000040887
       -0.0000928026   0.0002246899  -0.0000159948   0.0000795864  -0.0001726664
        0.0000127174  -0.0000091414  -0.0001402543  -0.0000062933  -0.0000016901
        0.0000416388   0.0000080188  -0.0000224749   0.0000035060   0.0000003471
       -0.0000157520   0.0000000610  -0.0000018800   0.0000035336  -0.0000109112
        0.0000019924   0.0000061842  -0.0000186499  -0.0000016599  -0.0000055805
       -0.0000271427  -0.0000006072   0.0000303463  -0.0000055236  -0.0000043107
       -0.0000206302   0.0000016600   0.0000013505  -0.0000056619   0.0000221973
       -0.0000036964   0.0000306515  -0.0000056269  -0.0000021306  -0.0000047994
        0.0000407355   0.0000028092   0.0000541700  -0.0001178902  -0.0000160935
       -0.0000412528   0.0001196452   0.0000072544  -0.0000066208  -0.0000203959
        0.0000050199  -0.0000372351  -0.0000040872   0.0000040641  -0.0000255703
       -0.0000011552  -0.0000043748  -0.0000051425  -0.0000117551   0.0000055701
       -0.0000153464   0.0000226651   0.0000066287  -0.0000383193   0.0000076732
       -0.0000038169   0.0000804008   0.0000865242   0.0000149984  -0.0000721617
       -0.0000864609  -0.0000034110  -0.0000000287   0.0000251605  -0.0000075447
       -0.0000029741  -0.0000383483  -0.0000011363   0.0000252598  -0.0000027756
        0.0000024307   0.0000064538  -0.0000039126   0.0000000784   0.0000008452
        0.0000017742   0.0000049500  -0.0000166772  -0.0000539881  -0.0000057395
       -0.0000480681   0.0001055698   0.0000057728   0.0001872510  -0.0005032150
        0.0000001447  -0.0001486235   0.0004425896   0.0000089705   0.0001294009
       -0.0000079837   0.0000289239  -0.0000991848  -0.0000269445  -0.0000070829
       -0.0029375254   0.0035392521   0.0012243189   0.0115677236   0.0155853073
        0.0038761940  -0.0092688212   0.0373700685  -0.0235963136  -0.0053173934
        0.0005483550   0.0053389436   0.0025216453  -0.0013028377   0.0030495714
        0.0015732693  -0.0002762304  -0.0004471455  -0.0005899212  -0.0008015289
       -0.0003246702  -0.0000461407  -0.0000088315   0.0000195688  -0.0000244187
       -0.0000201276   0.0000129744  -0.0000149208  -0.0000087977  -0.0000036814
       -0.0000032361  -0.0000019038   0.0000255314   0.0000046969  -0.0000268761
       -0.0000026535   0.0000149569   0.0000002484  -0.0000268358   0.0000050562
        0.0000235717  -0.0000508137   0.0000030433  -0.0000118985  -0.0000409821
       -0.0000145086  -0.0000034050  -0.0000158088   0.0000022398  -0.0000054986
       -0.0000069410  -0.0000034898  -0.0000179898  -0.0000050227  -0.0000222981
       -0.0000062654  -0.0000029900  -0.0000057040   0.0000204735  -0.0000017996
       -0.0000126653   0.0000168040  -0.0000055121   0.0000053289  -0.0000022697
       -0.0000072516  -0.0000012155  -0.0000117334  -0.0000166865   0.0000073089
        0.0000014218  -0.0000104042   0.0000050627   0.0000044769  -0.0000065959
        0.0000015158  -0.0000080527   0.0000007916  -0.0000016495  -0.0000020246
       -0.0000037418   0.0000069020   0.0000009719   0.0000054691  -0.0000065218
        0.0000028459   0.0000063547  -0.0000037530  -0.0000046242   0.0000103175
       -0.0000009727   0.0000077137  -0.0000108213  -0.0000063501  -0.0000003648
       -0.0000059855   0.0000027304   0.0000001134  -0.0000032250   0.0000031965
        0.0000076738  -0.0000003537  -0.0000019971   0.0000034966   0.0000038976