113
 energy: -182.761090560325 gnorm: 0.000026280649 xtb: 6.7.1 (edcfbbe)
C           -8.76479576383000       -2.02246824548449       -4.13875009641426
C           -8.30115556542357       -0.80111093145808       -3.65402674739923
C           -7.28585201538072       -0.73384741355851       -2.71866134917236
C           -6.74317469671461       -1.92745169018216       -2.26382932919815
C           -7.18944535166833       -3.17052869064397       -2.76924880545506
C           -8.21116052353093       -3.21237531062697       -3.70950060191546
C           -6.39303233354515       -4.18182577863457       -2.13096511976492
C           -6.37089115141806       -5.56901540871970       -2.20314200667186
C           -5.47100869623054       -6.25894521103862       -1.41497454993819
C           -4.61117291373397       -5.58395982633781       -0.55072729107677
C           -4.61433213899828       -4.20474342516900       -0.46225246641764
C           -5.49784832977468       -3.50444986007164       -1.27156104460740
N           -5.71941026872139       -2.14348453256604       -1.36095579238025
C           -5.01534996759689       -1.15760852498317       -0.65573731792380
C           -3.62530673800302       -1.16093142413443       -0.66615927740851
C           -2.91452402799074       -0.19163182840777        0.03691888398391
C           -1.44886468341536       -0.18781783243193        0.02005305789580
C           -0.70462987087876       -1.34761169313646        0.00480495699905
C            0.69710655654253       -1.35107176467046       -0.01241585776275
C            1.44706175330720       -0.19499126474793       -0.02960990418878
C            2.91271264794495       -0.20592144765217       -0.04384466946775
C            3.61571681081636        0.75982545403951       -0.75735737052159
C            5.00554815668704        0.77386757288881       -0.74555522051855
N            5.69704675699088        1.77026613355901       -1.44411215550009
C            5.42631323112473        3.12620159025440       -1.38478743479361
C            4.47714954531596        3.80818731779689       -0.63595077254490
C            4.43760921880016        5.18547741868593       -0.74653232658927
C            5.32269491617406        5.87689543960302       -1.57143424341619
C            6.28397823841451        5.20528050590914       -2.30038114989331
C            6.34354984677664        3.82046926923076       -2.20638296806155
C            7.20115713323875        2.82812745317727       -2.79314968393010
C            8.26384998756216        2.89323290584047       -3.68522321931416
C            8.87274159242865        1.71733053150160       -4.07698102577298
C            8.42221738108121        0.48678709162563       -3.60387043990673
C            7.36687255524996        0.39703438453301       -2.71571486609505
C            6.76907346564988        1.57706145011468       -2.29536242130888
C            5.70546537735322       -0.19966833965395       -0.03986242861617
C            5.00721000204937       -1.17968163222444        0.65696142406218
N            5.70479671668909       -2.16701080754094        1.36661393456124
C            6.72529753674273       -1.95316996699316        2.27366100036410
C            7.27065317867605       -0.76076927080443        2.72843217287434
C            8.28109350387185       -0.83008596103210        3.66889593036624
C            8.73738718104343       -2.05224518900877        4.15855636774231
C            8.18120432927768       -3.24086107045547        3.72902658477495
C            7.16431242130632       -3.19696488801887        2.78365701261314
C            6.36694641814039       -4.20642275173945        2.14365445158428
C            6.33913481379887       -5.59337822911980        2.21826796708487
C            5.44003558574411       -6.28128659110473        1.42743954862390
C            4.58642373699211       -5.60460847208020        0.55835414543122
C            4.59536151173877       -4.22558828211412        0.46728737809888
C            5.47820406263016       -3.52723849962688        1.27900365914984
C            3.61715902216929       -1.17700139108657        0.66313360367430
C            0.72221116787042        1.02170562540514       -0.02396084649933
N            1.21945118834502        2.26063114094244       -0.02707872567713
S            0.00768207228956        3.31434207962644       -0.00893218462578
N           -1.20921117573839        2.26661896293158        0.01163258277182
C           -0.71803548552061        1.02527842325315        0.01133234123139
C           -3.61119003521516        0.77873173968201        0.75034803718450
C           -5.00095977174216        0.79865706064784        0.74288836632950
N           -5.68579152901362        1.79914706770015        1.44219796664214
C           -6.75409079352304        1.61165919920798        2.29935914649949
C           -7.35508886646022        0.43477846019508        2.72392832731732
C           -8.40515425644248        0.53021011537619        3.61772339520675
C           -8.84731179916418        1.76323346061771        4.09226989470599
C           -8.23524559031168        2.93598287859793        3.69602197046993
C           -7.17779052922310        2.86518645074431        2.79818114576866
C           -6.31890212462489        3.85303991391581        2.20572585484327
C           -6.25263320559329        5.23768621295658        2.29768280636408
C           -5.29237145223106        5.90410440307566        1.56263739798061
C           -4.41465286946363        5.20774790716176        0.73401868115747
C           -4.46093821973317        3.83052096952262        0.62536745279292
C           -5.40918564670161        3.15373522044572        1.38005531966191
C           -5.70724839831943       -0.17328447385985        0.04141893260975
H           -9.56263163718406       -2.03300933582295       -4.86684152500968
H           -8.74238424668836        0.11460899174781       -4.02000777934235
H           -6.92333909575302        0.21939557177722       -2.36451685572141
H           -8.55925988342649       -4.15811873315699       -4.09725929745566
H           -7.04911400817458       -6.09347183192794       -2.85952580481834
H           -5.43634684624389       -7.33771082495147       -1.45812903754909
H           -3.93045814071197       -6.15166133093995        0.06699886866520
H           -3.95921795694060       -3.69158859677973        0.22547548317226
H           -3.10371854279062       -1.89824264013310       -1.25626998198485
H           -1.21461808373610       -2.29871943276291        0.02490255164330
H            1.20241051084514       -2.30471975008735       -0.03033479730075
H            3.08102553720301        1.49550245616179       -1.33457525363030
H            3.78975182886257        3.28667144637144        0.01174635077462
H            3.70449744637756        5.73824770768352       -0.17738394241305
H            5.25745364671688        6.95342051747760       -1.63273414804323
H            6.97937448499908        5.74115241869537       -2.92907407580483
H            8.60072985649842        3.84581785587923       -4.06603282935941
H            9.70263854463618        1.74603902607019       -4.76775820859294
H            8.90574049062775       -0.41854953317752       -3.94122038569480
H            7.01558651118515       -0.56467961403174       -2.37358338653987
H            6.78406766780633       -0.19267990575013       -0.02787919636580
H            6.91371269180940        0.19313312922154        2.37041700746328
H            8.72425377919708        0.08463973267423        4.03503198160169
H            9.53146764328196       -2.06440183990911        4.89071316032283
H            8.52363774278943       -4.18715506538554        4.12047230603757
H            7.01244011520862       -6.11924421644688        2.87857663752805
H            5.40106471838504       -7.35983080367682        1.47240472147268
H            3.90613698990293       -6.17084131865787       -0.06119215794140
H            3.94513745528343       -3.71113578657956       -0.22411161716148
H            3.09064796888907       -1.91086195839480        1.25317493788670
H           -3.07166050990475        1.51332895624813        1.32442287752650
H           -7.01014221355679       -0.52883324004498        2.38069201646127
H           -8.89101954266089       -0.37257593772542        3.95852386219620
H           -9.67326991713314        1.79633634688808        4.78755484330762
H           -8.56563627536384        3.89044889766885        4.07780248140788
H           -6.94225382757653        5.77745608533400        2.92940356339042
H           -5.22209217498971        6.98041294668071        1.62216589970428
H           -3.68213773093511        5.75655129965814        0.16027603927996
H           -3.77925748637963        3.30506447445424       -0.02519597626302
H           -6.78584721749188       -0.16185796313579        0.03310926281677
