$hessian                                                                        
        0.6593348298  -0.0495425166  -0.0711964179  -0.1122665042   0.0927255570
       -0.0429300469  -0.0085328102   0.0288069027  -0.0158548399   0.0033206340
       -0.0146287332   0.0066299200  -0.0030792225   0.0006516102   0.0000368480
        0.0011480528   0.0006609995  -0.0003712448  -0.0005386420   0.0005398104
        0.0001285816   0.0009324171  -0.0002930922  -0.0000152183  -0.0006681316
       -0.0002905100  -0.0000951086   0.0006660940  -0.0011140167   0.0002901757
        0.0001182552   0.0000258301  -0.0000505009  -0.0000042244  -0.0000837510
       -0.0000110339   0.0000733621   0.0000735755   0.0000213569  -0.0000152527
       -0.0000523053  -0.0000146199   0.0000310375   0.0000146197  -0.0000081532
        0.0000087977  -0.0000117934  -0.0000108051   0.0000005677   0.0000148832
        0.0000056788  -0.0000135152  -0.0000127035   0.0000116864  -0.0000300233
        0.0000185988   0.0000143410  -0.0001307263  -0.0001190717  -0.0000184179
       -0.0000256216   0.0001682978   0.0000334164  -0.0000461423  -0.0000197348
        0.0000060603   0.0000709723   0.0001445754   0.0000144355  -0.0001659471
       -0.0000865936  -0.0000187201   0.0002387710  -0.0000362158  -0.0000058462
       -0.0001703780  -0.0001354512   0.0000281552   0.0001612084  -0.0001900401
        0.0000413111  -0.0003284546   0.0000739837  -0.0000052550   0.0004046682
        0.0000535309  -0.0000125763  -0.0000826743   0.0000901749  -0.0000371368
       -0.0000001257   0.0002840107  -0.0001190851   0.0000968181  -0.0000478774
        0.0000129282   0.0000195075   0.0000437033  -0.0000206885   0.0000234225
       -0.0000086524  -0.0000050167  -0.0000145037   0.0000113486   0.0000002194
        0.0000066155  -0.0000176074   0.0000062923  -0.0000461491  -0.0000087761
        0.0000129527   0.0001110013  -0.0001380286   0.0000625540   0.0000163122
       -0.0003167935   0.0000890168   0.0000203003   0.0000325438  -0.0000124407
       -0.0000160901  -0.0000031877   0.0000018465  -0.0000119652   0.0000125182
       -0.0000047510  -0.0000033397  -0.0000055584   0.0000020325   0.0000211109
        0.0000014880  -0.0000014826   0.0000062664  -0.0000200582   0.0000062919
       -0.0003632457   0.0000057845   0.0000229893   0.0001872627   0.0001505213
       -0.0000645073  -0.0001374014   0.0001733372  -0.0000216755   0.0000102476
       -0.0000322781   0.0000094280  -0.0000589859  -0.0000741061  -0.0000236349
        0.0001713294   0.0000730212   0.0000183001  -0.0006126676   0.0005434955
        0.0000586475  -0.0001031246  -0.0002926508  -0.0000463360  -0.0571862340
        0.0012794145   0.0107065185  -0.2022377510  -0.1203088707   0.0998828329
       -0.2795973121   0.0694899904   0.0042337790   0.0046333836  -0.0172244681
        0.0096583440  -0.0051432642   0.0028507257   0.0009605631   0.0000564083
        0.0001422729   0.0000720692   0.0000048320   0.0000088507   0.0000405030
       -0.0000201351  -0.0000266199  -0.0000773496  -0.0000025590  -0.0000056238
       -0.0000076460  -0.0000016278  -0.0000019096  -0.0000012327  -0.0000020919
       -0.0000001144   0.0000000390   0.0000000339  -0.0000021832  -0.0000011453
        0.0000038300  -0.0000014519  -0.0000018570   0.0000050918   0.0000022978
       -0.0000007653   0.0000057661   0.0000018960   0.0000024025   0.0000043459
       -0.0000032807  -0.0000004405  -0.0000095823   0.0000140979   0.0000055466
        0.0000029835  -0.0000012993   0.0000054627  -0.0000102429  -0.0000151194
        0.0000021377  -0.0000103212   0.0000050471   0.0000011806  -0.0000019570
       -0.0000058449   0.0000032329   0.0000019013  -0.0000026336   0.0000025500
        0.0000044465  -0.0000032757  -0.0000016603  -0.0000132341   0.0000010754
        0.0000056282  -0.0000083880   0.0000010655  -0.0000000106   0.0000055792
        0.0000002254  -0.0000004402   0.0000023841   0.0000045281  -0.0000019716
       -0.0000034947   0.0000045820  -0.0000019224   0.0000016389  -0.0000068032
        0.0000018185   0.0000105369  -0.0000146214  -0.0000001421  -0.0000096006
       -0.0000117039   0.0000000368   0.0000040774   0.0000025557  -0.0000004858
        0.0000027457   0.0000164311   0.0000027222  -0.0051752246   0.0022264125
        0.0011142590   0.0049490420   0.0037717366  -0.0031944628
       -0.0495425166   0.5146311370  -0.2264977094   0.0251215641  -0.2514466121
        0.1158858255   0.0800849413  -0.0101730066  -0.0077821728  -0.0146378785
       -0.0437037983   0.0240543889   0.0007714299  -0.0006754220  -0.0000853134
       -0.0007739318  -0.0002517157  -0.0000702785   0.0002304645  -0.0002459708
        0.0000616937  -0.0002563402   0.0001932052   0.0000469615   0.0000608083
        0.0000981132   0.0001291229   0.0001480030   0.0000616854  -0.0002721689
        0.0000075742  -0.0000322805   0.0000070890  -0.0000236766   0.0000331279
        0.0000032128  -0.0000213213  -0.0000229367  -0.0000052861   0.0000065085
        0.0000149619   0.0000074428  -0.0000219965   0.0000005053   0.0000145844
       -0.0000035364   0.0000075210   0.0000095406  -0.0000031474  -0.0000068249
        0.0000016338   0.0000051498   0.0000021528  -0.0000029612   0.0000118437
       -0.0000051980  -0.0000016828   0.0000445342   0.0000349743   0.0000043833
        0.0000204071  -0.0000476148  -0.0000051400   0.0000123601   0.0000039902
        0.0000113347  -0.0000168435  -0.0000354088  -0.0000074608   0.0000368305
        0.0000283543   0.0000028489  -0.0000571475   0.0000117962   0.0000047944
        0.0000455451   0.0000307277  -0.0000069347  -0.0000424902   0.0000496591
       -0.0000128326   0.0000963192  -0.0000228591   0.0000017045  -0.0001180494
       -0.0000062813   0.0000012746   0.0000254513  -0.0000228826   0.0000098738
        0.0000062204  -0.0000759214   0.0000320071  -0.0000297520   0.0000147139
       -0.0000025757  -0.0000061476  -0.0000131515   0.0000082255  -0.0000070203
        0.0000026986   0.0000033931   0.0000035128  -0.0000050830   0.0000015715
       -0.0000026661   0.0000060401   0.0000006695   0.0000145322   0.0000030461
       -0.0000027698  -0.0000601035   0.0000466335  -0.0000179396   0.0000006657
        0.0000904237  -0.0000258573  -0.0000050700  -0.0000091977   0.0000022330
        0.0000035326   0.0000018522  -0.0000009414   0.0000034559  -0.0000039584
       -0.0000002854   0.0000016913   0.0000008212  -0.0000018147  -0.0000045828
       -0.0000018187  -0.0000014023   0.0000002684   0.0000049166  -0.0000026203
        0.0001200329  -0.0000214554  -0.0000007662  -0.0000521801  -0.0000406868
        0.0000176732   0.0000365620  -0.0000463773   0.0000069064   0.0000084542
        0.0000045337  -0.0000070263   0.0000106615   0.0000053262   0.0000015402
       -0.0000342657  -0.0000182303  -0.0000031802   0.0002002917  -0.0001265388
       -0.0000808205   0.0000069530   0.0000701557   0.0000153177  -0.0499438446
        0.0399162705  -0.0137423233  -0.0527458507  -0.1587439911   0.0756561519
        0.0694744978  -0.0614281117   0.0034287450   0.0032047572  -0.0167884356
        0.0095939210   0.0022694234   0.0026459133   0.0030537129   0.0000910420
        0.0001812800  -0.0000295744  -0.0000108681   0.0000265659  -0.0000140006
        0.0000364279   0.0002450174   0.0000300762   0.0000145958   0.0000172497
        0.0000056536   0.0000054146   0.0000001535  -0.0000043214   0.0000030953
        0.0000017369  -0.0000005817   0.0000013276  -0.0000016196   0.0000010476
        0.0000004856  -0.0000014645   0.0000000303   0.0000016364  -0.0000019665
       -0.0000019971   0.0000028001   0.0000013863   0.0000002234  -0.0000015592
        0.0000045779  -0.0000015566   0.0000025700  -0.0000016934  -0.0000030080
        0.0000001189   0.0000037343  -0.0000024334   0.0000028711   0.0000047117
       -0.0000000006   0.0000028137  -0.0000003153   0.0000011638   0.0000004361
        0.0000032455   0.0000013100   0.0000001120   0.0000026147   0.0000021125
       -0.0000011169   0.0000014386   0.0000019517   0.0000033435   0.0000005684
       -0.0000009135   0.0000014762  -0.0000002230  -0.0000005161  -0.0000018479
        0.0000008299  -0.0000013474  -0.0000006999  -0.0000027972  -0.0000011673
        0.0000003184  -0.0000008126  -0.0000016174  -0.0000011661   0.0000004960
       -0.0000011767  -0.0000029874   0.0000053391   0.0000002218   0.0000019926
        0.0000061215   0.0000004064   0.0000003745  -0.0000001783  -0.0000011527
        0.0000012410   0.0000000161   0.0000012701   0.0028080926   0.0026796332
        0.0030091396  -0.0166472289  -0.0171691330   0.0135712436
       -0.0711964179  -0.2264977094   0.2630110950  -0.0024443966   0.1027684214
       -0.1088593617  -0.0459812756   0.0011437115   0.0089662194   0.0069492077
        0.0250780898  -0.0218448758   0.0001002601   0.0002198106  -0.0003041683
        0.0003125638   0.0000594713   0.0001695827  -0.0000751663   0.0000408589
       -0.0000449361  -0.0000274196  -0.0000792224  -0.0000379596   0.0001181256
       -0.0000394771  -0.0000462176  -0.0002450274   0.0002343337   0.0001663681
       -0.0000217284   0.0000175581   0.0000054169   0.0000156709  -0.0000068234
        0.0000030907   0.0000067903   0.0000031136  -0.0000046249  -0.0000009292
       -0.0000023293   0.0000031779   0.0000092560  -0.0000028654  -0.0000058568
        0.0000029358  -0.0000053932   0.0000026364   0.0000006180  -0.0000001537
       -0.0000003663   0.0000002284  -0.0000009399   0.0000045308  -0.0000019779
       -0.0000003920   0.0000004086  -0.0000116937  -0.0000062106   0.0000024009
       -0.0000111865   0.0000074135  -0.0000071757  -0.0000042745  -0.0000017164
       -0.0000047114   0.0000045821  -0.0000012334   0.0000014028   0.0000056029
       -0.0000046722   0.0000031558  -0.0000068440  -0.0000013124  -0.0000035110
        0.0000034790   0.0000062724   0.0000023346  -0.0000012664   0.0000022852
       -0.0000007568   0.0000000415  -0.0000017929   0.0000015280   0.0000004829
        0.0000125471  -0.0000078494  -0.0000082324   0.0000046135  -0.0000036425
        0.0000064166  -0.0000090929   0.0000069776  -0.0000069334  -0.0000021702
       -0.0000048231  -0.0000013701   0.0000022201   0.0000042692  -0.0000011447
        0.0000054732   0.0000037979   0.0000020251   0.0000035099   0.0000049004
        0.0000006126  -0.0000002047  -0.0000009850   0.0000049098  -0.0000021515
       -0.0000045353  -0.0000124118   0.0000014012  -0.0000013441  -0.0000090178
        0.0000275541  -0.0000086660  -0.0000022933  -0.0000015607  -0.0000007325
        0.0000022655  -0.0000001440  -0.0000005572  -0.0000003858   0.0000000976
        0.0000006007   0.0000025166   0.0000011596   0.0000008832  -0.0000039097
        0.0000006712  -0.0000040447  -0.0000010603   0.0000000399  -0.0000025353
        0.0000216706  -0.0000329397   0.0000084998  -0.0000013268   0.0000000027
       -0.0000022582   0.0000027048  -0.0000009766   0.0000029417  -0.0000044740
        0.0000046368  -0.0000008955   0.0000011053   0.0000105060   0.0000034808
       -0.0000028360  -0.0000008564  -0.0000008496  -0.0000135067  -0.0000177721
        0.0000315428   0.0000198652  -0.0000045067   0.0000071194   0.0406300828
       -0.0235620374   0.0075695120   0.0591025966   0.0878726211  -0.1109156234
        0.0042079759   0.0034054184  -0.0369596545  -0.0025721767   0.0138054214
       -0.0065913685   0.0011794237   0.0028383445   0.0061825654  -0.0000426112
       -0.0001627037  -0.0000155708   0.0000005312  -0.0000196897   0.0000009853
       -0.0000497558  -0.0001527019  -0.0000194007  -0.0000092590  -0.0000098680
       -0.0000017913  -0.0000031408   0.0000020023   0.0000043155  -0.0000012270
       -0.0000007158   0.0000034388  -0.0000009962   0.0000007438   0.0000032990
       -0.0000016545  -0.0000007855   0.0000034737  -0.0000019363  -0.0000020149
        0.0000043735  -0.0000023127  -0.0000017066   0.0000016565  -0.0000003315
       -0.0000022893   0.0000016964   0.0000000066  -0.0000024821  -0.0000035798
        0.0000007485  -0.0000016287  -0.0000017379   0.0000004162   0.0000008431
        0.0000007381   0.0000024886  -0.0000003533   0.0000012758   0.0000002772
        0.0000004712   0.0000006097   0.0000003656   0.0000017534   0.0000003727
       -0.0000012199   0.0000007140  -0.0000011871   0.0000003048  -0.0000001159
       -0.0000000581  -0.0000000325  -0.0000004347  -0.0000000849  -0.0000000049
       -0.0000008161  -0.0000018071  -0.0000008164  -0.0000002225  -0.0000026859
        0.0000002350  -0.0000009203  -0.0000023735   0.0000005465   0.0000005466
       -0.0000014363  -0.0000001085  -0.0000005476   0.0000015000  -0.0000001637
       -0.0000022336  -0.0000002150  -0.0000004823  -0.0000014409  -0.0000010098
       -0.0000006460  -0.0000033852  -0.0000028081   0.0008112341   0.0029541976
        0.0061750460   0.0092562118   0.0101148628  -0.0066425871
       -0.1122665042   0.0251215641  -0.0024443966   0.6486333272  -0.0351197920
       -0.0801813871  -0.3156528465   0.1027332693  -0.0087761853  -0.0573408742
       -0.0462591767   0.0378403390   0.0021535204  -0.0032543547   0.0024667341
       -0.0024618740  -0.0007399899   0.0001957398   0.0006081073  -0.0007074344
       -0.0002072396  -0.0011724346   0.0004215421   0.0000764818   0.0009460279
        0.0002223822   0.0000870567  -0.0003255581   0.0011543062  -0.0006500243
       -0.0000839888   0.0000070731   0.0000801087   0.0000510551   0.0000418092
        0.0000012108  -0.0000502194  -0.0000254014  -0.0000130116   0.0000024877
        0.0000176665   0.0000090159  -0.0000081535  -0.0000145696   0.0000033697
       -0.0000045777  -0.0000082380  -0.0000003000   0.0000020235  -0.0000091252
       -0.0000055546   0.0000041383  -0.0000046391  -0.0000037891   0.0000162023
       -0.0000077404  -0.0000133436   0.0000855242   0.0001009540   0.0000148816
        0.0000636496  -0.0000941113  -0.0000138416  -0.0000692434   0.0000191974
       -0.0000035142   0.0000355805  -0.0000417066  -0.0000010882   0.0000572124
        0.0000393774   0.0000092911  -0.0001301346   0.0000332883   0.0000061660
        0.0001309863   0.0000722142  -0.0000117926  -0.0001118334   0.0001094072
       -0.0000210227   0.0002791613  -0.0001017615   0.0000171542  -0.0003471164
        0.0000812094  -0.0000316379   0.0000218053   0.0000068403   0.0000038389
        0.0000004108  -0.0003664495   0.0001444005  -0.0001442515   0.0000885534
       -0.0000262447  -0.0000227621  -0.0000994614   0.0000505062  -0.0000448299
        0.0000241000   0.0000051435   0.0000305189  -0.0000291910   0.0000037759
       -0.0000108283   0.0000374391  -0.0000111717   0.0001054578  -0.0000142339
       -0.0000201614  -0.0001930783   0.0002159800  -0.0000884830  -0.0001523361
        0.0004439541  -0.0001267723  -0.0000055144  -0.0000240718   0.0000176753
        0.0000035423   0.0000170990  -0.0000084171   0.0000094183  -0.0000031337
        0.0000026601   0.0000040534   0.0000049962  -0.0000007672  -0.0000164262
       -0.0000011222   0.0000017131   0.0000001117   0.0000116056  -0.0000043863
        0.0005900999  -0.0003449921   0.0000745898  -0.0001371159  -0.0000773591
        0.0000363477   0.0001104629  -0.0000971424   0.0000096928   0.0000412660
       -0.0000337971  -0.0000134249  -0.0000058299   0.0000157839   0.0000126548
        0.0000132115  -0.0000648588  -0.0000117219   0.0006666229  -0.0005850206
       -0.0001150730   0.0001044169   0.0002713813   0.0000455292  -0.0319386006
        0.0296176762  -0.0128938958   0.0516901066  -0.0041128339  -0.0071022334
       -0.0108284042   0.0251948910  -0.0125835181  -0.1609254214  -0.0974770879
        0.0816776515  -0.0100395605   0.0049003481  -0.0005054262   0.0000463928
        0.0002583942   0.0000690587  -0.0000278701   0.0000405887  -0.0000496679
       -0.0001913618   0.0002321505   0.0000414552  -0.0000124057   0.0000261311
        0.0000036452   0.0000005826   0.0000098594  -0.0000001872   0.0000024303
        0.0000039646  -0.0000013673   0.0000008513   0.0000057776   0.0000049602
       -0.0000038238   0.0000066331   0.0000054733  -0.0000072838  -0.0000001635
        0.0000053517  -0.0000069656   0.0000049983  -0.0000020198  -0.0000066234
        0.0000022667  -0.0000020004  -0.0000013651   0.0000005504  -0.0000088962
        0.0000070447   0.0000136394  -0.0000081439  -0.0000057337   0.0000092304
        0.0000006424   0.0000168750   0.0000015970  -0.0000061784   0.0000013132
        0.0000088869  -0.0000031596  -0.0000027100   0.0000057718  -0.0000025011
       -0.0000064673   0.0000072408   0.0000004750   0.0000142220   0.0000004639
       -0.0000059591   0.0000081415  -0.0000049501   0.0000025651  -0.0000027211
        0.0000000175   0.0000012016  -0.0000023284  -0.0000025432   0.0000013954
       -0.0000012047  -0.0000013383   0.0000017269  -0.0000010983   0.0000000933
        0.0000019869  -0.0000057517  -0.0000017058   0.0000045882  -0.0000075737
        0.0000003545   0.0000045651  -0.0000083558   0.0000006276   0.0000012032
       -0.0000045435  -0.0000140401   0.0000011176   0.0001597790   0.0006790781
       -0.0002953875  -0.0019216354  -0.0026006871   0.0032301541
        0.0927255570  -0.2514466121   0.1027684214  -0.0351197920   0.5207138918
       -0.2336228776   0.0349314490  -0.1017664228   0.0251704967   0.0030266094
        0.0381066140  -0.0216505062  -0.0050989947   0.0011785884   0.0045833894
        0.0017016115   0.0007967060  -0.0003352743  -0.0008728817   0.0009030441
       -0.0003863655   0.0012831534  -0.0005982711  -0.0000866656  -0.0007354727
       -0.0000809807  -0.0003600797   0.0000293504  -0.0010364889   0.0002441896
        0.0000643745   0.0000443424  -0.0000718950  -0.0000010525  -0.0000865038
       -0.0000171005   0.0001096839   0.0000987834   0.0000291085  -0.0000108712
       -0.0000582618  -0.0000193128   0.0000388882   0.0000175999  -0.0000104821
        0.0000157342  -0.0000077985  -0.0000212939  -0.0000020874   0.0000164431
        0.0000046078  -0.0000182154  -0.0000163431   0.0000121877  -0.0000464969
        0.0000224283   0.0000221355  -0.0001748769  -0.0001631108  -0.0000257532
       -0.0000471920   0.0001963567   0.0000392392  -0.0000665201   0.0000270559
       -0.0000070350   0.0001112325   0.0001885442   0.0000143066  -0.0002807188
       -0.0000786400  -0.0000140427   0.0003607959  -0.0000536324  -0.0000106195
       -0.0002281461  -0.0001888298   0.0000306372   0.0001954612  -0.0002284370
        0.0000487614  -0.0003745373   0.0001071748  -0.0000138418   0.0004602738
        0.0000105545   0.0000096546  -0.0000377305   0.0000889895  -0.0000399425
       -0.0000268172   0.0003476833  -0.0001491718   0.0001063396  -0.0000309282
        0.0000099062   0.0000446101   0.0000558807  -0.0000350739   0.0000302894
       -0.0000057809  -0.0000157227  -0.0000218094   0.0000131836  -0.0000031195
       -0.0000019851  -0.0000180521   0.0000075676  -0.0000652751  -0.0000172456
        0.0000240267   0.0001935319  -0.0001575597   0.0000758575   0.0000146645
       -0.0005012333   0.0001432303   0.0000205991   0.0000477620  -0.0000220512
       -0.0000233552  -0.0000049865   0.0000062316  -0.0000190490   0.0000180334
       -0.0000059182  -0.0000048325  -0.0000068708   0.0000046160   0.0000314788
       -0.0000004033   0.0000005690   0.0000155078  -0.0000253140   0.0000104342
       -0.0004874789   0.0001587275  -0.0000137291   0.0002313804   0.0001814905
       -0.0000773169  -0.0001907208   0.0002357100  -0.0000262484   0.0000455170
       -0.0000762404   0.0000227066  -0.0001184061  -0.0001101913  -0.0000365594
        0.0002632862   0.0000883374   0.0000220291  -0.0008884900   0.0006988194
        0.0002079312  -0.0001063876  -0.0003961391  -0.0000585738   0.0316566744
       -0.0261626481   0.0068975557  -0.0535769980  -0.0401774563   0.0342635347
        0.0046476669  -0.0083660780   0.0045724831  -0.0973247673  -0.1234757860
        0.0717911817   0.0251423571  -0.0093851098   0.0011843581  -0.0000012809
       -0.0000906599   0.0001560984   0.0000044718  -0.0000309674   0.0001143783
       -0.0000021712  -0.0000737439   0.0002087416  -0.0000036568   0.0000032144
        0.0000014777   0.0000004682   0.0000046089  -0.0000045497  -0.0000033065
       -0.0000061882  -0.0000023903   0.0000010074  -0.0000090309  -0.0000090240
        0.0000070097  -0.0000065611  -0.0000094582   0.0000094049   0.0000033825
       -0.0000035849   0.0000182598  -0.0000058508   0.0000012174   0.0000123169
       -0.0000052083   0.0000044150  -0.0000101934   0.0000153507   0.0000114082
        0.0000049428  -0.0000059363   0.0000123326  -0.0000117742  -0.0000250196
        0.0000020857  -0.0000234496   0.0000044108   0.0000031873  -0.0000038643
       -0.0000154239   0.0000055202   0.0000075225  -0.0000095506   0.0000028464
        0.0000134379  -0.0000072086  -0.0000051268  -0.0000209502   0.0000048184
        0.0000071281  -0.0000150722   0.0000007528   0.0000002713   0.0000092828
        0.0000020442   0.0000002087   0.0000047018   0.0000074384   0.0000000446
       -0.0000038764   0.0000079693  -0.0000003380   0.0000017946  -0.0000117196
        0.0000046606   0.0000174471  -0.0000179917  -0.0000029782  -0.0000095100
       -0.0000133030  -0.0000015342   0.0000149078   0.0000001117  -0.0000000350
        0.0000038462   0.0000182497  -0.0000028801   0.0005229869   0.0000098686
       -0.0003362354  -0.0020708227   0.0006177545   0.0047573301
       -0.0429300469   0.1158858255  -0.1088593617  -0.0801813871  -0.2336228776
        0.2710216482   0.0303119805   0.0138645471  -0.0606194333   0.0091752470
       -0.0150400795   0.0072936862   0.0035499109   0.0043213532   0.0038346286
        0.0009445628  -0.0005412447   0.0000486425   0.0004583544   0.0000793279
       -0.0001364591  -0.0005253231   0.0001657751   0.0000133273   0.0004088747
        0.0002136437  -0.0000802296  -0.0009588829   0.0008112632  -0.0000585189
       -0.0000562068   0.0000214622   0.0000584895  -0.0000209593   0.0000055437
       -0.0000023137  -0.0000459566  -0.0000339367  -0.0000236561   0.0000013226
        0.0000187406   0.0000096272  -0.0000204329  -0.0000032162   0.0000060994
       -0.0000077219   0.0000012893   0.0000124899   0.0000007942  -0.0000077565
       -0.0000065338   0.0000099498   0.0000090413  -0.0000084606   0.0000287350
       -0.0000059869  -0.0000119115   0.0000814686   0.0000541611   0.0000120296
        0.0000061530  -0.0000778463  -0.0000194678   0.0000589730  -0.0000378235
       -0.0000234033  -0.0000736612  -0.0001112859   0.0000028946   0.0001856198
        0.0000181477   0.0000152444  -0.0002214686   0.0000308328  -0.0000041124
        0.0001217762   0.0001120518  -0.0000146889  -0.0000877347   0.0001103910
       -0.0000214082   0.0001410614  -0.0000583282   0.0000124707  -0.0001728076
        0.0000567804  -0.0000329603  -0.0000172124  -0.0000426548   0.0000175513
        0.0000413985  -0.0001243951   0.0000603133  -0.0000294838  -0.0000206743
        0.0000036123  -0.0000375216  -0.0000137744   0.0000137018  -0.0000102151
       -0.0000045290   0.0000133306   0.0000077718  -0.0000024249   0.0000007133
        0.0000108627  -0.0000000798  -0.0000007444   0.0000230519   0.0000182539
       -0.0000188378  -0.0001436744   0.0000280347  -0.0000182826  -0.0000040263
        0.0003206216  -0.0000917473  -0.0000109914  -0.0000297844   0.0000147164
        0.0000179214   0.0000007969  -0.0000006701   0.0000136042  -0.0000117059
        0.0000070447   0.0000047867   0.0000051783   0.0000019662  -0.0000220455
        0.0000013532  -0.0000009993  -0.0000145832   0.0000148845  -0.0000051147
        0.0002402823  -0.0001916444   0.0000437650  -0.0001054367  -0.0000877847
        0.0000357282   0.0001003578  -0.0001392900   0.0000155705  -0.0000463171
        0.0000741914  -0.0000091428   0.0000890892   0.0000747831   0.0000283537
       -0.0001520800  -0.0000223640  -0.0000103485   0.0003409933  -0.0002432129
       -0.0000216329   0.0000264145   0.0001380441   0.0000290399  -0.0138814537
        0.0069580622  -0.0072787027   0.0224415110   0.0249971594  -0.0175444337
       -0.0005438075   0.0007220748   0.0005310534   0.0818886523   0.0714721062
       -0.0929931035  -0.0130685562   0.0053276682   0.0002869529   0.0000165746
       -0.0000597553   0.0000459618   0.0000990575  -0.0000166564  -0.0000126673
       -0.0001141483  -0.0000263961  -0.0000370691   0.0000023253   0.0000003871
        0.0000026468  -0.0000013209  -0.0000041979  -0.0000022169   0.0000022612
        0.0000060241  -0.0000031645  -0.0000010725   0.0000063441   0.0000020191
       -0.0000049761   0.0000047947   0.0000018861  -0.0000059127  -0.0000024765
       -0.0000004520  -0.0000136276   0.0000060945  -0.0000044746  -0.0000089329
        0.0000018372  -0.0000004222   0.0000066267  -0.0000122102  -0.0000067107
       -0.0000027987   0.0000040703  -0.0000066287   0.0000079494   0.0000182065
       -0.0000030315   0.0000189608  -0.0000042766  -0.0000020888   0.0000030638
        0.0000109954  -0.0000067307  -0.0000058096   0.0000080697  -0.0000039521
       -0.0000120797   0.0000044302   0.0000020478   0.0000130112  -0.0000050535
       -0.0000038769   0.0000103769   0.0000009751   0.0000009415  -0.0000064970
       -0.0000012410   0.0000013676  -0.0000031979  -0.0000048593   0.0000027149
        0.0000028754  -0.0000051149   0.0000025865   0.0000003392   0.0000088800
       -0.0000015529  -0.0000120691   0.0000109904   0.0000016382   0.0000063280
        0.0000100723  -0.0000009082  -0.0000105128  -0.0000015973   0.0000009484
       -0.0000033606  -0.0000142427  -0.0000011845  -0.0003539687  -0.0002514832
        0.0000129950   0.0030290480   0.0048487001   0.0044913657
       -0.0085328102   0.0800849413  -0.0459812756  -0.3156528465   0.0349314490
        0.0303119805   0.6424371512  -0.0589520671  -0.0637365332  -0.1808263025
       -0.0543069641   0.0576244548  -0.0404418883  -0.0109599182   0.0134870536
        0.0014025403   0.0043326610   0.0005121970  -0.0032256613   0.0013574525
       -0.0009726764   0.0031611040  -0.0014243392  -0.0002860628  -0.0018043956
       -0.0007817351  -0.0010128237   0.0006831679  -0.0047006296   0.0014056904
        0.0002598880   0.0001244850  -0.0001691422  -0.0000404319  -0.0003304086
       -0.0000655578   0.0001367288   0.0001866777   0.0000551071  -0.0000382331
       -0.0001394319  -0.0000400215   0.0000668353   0.0000357999  -0.0000148271
        0.0000186850  -0.0000287699  -0.0000275809   0.0000032420   0.0000297294
        0.0000079118  -0.0000278774  -0.0000281799   0.0000194089  -0.0000574787
        0.0000441438   0.0000351001  -0.0002822162  -0.0003098728  -0.0000414295
       -0.0001132757   0.0003918263   0.0000775528   0.0000008248  -0.0000620937
       -0.0000191587   0.0000877558   0.0002658236   0.0000321809  -0.0002436420
       -0.0002297276  -0.0000375740   0.0004378377  -0.0000874908  -0.0000246389
       -0.0003760803  -0.0002618847   0.0000533147   0.0003602310  -0.0003945832
        0.0000871886  -0.0008065205   0.0002005324  -0.0000175526   0.0009818940
        0.0001123641  -0.0000283437  -0.0001628157   0.0001341029  -0.0000596308
        0.0000295642   0.0008567334  -0.0003383158   0.0003124749  -0.0002007699
        0.0000598694   0.0000287318   0.0001800241  -0.0000835570   0.0000883007
       -0.0000513479  -0.0000067917  -0.0000526799   0.0000481334  -0.0000028128
        0.0000329176  -0.0000754425   0.0000202126  -0.0001781194   0.0000302191
        0.0000268715   0.0002480098  -0.0004763060   0.0002050802   0.0001667190
       -0.0007576432   0.0002131400   0.0000290660   0.0000532814  -0.0000350130
       -0.0000148193  -0.0000260800   0.0000138878  -0.0000184529   0.0000126802
       -0.0000071378  -0.0000076261  -0.0000114009   0.0000032975   0.0000415184
        0.0000035585  -0.0000042787   0.0000012566  -0.0000395014   0.0000144863
       -0.0010818465   0.0001419655   0.0000280827   0.0004269537   0.0003064906
       -0.0001357832  -0.0003151253   0.0003274353  -0.0000432158  -0.0000497302
        0.0000479411   0.0000354605  -0.0000801381  -0.0001294959  -0.0000496483
        0.0004137026   0.0002279540   0.0000743091  -0.0019419237   0.0016327920
        0.0004229505  -0.0003047610  -0.0008625590  -0.0001080466   0.0475811035
       -0.0465029573   0.0204755191  -0.0572839491  -0.0114687531   0.0165362150
        0.0008711307   0.0020414752   0.0000884070  -0.0231568231   0.0042201579
        0.0022222976  -0.0624400341   0.0596841897  -0.0317259908  -0.0000275584
       -0.0001751014   0.0003944112  -0.0003620450   0.0000447978   0.0000804549
       -0.0003942968  -0.0001416797   0.0005512601  -0.0000091396  -0.0000038874
        0.0000024360  -0.0000082733   0.0000049758   0.0000033026  -0.0000026278
        0.0000038350   0.0000023027  -0.0000007614  -0.0000010107  -0.0000049224
        0.0000071936  -0.0000032840  -0.0000024389   0.0000106480   0.0000048980
       -0.0000011801   0.0000022740   0.0000060017   0.0000053997   0.0000035801
       -0.0000078834   0.0000062260  -0.0000099572   0.0000211959   0.0000160760
       -0.0000028425  -0.0000184237   0.0000160542  -0.0000045738  -0.0000247463
        0.0000021525  -0.0000251471   0.0000028914   0.0000078282  -0.0000032646
       -0.0000099348   0.0000039161   0.0000023888  -0.0000068315   0.0000044781
        0.0000058088  -0.0000117710   0.0000002013  -0.0000359847  -0.0000044545
        0.0000172654  -0.0000176186   0.0000064995  -0.0000026684   0.0000057933
        0.0000001602  -0.0000020278   0.0000045171   0.0000059019  -0.0000028509
       -0.0000007642   0.0000039784  -0.0000033223   0.0000027877  -0.0000078888
       -0.0000005188   0.0000144217  -0.0000184747  -0.0000032678  -0.0000059268
       -0.0000223865  -0.0000023741   0.0000069984   0.0000036417  -0.0000019897
        0.0000192189   0.0000507364   0.0000034881   0.0004949232   0.0022830114