106
 energy: -178.758032827819 gnorm: 0.000068813196 xtb: 6.7.1 (edcfbbe)
N           -2.43968639768796        3.23552105953281        0.59603143742634
C           -1.76604434235120        2.32863321912213        0.34140515317747
C           -1.00595398381524        1.19329949676686        0.08370607841073
C            0.44073129963696        1.18643181094894       -0.00035309123567
C            1.24747826241527        2.38303557051769       -0.07711282004758
C            0.74619138629399        3.61531831450286       -0.52368115909520
C            1.55712676599409        4.72646541152762       -0.59386037205104
C            2.89642100173484        4.64293433385036       -0.22227231996819
N            3.72869745107566        5.79211447254187       -0.28371216939880
C            3.55293960664358        6.83472738196923        0.61405527908790
C            2.58107386554685        6.79946598969368        1.61223414733525
C            2.43709419210444        7.85782976901423        2.49121766467358
C            3.26192304057708        8.96689676685528        2.39829235978146
C            4.24514288890964        9.01304745042672        1.42356396983852
C            4.39608430593301        7.95771332514710        0.53946724799536
O            5.39720351644971        8.05535351324771       -0.38848257204389
C            5.55732689968269        7.01814662409649       -1.26672676913933
C            6.56899648623202        7.13132030891469       -2.20591555414298
C            6.77148664435879        6.12248526181493       -3.13344568760177
C            5.95088357621242        5.00651047669896       -3.12585094862997
C            4.93842803648858        4.88538790031078       -2.19110683622143
C            4.73162720907751        5.88040157651893       -1.23751169993546
C            3.41822531554708        3.42220394540400        0.20746482573830
C            2.60800249407289        2.31502279950536        0.27366976285576
N            1.09917383388477        0.03993049485911        0.00455853886812
C            0.50593762132505       -1.14131677588740        0.01360910804499
C            1.37821225509440       -2.29148462010752        0.08585557367807
C            2.72889402773180       -2.15102568354811       -0.28057323821430
C            3.59845915355399       -3.21275268412736       -0.22178119095255
C            3.14849286315255       -4.45859635278772        0.21726867742070
N            4.04033440019091       -5.56209989150840        0.26969930584124
C            5.06990233105353       -5.58866479466969        1.19890734035050
C            5.25583339721657       -4.56912009085596        2.13071238003591
C            6.29663677693125       -4.62810735069852        3.03998867305151
C            7.16622122225796       -5.70635717336742        3.04484315417485
C            6.98536824240937       -6.73952290594068        2.13996660486926
C            5.94588029331809       -6.68824482283999        1.22606364474096
O            5.80976645180595       -7.74786245548669        0.37089069201086
C            4.78442787683610       -7.71009200504997       -0.53465020718493
C            4.65990049566881       -8.78644457571542       -1.39729762314707
C            3.65401343123770       -8.80031420718644       -2.34959628483497
C            2.78138507302931       -7.72857224217888       -2.44341587154997
C            2.89865742920477       -6.64970342111731       -1.58564868480457
C            3.89166151653133       -6.62610726244208       -0.60806038665882
C            1.82023508219884       -4.61251216343877        0.60618131566834
C            0.94960023195038       -3.54720986677851        0.54247464867575
C           -0.93837150241265       -1.22960105137074       -0.06324474466102
C           -1.63369808827894       -2.40645187002767       -0.31763720057552
N           -2.25461733361360       -3.35100838434807       -0.56926858351830
C           -1.66533160302819       -0.03752324585810        0.01127010594508
C           -3.13908885376933       -0.07980915732867        0.01142745173555
C           -3.86114342119546        0.58018445517095       -0.97802231902916
C           -5.24104241907681        0.53423550855399       -0.98696699982809
C           -5.91527321022427       -0.16669650298384        0.00560427067579
N           -7.33341869902682       -0.21235308433838        0.00181181342099
C           -7.99574448893417       -1.39794258094337       -0.29276780858142
C           -7.31583882425475       -2.56672400474574       -0.62607860398103
C           -8.01250453830837       -3.72756330884664       -0.91420718357207
C           -9.39653342819608       -3.74297858977119       -0.88258887184457
C          -10.09001533646249       -2.58429462732809       -0.57235847917864
C           -9.40083599661991       -1.41851734110528       -0.28339769508471
O          -10.14466897557576       -0.30351910222736       -0.00238032739215
C           -9.47556264744874        0.85770731546557        0.27908149491988
C          -10.23955643849857        1.97688476353217        0.56415293565115
C           -9.62344361837139        3.17823599223287        0.87541750609748
C           -8.24140892217070        3.25236967637713        0.91147758518329
C           -7.47031259080478        2.13864285828434        0.62700721622239
C           -8.07215678335873        0.92808611209410        0.29289019842453
C           -5.20271889474828       -0.82288324051742        1.00194857172012
C           -3.82255637945098       -0.78237839671423        0.99888456624584
H           -0.28270269557996        3.69722753837989       -0.83733126540875
H            1.15822257487446        5.66720678642321       -0.94510715961178
H            1.94062687393805        5.93568845817620        1.69473735129139
H            1.67530889453863        7.80920839728678        3.25363210654137
H            3.14812063917427        9.79156151386478        3.08360987069156
H            4.91018309385414        9.85693176697243        1.33174629702302
H            7.18221856315811        8.01825683100586       -2.19335162709203
H            7.56216746819810        6.21511900332278       -3.86080987152225
H            6.09410836872004        4.22219025863641       -3.85266804527275
H            4.29615594944644        4.01923083270429       -2.19537841065584
H            4.45766024312533        3.35956920683361        0.49546685831073
H            2.99743175530305        1.36796770585780        0.61254302852727
H            3.06258607112357       -1.18546354766011       -0.62658576193798
H            4.62921642662884       -3.09516689760304       -0.52346380878373
H            4.57507041297221       -3.73297763373214        2.13851468353409
H            6.42279816575945       -3.82545059228244        3.74975326938620
H            7.97849436316818       -5.75101093318702        3.75263866749972
H            7.63663744854432       -7.59891329346898        2.12652221810764
H            5.36261318295368       -9.59931381479682       -1.30634235900925
H            3.56041782922691       -9.64173689436763       -3.01741138345313
H            2.00201581276177       -7.72556919527166       -3.18942106925032
H            2.22058384121859       -5.81532060635890       -1.66959612868795
H            1.47697003375510       -5.57201466755141        0.96532618737321
H           -0.06962712909526       -3.68320654959117        0.86879753662974
H           -3.33550509633100        1.12109592844175       -1.75173903693463
H           -5.79918934474832        1.03907761207358       -1.76136899337340
H           -6.23777950045636       -2.56333023891755       -0.66246651832649
H           -7.46245093081989       -4.62072415466487       -1.16619823851387
H           -9.93892509002062       -4.64800114363498       -1.10496661549874
H          -11.16786607223261       -2.56020480693037       -0.55112199457468
H          -11.31351910121293        1.88311151919297        0.53954536791000
H          -10.22385559951940        4.04660387528555        1.09493051073283
H           -7.75112582586247        4.17951170224526        1.16425354988162
H           -6.39440101614771        2.20430258310925        0.66670349082829
H           -5.73153294834559       -1.36165936818368        1.77409458039640
H           -3.26760780128388       -1.28932550087342        1.77511982501834
