$hessian                                                                        
        0.3710351064  -0.5415455281  -0.1652870001  -0.3629340363   0.5103721335
        0.1547100664  -0.0053654169   0.0360164225   0.0099159482   0.0071770052
       -0.0015889342  -0.0003691095  -0.0009653661  -0.0012397618  -0.0000612160
       -0.0005123992   0.0004328853   0.0012757645  -0.0007634503   0.0000922170
        0.0001005148   0.0006032767   0.0008439312  -0.0000992083  -0.0004550208
       -0.0005629618   0.0000588456  -0.0001168626   0.0000719874  -0.0001698384
       -0.0000121909   0.0000804577   0.0000312630  -0.0000676665  -0.0001190452
        0.0000195871   0.0001584733   0.0000700459  -0.0000737929  -0.0000825135
        0.0001025907   0.0001056629   0.0003550812  -0.0000159186  -0.0001796591
       -0.0002531855  -0.0002554644   0.0000418604  -0.0001445616   0.0002344027
        0.0001291797   0.0001469590  -0.0000479073  -0.0001115922  -0.0000100729
        0.0001498634   0.0000660054  -0.0000929421  -0.0001161987   0.0000102467
        0.0000365345  -0.0000708538  -0.0000197786   0.0002245934  -0.0000088541
        0.0000560905   0.0000873304  -0.0006337434  -0.0000315781   0.0010511302
       -0.0000407242  -0.0001034977  -0.0005001720   0.0021600369  -0.0002726298
        0.0021283866  -0.0017402556   0.0002541331  -0.0008209177   0.0011128508
        0.0000070255   0.0007449557  -0.0000286799  -0.0000324789   0.0000552782
        0.0005504262   0.0000190769   0.0005210042  -0.0006406036   0.0000180286
       -0.0003071316   0.0004416843  -0.0000130980   0.0000448988   0.0000322232
       -0.0001682684   0.0000520440   0.0001130724   0.0000477076  -0.0001381240
        0.0001138391  -0.0000223740   0.0000224251  -0.0001607054  -0.0000606653
        0.0001352587   0.0000528659   0.0001065746  -0.0000973768  -0.0003139021
       -0.0001457910  -0.0001829408   0.0002662967   0.0000042834   0.0002866538
        0.0000455785   0.0001470760  -0.0000773289  -0.0001265728  -0.0001055704
        0.0001540949  -0.0000556398   0.0000712430  -0.0000880316   0.0001660959
        0.0000085800  -0.0001172265  -0.0000208340  -0.0000542243  -0.0000730286
       -0.0000758927   0.0001581289  -0.0005721419   0.0001004470  -0.0000604295
       -0.0001480779  -0.0007658879   0.0001208600  -0.0013622000   0.0033308583
        0.0002427716  -0.0011131442  -0.0005250650  -0.0001876388   0.0006290462
        0.0006109327   0.0001838239  -0.0063984200  -0.0050472017  -0.0004444285
        0.0007520673  -0.0002821273  -0.0002909803  -0.0008729298  -0.0003418781
       -0.0010855364   0.0007616188   0.0000526013  -0.0000758371  -0.0003861125
       -0.0000207198   0.0002668681   0.0002914215  -0.0001983527   0.0000312749
        0.0001191314   0.0001587314   0.0001047070   0.0000540000  -0.0001282693
       -0.0000293210   0.0000276524   0.0000206240   0.0000100188  -0.0000442061
        0.0000202922   0.0000152840  -0.0000296088  -0.0000674773  -0.0000242739
       -0.0001063821   0.0001650447   0.0000411612   0.0000467353  -0.0001718917
       -0.0000416964   0.0000625330  -0.0000192865  -0.0000145768  -0.0000369866
        0.0000541957   0.0000333335  -0.0001214830  -0.0000880746  -0.0000289345
        0.0000405680  -0.0000618971  -0.0000066173   0.0001895863   0.0000649719
        0.0000552736  -0.0001184574   0.0001573192  -0.0000388378   0.0001144201
       -0.0001747591  -0.0000829656  -0.0001853513  -0.0002805882  -0.0001041842
       -0.0018884761  -0.0005233943   0.0008745296  -0.0000439754   0.0000148505
       -0.0000497975  -0.0000453395   0.0000485220   0.0000461674  -0.0000171760
       -0.0000123858  -0.0000010648  -0.0000119747  -0.0000330779  -0.0000102362
       -0.0000219100  -0.0000175723  -0.0000009304  -0.0000205828  -0.0000095700
        0.0000043835  -0.0000253184   0.0000040985   0.0000116338  -0.0000195922
        0.0000234747   0.0000086482   0.0000124020   0.0000099180  -0.0000280987
       -0.0001039774  -0.0000087214   0.0000618383  -0.0000329946   0.0000478414
        0.0000699139   0.0000175818  -0.0000527256  -0.0000567920  -0.0000445703
        0.0000125850  -0.0000145992   0.0000167338  -0.0000080367   0.0000189582
       -0.0000106091  -0.0000173940  -0.0000029151  -0.0000172288  -0.0000007825
       -0.0000085941  -0.0000125127   0.0000143560  -0.0000010367  -0.0000116707
        0.0000134216   0.0000030933   0.0000026935   0.0000175479   0.0000116909
        0.0000194039   0.0000078510   0.0000111950  -0.0000056875  -0.0000277949
       -0.0000137924  -0.0000060221   0.0000530039   0.0000067799   0.0000549920
        0.0000198482   0.0000450108  -0.0002216973  -0.0004182441   0.0002482336
        0.0000722789  -0.0000145456   0.0000752611  -0.0000360982   0.0000634370
        0.0000122255  -0.0000101074   0.0000035069  -0.0000001452  -0.0000161922
       -0.0000034503   0.0000025850  -0.0000084688   0.0000025065   0.0000058734
       -0.0000243388   0.0000038855   0.0000021233  -0.0000227548   0.0000128772
        0.0000051909   0.0000632539  -0.0000611868  -0.0000182112   0.0000645231
        0.0000711657  -0.0000295314   0.0000011375   0.0000386963   0.0000292325
       -0.0000815300   0.0000500201   0.0001105365
       -0.5415455281   0.8506763622   0.2530225453   0.5095377529  -0.8141459379
       -0.2379322526   0.0373821227  -0.0389478667  -0.0154281882  -0.0144094635
       -0.0030349889   0.0004866645   0.0016094129   0.0020452585   0.0003289613
       -0.0000417981  -0.0013014758   0.0012302074   0.0008090668   0.0005170607
       -0.0001874225  -0.0007979636  -0.0011405444  -0.0001392925   0.0002582418
        0.0007670938  -0.0000775862   0.0001873693  -0.0001895846   0.0002587732
        0.0001767370   0.0000618895  -0.0001648687   0.0000481985   0.0002194176
        0.0000013015  -0.0002825108  -0.0001390180   0.0001297894   0.0001012723
       -0.0001721668  -0.0001594965  -0.0003483002   0.0000529494   0.0001958538
        0.0001545056   0.0003955833   0.0000531805   0.0001904007  -0.0004578716
       -0.0002075076  -0.0002155552   0.0000506103   0.0001569932  -0.0000133985
       -0.0002217363  -0.0000885809   0.0001518022   0.0001377082  -0.0000382036
       -0.0001209402   0.0002082032   0.0000976670   0.0000337221   0.0000263365
       -0.0002962075  -0.0002019744   0.0008648533   0.0000937602  -0.0014046191
       -0.0000020656   0.0000005796   0.0052429380  -0.0054229633   0.0002664560
       -0.0028648639   0.0034793146  -0.0004734165   0.0013349788  -0.0017162395
        0.0000497634  -0.0011947752   0.0000072459   0.0000782347  -0.0000719392
       -0.0008768457  -0.0000394140  -0.0008321814   0.0010325000  -0.0000302665
        0.0005581974  -0.0006847795   0.0000315895  -0.0001291629  -0.0000544350
        0.0002472431  -0.0000720426  -0.0001692267  -0.0000758853   0.0002182974
       -0.0001875261   0.0000261178  -0.0000322300   0.0002625009   0.0000961758
       -0.0002119286  -0.0000818852  -0.0001727959   0.0001529981   0.0004609566
        0.0002225905   0.0003240717  -0.0003906697   0.0000138280  -0.0004809897
       -0.0000705137  -0.0002426621   0.0001233124   0.0001991709   0.0001640867
       -0.0002353656   0.0000863303  -0.0001108901   0.0001334793  -0.0002557366
       -0.0000170315   0.0001849552   0.0000402433   0.0000807550   0.0001093751
        0.0000851539  -0.0002604756   0.0009115875  -0.0001455405   0.0000917660
        0.0002140137   0.0012173949  -0.0001928030   0.0026782887  -0.0030535347
       -0.0002595937   0.0009169402   0.0011826837   0.0002587905  -0.0004976101
       -0.0008131260  -0.0002215948   0.0041399786   0.0106189406   0.0008281502
       -0.0017123936  -0.0003500931   0.0000518314  -0.0001098112  -0.0014069426
       -0.0001636109  -0.0003092639  -0.0003513329  -0.0000478473   0.0010095157
       -0.0000879145   0.0000723989  -0.0007450387   0.0000109834  -0.0000507679
        0.0000529547   0.0001319520  -0.0000724451  -0.0000421492   0.0000736401
        0.0000023072  -0.0000895463   0.0000013935  -0.0000042421   0.0000754768
       -0.0000738077  -0.0000332814   0.0000375333   0.0001431353   0.0000519878
        0.0000686271  -0.0002393520  -0.0000582641  -0.0002553069   0.0000045920
       -0.0000017363   0.0000928636   0.0002366406   0.0000752378   0.0000350687
       -0.0001029894  -0.0000566292   0.0001504316   0.0001243846   0.0000393195
       -0.0000726249  -0.0000096659  -0.0000232161   0.0000586022  -0.0000216042
       -0.0000305170   0.0000714822  -0.0001309999   0.0001173293  -0.0005184359
        0.0004089784  -0.0001036020   0.0005582766   0.0009407668  -0.0001493363
       -0.0001095246   0.0005955513  -0.0005965405   0.0000781996   0.0001386125
       -0.0000208595   0.0001348291  -0.0000480797   0.0000245135  -0.0000033471
        0.0000810884   0.0000477392   0.0000077759   0.0000072882   0.0000080548
        0.0000114682  -0.0000018992   0.0000021437   0.0000156106   0.0000050677
       -0.0000054269   0.0000151493  -0.0000134335  -0.0000100817   0.0000206795
       -0.0000289276  -0.0000064178   0.0000341434  -0.0000672518  -0.0000000512
        0.0000850912   0.0000329822  -0.0000807691  -0.0001109992  -0.0001166228
       -0.0001858516  -0.0000483587   0.0000681800   0.0001053209   0.0000831707
       -0.0000354922   0.0000146841  -0.0000364450   0.0000023121  -0.0000336464
        0.0000246101   0.0000274895   0.0000093554   0.0000307417  -0.0000004734
        0.0000136418   0.0000199463  -0.0000220090   0.0000010945   0.0000198860
       -0.0000222974  -0.0000044743  -0.0000050570  -0.0000262744  -0.0000171187
       -0.0000296764  -0.0000083807  -0.0000128116   0.0000016440   0.0000390116
        0.0000231108   0.0000078956  -0.0000811265  -0.0000131679  -0.0000963444
       -0.0000082308  -0.0000780145  -0.0003017079  -0.0004897342  -0.0003523998
       -0.0000545855   0.0000106851  -0.0000131986   0.0000418272  -0.0000137247
        0.0000108542   0.0000169188  -0.0000239315  -0.0000022368   0.0000036358
       -0.0000168412  -0.0000053717  -0.0000079459  -0.0000123647  -0.0000064369
       -0.0000081115  -0.0000114527   0.0000013842  -0.0000273416   0.0000007241
        0.0000026240  -0.0000652663   0.0000183638   0.0000102331  -0.0000436103
       -0.0001217588  -0.0000066368  -0.0000283645  -0.0001065460  -0.0000350398
        0.0000883253  -0.0000717516  -0.0000985066
       -0.1652870001   0.2530225453   0.0948715338   0.1549603155  -0.2387524996
       -0.1046069766   0.0090354458  -0.0137769498   0.0108076015  -0.0030681589
       -0.0004894097   0.0013665356   0.0006593770   0.0005187415   0.0004100766
       -0.0002946733   0.0000074953  -0.0009201308   0.0006890785   0.0000357087
        0.0000272710  -0.0002990958  -0.0003824172  -0.0000308394   0.0002527399
        0.0003728509   0.0000880315   0.0000817832  -0.0001450891   0.0000103233
        0.0000566923   0.0000094537   0.0000189391   0.0000455449   0.0000532836
       -0.0000008229  -0.0000964730  -0.0000411327   0.0000474335   0.0000418351
       -0.0000582139  -0.0000473620  -0.0001252493   0.0000346896   0.0000591672
        0.0000523767   0.0001304127   0.0000259244   0.0000745894  -0.0001415767
       -0.0000839122  -0.0000719036   0.0000224962   0.0000575726   0.0000039753
       -0.0000692483  -0.0000276329   0.0000417096   0.0000484470  -0.0000015640
       -0.0000198199   0.0000380705   0.0000313241  -0.0000854023   0.0000187061
       -0.0000661365   0.0000189569   0.0002890613   0.0000548767  -0.0003779097
        0.0000010009   0.0001444669   0.0009156276  -0.0013828926  -0.0015367305
       -0.0006024269   0.0007998229  -0.0000126452   0.0002658374  -0.0003909422
        0.0006207901  -0.0003432328   0.0000847671   0.0000259787  -0.0000450682
       -0.0002414586  -0.0000174252  -0.0001852039   0.0002621119  -0.0000238541
        0.0001254102  -0.0001570633   0.0000335268  -0.0000262661  -0.0000102218
        0.0000566569  -0.0000185412  -0.0000473293  -0.0000140816   0.0000530572
       -0.0000463928   0.0000108117  -0.0000079299   0.0000656831   0.0000254474
       -0.0000514662  -0.0000196786  -0.0000386056   0.0000374758   0.0001110902
        0.0000489243   0.0000816799  -0.0000920176   0.0000093546  -0.0001205718
       -0.0000153532  -0.0000596959   0.0000297676   0.0000478587   0.0000427526
       -0.0000556995   0.0000209704  -0.0000230164   0.0000303973  -0.0000638588
       -0.0000027900   0.0000498317   0.0000083101   0.0000260480   0.0000258565
        0.0000085190  -0.0000747338   0.0001731897  -0.0000601839   0.0000058776
        0.0001238719   0.0002310846  -0.0000131780   0.0004990277  -0.0009820677
       -0.0021399147   0.0003538727   0.0002951861  -0.0001819090  -0.0001719007
       -0.0002462480   0.0000312141   0.0018834043   0.0022569635   0.0013065354
       -0.0007288442  -0.0001649467   0.0007842522   0.0000497986  -0.0004944436
       -0.0007611510  -0.0001586496  -0.0003239090   0.0000535326   0.0003585652
       -0.0000215433   0.0000298604  -0.0003531659  -0.0000194431   0.0001048230
        0.0000269354   0.0000729770  -0.0000595473  -0.0000143523   0.0000203086
        0.0000182475  -0.0000307768   0.0000009950   0.0000054822   0.0000292176
       -0.0000296803  -0.0000078041   0.0000138067   0.0000532702   0.0000273216
        0.0000272736  -0.0000932041  -0.0000329885  -0.0000848570   0.0000086376
        0.0000121827   0.0000202995   0.0000931193   0.0000145525   0.0000153312
       -0.0000465515  -0.0000123449   0.0000598466   0.0000468380   0.0000197897
       -0.0000265420  -0.0000082824   0.0000198552  -0.0000121936  -0.0000296094
        0.0000718574   0.0000570768  -0.0000896527  -0.0000021043  -0.0002922136
        0.0000813244   0.0000189572   0.0000789212   0.0003460192   0.0000667062
        0.0016823739   0.0002191176  -0.0003430781  -0.0000160217  -0.0000833385
        0.0000049866   0.0000478070  -0.0000041011  -0.0000765049  -0.0000082798
        0.0000433570   0.0000046083   0.0000012606   0.0000096205  -0.0000008505
        0.0000009674   0.0000034216  -0.0000022315   0.0000068968   0.0000046528
       -0.0000061044   0.0000068251  -0.0000025498  -0.0000065356   0.0000048922
       -0.0000093075  -0.0000056164  -0.0000050246  -0.0000052980  -0.0000041010
        0.0000695046  -0.0000046332  -0.0000346639   0.0000636460  -0.0000624546
       -0.0000216626  -0.0000094917   0.0000399216   0.0000164742   0.0000126201
       -0.0000005354   0.0000034803  -0.0000069585   0.0000014964  -0.0000129883
        0.0000097986   0.0000085285   0.0000019201   0.0000082375   0.0000008143
        0.0000030766   0.0000053963  -0.0000041899   0.0000000182   0.0000052702
       -0.0000041989  -0.0000007342  -0.0000007518  -0.0000046734  -0.0000032126
       -0.0000059353  -0.0000008911  -0.0000030994  -0.0000007892   0.0000091983
        0.0000008934   0.0000043552  -0.0000292281  -0.0000031782  -0.0000159239
       -0.0000190919  -0.0000136921  -0.0002554799  -0.0004609462  -0.0000796520
        0.0000955820  -0.0000179608   0.0000162975   0.0000095468  -0.0000009391
       -0.0000094421   0.0000055954  -0.0000088646  -0.0000024719   0.0000008961
       -0.0000059739  -0.0000026872  -0.0000032118  -0.0000041711  -0.0000046580
       -0.0000019165  -0.0000020324  -0.0000035407  -0.0000054819   0.0000008791
       -0.0000050895  -0.0000259342   0.0000198698  -0.0000225494  -0.0000266117
       -0.0000203679  -0.0001055703  -0.0000239458  -0.0000773811  -0.0000091665
        0.0000260745  -0.0001130574   0.0000188074
       -0.3629340363   0.5095377529   0.1549603155   0.5003893238  -0.6226738405
       -0.1820852149  -0.1132426047   0.0863376783   0.0204323890  -0.0320574336
        0.0258418509   0.0052469393   0.0016008490   0.0033602595   0.0001904039
       -0.0009599096  -0.0012592528   0.0004007905   0.0009375899  -0.0000753203
       -0.0002265895  -0.0009639949  -0.0015916662   0.0000200381   0.0007007169
        0.0011175752  -0.0000702948   0.0003215980  -0.0003500097   0.0001927774
        0.0000458428  -0.0000481050  -0.0000734738   0.0001193399   0.0001894886
       -0.0000424448  -0.0002993563  -0.0001153256   0.0001418009   0.0001435745
       -0.0001970989  -0.0001928470  -0.0005253376   0.0000832944   0.0002713752
        0.0003463315   0.0004919444  -0.0000174219   0.0002744102  -0.0004770131
       -0.0002535029  -0.0002638844   0.0000811368   0.0001966446   0.0000118145
       -0.0002679377  -0.0001158065   0.0001234705   0.0001744429  -0.0000069986
       -0.0000708216   0.0001186892   0.0000399219  -0.0003689551   0.0000611765
       -0.0001255495  -0.0001347258   0.0010713655   0.0000439399  -0.0016902833
        0.0000975167  -0.0001187422  -0.0071997076  -0.0022114060   0.0009294822
       -0.0040591405   0.0026500385  -0.0004245949   0.0015940224  -0.0021541839
       -0.0001159516  -0.0014034061   0.0000679069   0.0001016592  -0.0000613479
       -0.0009748207  -0.0000316906  -0.0009678795   0.0012216044  -0.0000537274
        0.0006008650  -0.0008253636   0.0000061749  -0.0001262768  -0.0000707559
        0.0002890279  -0.0000825764  -0.0001833026  -0.0000842918   0.0002312115
       -0.0001910601   0.0000305194  -0.0000396614   0.0002933830   0.0001045759
       -0.0002406861  -0.0000869720  -0.0001940438   0.0001841255   0.0005579553
        0.0002583012   0.0003370898  -0.0004812610  -0.0000100395  -0.0005138672
       -0.0000983571  -0.0002615746   0.0001362278   0.0002302807   0.0001875663
       -0.0002701967   0.0000990951  -0.0001250679   0.0001502421  -0.0002772018
       -0.0000137599   0.0002040846   0.0000331199   0.0000872161   0.0001483971
        0.0001640171  -0.0002674665   0.0010210679  -0.0001350917   0.0000984724
        0.0002749936   0.0014094751  -0.0002109299   0.0034645292  -0.0074884016
       -0.0002389931   0.0017855013   0.0006346531   0.0003666119  -0.0010700805
       -0.0010956923  -0.0003630695   0.0156045777   0.0092439209   0.0007090086
       -0.0021142298  -0.0016075379   0.0003678092   0.0007175607  -0.0008028271
        0.0005659400  -0.0012336624  -0.0000133444   0.0002217110   0.0007272755
        0.0001040741  -0.0002831336  -0.0004135982   0.0001193199  -0.0000980254
       -0.0001107472  -0.0001472012  -0.0001396354  -0.0000985138   0.0001747887
        0.0000399285  -0.0000694485  -0.0000270020  -0.0000062668   0.0000937010
       -0.0000491857  -0.0000253464   0.0000561232   0.0001257845   0.0000516509
        0.0001079841  -0.0002379860  -0.0000588885  -0.0001680878   0.0000923429
        0.0000275107   0.0000153916   0.0001461262   0.0000454544   0.0000653192
       -0.0000909022  -0.0000488007   0.0001794372   0.0001141082   0.0000421756
       -0.0000543579   0.0000652599   0.0000111588  -0.0001721599  -0.0001025971
       -0.0000571466   0.0000736973  -0.0000597373   0.0000920375  -0.0002965607
        0.0003754690   0.0001134885   0.0004191688   0.0006282524  -0.0000706271
        0.0001019726  -0.0003707115   0.0013381220   0.0001390662   0.0001335887
        0.0000364434   0.0001443770  -0.0000864768  -0.0000572846   0.0000046305
        0.0000669245   0.0000290516   0.0000161800   0.0000525179   0.0000162211
        0.0000299464   0.0000343477   0.0000021787   0.0000395935   0.0000259266
       -0.0000137526   0.0000472925  -0.0000020369  -0.0000257363   0.0000403405
       -0.0000351138  -0.0000208659   0.0000011636  -0.0000239265   0.0000302368
        0.0001883503   0.0000741513  -0.0000694262   0.0001305110  -0.0000394358
       -0.0000593527   0.0000793691   0.0000560535   0.0000332468   0.0000880009
       -0.0000315125   0.0000250110  -0.0000225614   0.0000030716  -0.0000312327
        0.0000261359   0.0000247887   0.0000029194   0.0000341416  -0.0000017778
        0.0000118403   0.0000241720  -0.0000276669  -0.0000010303   0.0000221503
       -0.0000251706  -0.0000065540  -0.0000045546  -0.0000307533  -0.0000199720
       -0.0000338746  -0.0000151367  -0.0000178317   0.0000007102   0.0000419786
        0.0000206234   0.0000099989  -0.0000961774  -0.0000131946  -0.0001095705
       -0.0000268528  -0.0000772788  -0.0000549563  -0.0001369566  -0.0012429347
       -0.0000537812   0.0000414412  -0.0000665204   0.0000766211  -0.0000831647
       -0.0000146382   0.0000197209  -0.0000183983   0.0000005443   0.0000177265
       -0.0000058418  -0.0000042791   0.0000029096  -0.0000045532  -0.0000059361
        0.0000133355  -0.0000138559  -0.0000013484   0.0000121834  -0.0000103442
       -0.0000037090  -0.0000605011   0.0000412278   0.0000070166  -0.0000284006
       -0.0000269887   0.0000217305  -0.0000146547  -0.0000571118  -0.0000129885
        0.0001423350  -0.0000734401  -0.0001821783
        0.5103721335  -0.8141459379  -0.2387524996  -0.6226738405   1.0680424237
        0.2814796505   0.0851830741  -0.1963736177  -0.0328083263   0.0377669478
       -0.0033454822  -0.0030576181  -0.0045325683  -0.0042106287  -0.0003781082
       -0.0013404091   0.0026666697  -0.0013990224  -0.0014174801  -0.0010710642
        0.0000913208   0.0013824675   0.0020218250   0.0000591007  -0.0005109172
       -0.0012315655   0.0001733729  -0.0003456339   0.0003282257  -0.0004314141
       -0.0002826347  -0.0000679041   0.0002323733  -0.0001034710  -0.0003503507
       -0.0000020306   0.0004635959   0.0002318954  -0.0002129063  -0.0001804864
        0.0003156227   0.0002783161   0.0006909413  -0.0001063722  -0.0003533281
       -0.0003793867  -0.0007085830  -0.0000437212  -0.0003508852   0.0007815001
        0.0003682144   0.0003850189  -0.0000841830  -0.0002856163   0.0000221231
        0.0004063261   0.0001574875  -0.0002497651  -0.0002426400   0.0000492164
        0.0001800205  -0.0003321629  -0.0001512914   0.0000892629  -0.0000579915
        0.0004821038   0.0003347940  -0.0015997600  -0.0001362752   0.0025359271
       -0.0000833503   0.0002808213  -0.0063397502   0.0105675567  -0.0008644853
        0.0050093991  -0.0061812011   0.0008894011  -0.0025746943   0.0032895400
        0.0000239255   0.0021632675   0.0000071142  -0.0001397067   0.0001135848
        0.0015503731   0.0000566380   0.0015342412  -0.0018860081   0.0000420215
       -0.0010125788   0.0012664286  -0.0000551597   0.0002664007   0.0001119289
       -0.0004177350   0.0001253147   0.0002883678   0.0001294582  -0.0003715961
        0.0003186551  -0.0000439529   0.0000595077  -0.0004656315  -0.0001672655
        0.0003837548   0.0001399167   0.0003091661  -0.0002886240  -0.0008251323
       -0.0003951239  -0.0005774860   0.0007115708  -0.0000179557   0.0008537462
        0.0001448609   0.0004295313  -0.0002128023  -0.0003594478  -0.0002924116
        0.0004249900  -0.0001571222   0.0001973024  -0.0002288192   0.0004334438
        0.0000255384  -0.0003135959  -0.0000593906  -0.0001372472  -0.0002236372
       -0.0002087451   0.0004413418  -0.0016095826   0.0002406065  -0.0001570320
       -0.0004068388  -0.0022237502   0.0003832949  -0.0086480193   0.0011765170
       -0.0003790561  -0.0002953552  -0.0025509756  -0.0002993134   0.0003478764
        0.0011348625   0.0002542284   0.0027351645  -0.0570245875  -0.0070643235
        0.0040844270   0.0000508182  -0.0000888052  -0.0012361560   0.0009377030
       -0.0009179818   0.0009368963   0.0005409570  -0.0001278831  -0.0018185676
        0.0001280149   0.0000633922   0.0014691726  -0.0001049147   0.0000688447
       -0.0000496668  -0.0002536836   0.0001432502   0.0000758373  -0.0001390316
       -0.0000119543   0.0001319594  -0.0000208841  -0.0000024411  -0.0001542933
        0.0001352371   0.0000584339  -0.0000732207  -0.0002718711  -0.0001016650
       -0.0001480656   0.0004934085   0.0001236279   0.0004404203  -0.0000664726
       -0.0000158446  -0.0000803731  -0.0003973850  -0.0001216991  -0.0000839525
        0.0002054429   0.0001051718  -0.0002693767  -0.0002382566  -0.0000760399
        0.0001226266   0.0000058268   0.0000260229   0.0000474249   0.0000313064
        0.0000372135  -0.0002533742   0.0004464992  -0.0001368079   0.0008185687
       -0.0006756833   0.0000857016  -0.0008975909  -0.0014091151   0.0003961420
       -0.0004897435  -0.0004398115   0.0018899806  -0.0001337081  -0.0002181543
        0.0000160217  -0.0001591025   0.0000935524  -0.0000066681   0.0000044994
       -0.0001098214  -0.0000507347  -0.0000148321  -0.0000296247  -0.0000141541
       -0.0000320162  -0.0000172324   0.0000004358  -0.0000369619  -0.0000223331
        0.0000141067  -0.0000415441   0.0000163512   0.0000272004  -0.0000446236
        0.0000525474   0.0000175555  -0.0000480905   0.0001142368  -0.0000031861
       -0.0001722097  -0.0001053389   0.0001057199   0.0001594415   0.0001696015
        0.0002772622   0.0000291362  -0.0001198724  -0.0001439699  -0.0001472063
        0.0000630238  -0.0000295262   0.0000521442  -0.0000064556   0.0000541182
       -0.0000440626  -0.0000433324  -0.0000119741  -0.0000555582   0.0000034088
       -0.0000217208  -0.0000375844   0.0000421033  -0.0000005732  -0.0000360722
        0.0000421096   0.0000089758   0.0000069333   0.0000491856   0.0000305252
        0.0000478755   0.0000232242   0.0000234537  -0.0000095825  -0.0000582481
       -0.0000350723  -0.0000189724   0.0001558463   0.0000216567   0.0001630836
        0.0000714467   0.0000799490  -0.0003662386   0.0000634838  -0.0003874869
        0.0001877264  -0.0000204730   0.0000642706  -0.0000750088   0.0000345971
       -0.0000100529  -0.0000201683   0.0000481329   0.0000058155   0.0000031889
        0.0000314547   0.0000120367   0.0000273759   0.0000196181   0.0000130467
        0.0000176562   0.0000112293  -0.0000025457   0.0000323906  -0.0000092677
       -0.0000033771   0.0001092091  -0.0000717652  -0.0000150789   0.0000741695
        0.0002034612   0.0000263894   0.0001192331   0.0001662268   0.0000163987
       -0.0000661685   0.0001763277   0.0001336239
        0.1547100664  -0.2379322526  -0.1046069766  -0.1820852149   0.2814796505
        0.1575026102   0.0225886701  -0.0354236883  -0.0576915055   0.0055725617
       -0.0031166421  -0.0023562224  -0.0006890298  -0.0003108034  -0.0016370011
        0.0018243649   0.0003068448   0.0002317511  -0.0006584669   0.0001061548
        0.0000075580   0.0004150481   0.0005158408   0.0001038892  -0.0002986600
       -0.0004717469  -0.0000674530  -0.0001477700   0.0002020475  -0.0000312769
       -0.0000615858  -0.0000134383   0.0000147176  -0.0000417519  -0.0000686022
        0.0000053714   0.0001226194   0.0000486181  -0.0000623020  -0.0000621862
        0.0000824859   0.0000746055   0.0001774104  -0.0000513717  -0.0000869515
       -0.0000994736  -0.0001869537  -0.0000201799  -0.0001054950   0.0001968994
        0.0001048202   0.0001036990  -0.0000335814  -0.0000798251  -0.0000072843
        0.0001018587   0.0000431970  -0.0000422526  -0.0000594427  -0.0000017752
        0.0000267685  -0.0000559624  -0.0000302986   0.0001355942  -0.0000214319
        0.0000538696  -0.0000533386  -0.0002927627   0.0000070706   0.0003510051
       -0.0002246878  -0.0001069616   0.0007569639   0.0017937639   0.0073581895
        0.0006686142  -0.0006617185  -0.0003961310  -0.0002731502   0.0004811509
       -0.0023562983   0.0006450227  -0.0002655905  -0.0000391107   0.0001143923
        0.0004210813   0.0000539356   0.0002288945  -0.0004223487   0.0000613844
       -0.0001868332   0.0002302911  -0.0000557345   0.0000497468   0.0000197334
       -0.0000827556   0.0000233131   0.0000723254   0.0000295585  -0.0000760180
        0.0000650692  -0.0000098318   0.0000108679  -0.0000950985  -0.0000357577
        0.0000775140   0.0000303776   0.0000624060  -0.0000535190  -0.0001592335
       -0.0000676333  -0.0001206478   0.0001340325  -0.0000108032   0.0001768702
        0.0000226947   0.0000859796  -0.0000424696  -0.0000721705  -0.0000589849
        0.0000824087  -0.0000287780   0.0000385481  -0.0000418612   0.0000864742
        0.0000051093  -0.0000754810  -0.0000092973  -0.0000333748  -0.0000406047
       -0.0000207934   0.0001065941  -0.0001472609   0.0001276329   0.0000581194
       -0.0003142486  -0.0001708570  -0.0000204434  -0.0013864952   0.0008348799
        0.0090900731  -0.0003443524  -0.0003506934   0.0006644866   0.0001742059
        0.0002855979  -0.0001815446  -0.0014387700  -0.0080366232  -0.0011165884
        0.0008404975   0.0002949245  -0.0031287645  -0.0010674055  -0.0003302372
        0.0004637759   0.0001969789   0.0006305536  -0.0001680952  -0.0005819824
        0.0000169704   0.0000724087   0.0005980854   0.0000015617  -0.0000925222
       -0.0000588297  -0.0001495870   0.0000460901   0.0000296624  -0.0000363315
       -0.0000117906   0.0000462544  -0.0000099094  -0.0000068113  -0.0000543053
        0.0000533192   0.0000182433  -0.0000226085  -0.0000995088  -0.0000409931
       -0.0000422889   0.0001641273   0.0000486118   0.0001472904  -0.0000090946
       -0.0000127509  -0.0000253469  -0.0001535401  -0.0000368869  -0.0000253953
        0.0000835187   0.0000326104  -0.0000898457  -0.0000814269  -0.0000302846
        0.0000399650   0.0000017015  -0.0000049250   0.0000278910   0.0000241899
       -0.0000231446  -0.0001028660   0.0001910193  -0.0000302466   0.0003377484
       -0.0000234261   0.0000270115   0.0003474106  -0.0003862866  -0.0000459364
        0.0001398274   0.0005358613  -0.0007369285  -0.0000312947   0.0000509476
       -0.0000156259  -0.0000462365   0.0000289357   0.0000426796   0.0000078328
       -0.0000385655  -0.0000131078  -0.0000042139  -0.0000144801  -0.0000035230
       -0.0000088736  -0.0000106422   0.0000006150  -0.0000134511  -0.0000072910
        0.0000072276  -0.0000143500   0.0000024938   0.0000100286  -0.0000125660
        0.0000133840   0.0000099381  -0.0000019517   0.0000156715   0.0000019673
       -0.0001013067  -0.0000191178   0.0000297571  -0.0000838384   0.0000474099
       -0.0000345180  -0.0000206934  -0.0000824716  -0.0000125710  -0.0000116516
       -0.0000054961  -0.0000092123   0.0000102378  -0.0000029239   0.0000144721