$hessian                                                                        
        0.4846498897  -0.0075953597  -0.0300286393  -0.1428625543  -0.0149972866
       -0.0647806694  -0.0022955407  -0.0039456323  -0.0035224968   0.0003110837
        0.0000423157   0.0000669906  -0.0000676718   0.0001111597  -0.0000408420
        0.0001113741  -0.0000199770  -0.0000613196   0.0000410407   0.0000310207
        0.0000402380   0.0000586859   0.0000235470  -0.0000169110  -0.0000588968
       -0.0000388441   0.0000216562   0.0000348423   0.0000794048  -0.0000209801
        0.0000027325  -0.0000155936   0.0000031913   0.0000150935   0.0000112939
       -0.0000049698  -0.0000022313  -0.0000007870   0.0000016230   0.0000114715
        0.0000082529  -0.0000039007  -0.0000296113   0.0000013860   0.0000090377
       -0.0000026121  -0.0000118399   0.0000024855  -0.0000008699   0.0000071286
        0.0000009729   0.0000200751  -0.0000233713   0.0000002071  -0.0000216529
        0.0000199918   0.0000049146   0.0000218174  -0.0000529709  -0.0000007005
        0.0000001600  -0.0000179425  -0.0000017683   0.0000764728   0.0000615492
        0.0000075576  -0.0000641148  -0.0000198577  -0.0000086641   0.0000559492
       -0.0000004669   0.0000064954  -0.0000061383  -0.0000043765   0.0000010387
       -0.0000118046  -0.0000161406   0.0000055357   0.0000863169   0.0000281644
        0.0000002155  -0.0000278885  -0.0000333821   0.0000077505   0.0000078507
        0.0000106695   0.0000003743   0.0000313947   0.0000431415   0.0000023228
       -0.0000090398  -0.0000487280   0.0000174784   0.0000486461   0.0000279876
        0.0000124972   0.0000337252  -0.0000041029  -0.0000400155   0.0000473333
        0.0000041981  -0.0000615252   0.0000366909  -0.0001091541   0.0000590693
       -0.0000762220   0.0000639645  -0.0000433522  -0.0000146590  -0.0000451556
       -0.0000069803   0.0000483379  -0.0001005874  -0.0000016506  -0.0000088920
       -0.0000214051   0.0000050141   0.0000556152  -0.0000965872   0.0000237518
        0.0000172120   0.0000048742   0.0000145592   0.0000315540  -0.0000289804
        0.0000170986   0.0000243587  -0.0000104660   0.0000130276   0.0000030134
       -0.0000085928  -0.0000032328  -0.0000771441   0.0000190447  -0.0000030761
        0.0000738242  -0.0000243914   0.0000026355  -0.0000663771   0.0000201542
       -0.0000015198   0.0000117607   0.0000070147   0.0000010281  -0.0000575840
        0.0000153973   0.0000015614   0.0000158457  -0.0000092871  -0.0000022504
        0.0000345094   0.0000340900  -0.0000138982   0.0000157573  -0.0000421756
       -0.0000018666  -0.0432291508   0.0093197623   0.0047638584  -0.0458264693
       -0.0126047549   0.0178099011  -0.2256896739   0.0324898195   0.0948950749
       -0.0001094162   0.0004808672  -0.0022532984  -0.0267938658  -0.0042436274
       -0.0179922890   0.0001962896   0.0003794898   0.0002000286   0.0012642742
        0.0008789845   0.0007069527  -0.0000201293   0.0000892796   0.0000275739
       -0.0000317737  -0.0001678658   0.0001733683   0.0002675967   0.0000165529
       -0.0000142199   0.0001356849  -0.0000998306   0.0000108537  -0.0000707758
        0.0000003787  -0.0000249845  -0.0000339744  -0.0000587609   0.0000368420
        0.0000259085  -0.0000097624  -0.0000281802  -0.0000260178  -0.0000243659
        0.0000020326  -0.0000123000  -0.0000072478  -0.0000073925   0.0000046017
       -0.0000073319   0.0000165831  -0.0000027027  -0.0000006819  -0.0000004642
       -0.0000000687  -0.0000114595   0.0000013204  -0.0000057436  -0.0000097627
        0.0000026722  -0.0000092626  -0.0000038675   0.0000031184  -0.0000138223
       -0.0000029788   0.0000031286  -0.0000006845   0.0000012347  -0.0000004773
       -0.0000020010  -0.0000016991   0.0000006035  -0.0000140433   0.0000117391
       -0.0000035945  -0.0000031036   0.0000111408  -0.0000023638  -0.0000015897
        0.0000018856   0.0000012550  -0.0000211450   0.0000072706  -0.0000008212
       -0.0000341352  -0.0000038539   0.0000038709  -0.0000262457   0.0000185213
       -0.0000008948   0.0000017455  -0.0000044439   0.0000195844  -0.0000088290
        0.0000275881   0.0000098636   0.0000037836  -0.0000018943   0.0000036289
       -0.0000002588   0.0000578893  -0.0000024096  -0.0000700540  -0.0000063926
        0.0000106575  -0.0000010779   0.0000283110  -0.0000136506  -0.0000057411
        0.0000200587  -0.0000056580  -0.0000344644   0.0000240990   0.0000370197
        0.0000207075   0.0000055168  -0.0000313334  -0.0000157148   0.0000122058
       -0.0000167246  -0.0000241717   0.0000207154  -0.0000104601  -0.0000109970
        0.0000199473   0.0000087518   0.0000030862   0.0000083344  -0.0000108261
       -0.0000097576   0.0000007246  -0.0000046418  -0.0000086198   0.0000060920
       -0.0000115714  -0.0000014432   0.0000046936   0.0000024115  -0.0000008916
        0.0000014003  -0.0000000881  -0.0000172188   0.0000075620  -0.0000020336
       -0.0000027904  -0.0000020700   0.0000004841   0.0000004016  -0.0000024383
       -0.0000001625   0.0000002486  -0.0000026659   0.0000015675  -0.0000004603
       -0.0000011321   0.0000001026  -0.0000066728  -0.0000054856   0.0000063312
       -0.0075953597   0.5215451449  -0.0062707406  -0.0156568927  -0.0675479012
       -0.0118260044  -0.0198187787  -0.0095371339  -0.0195916931   0.0000399234
       -0.0049387743  -0.0019526390   0.0001188114  -0.0000906131  -0.0001541048
        0.0000187914   0.0000413669   0.0000513067   0.0000091286  -0.0000117360
        0.0000060160   0.0000123008   0.0000026587   0.0000306598  -0.0000416893
        0.0000195039   0.0000168430  -0.0000002814   0.0000159100  -0.0000111090
        0.0000077834  -0.0000102096   0.0000002785   0.0000056702   0.0000049749
       -0.0000038877  -0.0000036334  -0.0000004076  -0.0000020377  -0.0000035937
       -0.0000045250   0.0000001670  -0.0000028697   0.0000046953  -0.0000026645
       -0.0000187353  -0.0000050282   0.0000070062   0.0000045459  -0.0000029331
       -0.0000015572   0.0000138777  -0.0000131902  -0.0000006266  -0.0000133844
        0.0000437075   0.0000058791  -0.0000185409  -0.0000618054  -0.0000070767
        0.0000224367   0.0000494114   0.0000105516  -0.0000439509  -0.0000531383
       -0.0000065413   0.0000574710   0.0000240723   0.0000127419  -0.0000355834
        0.0000046966  -0.0000044350  -0.0000126358  -0.0000054267   0.0000008809
        0.0000070385  -0.0000022610   0.0000020596  -0.0000779161   0.0000167881
       -0.0000168077   0.0000113878   0.0000194825  -0.0000052643  -0.0000024413
       -0.0000052559   0.0000021374   0.0000031834  -0.0000119737   0.0000021541
        0.0000091500  -0.0000232322   0.0000160063   0.0000081100  -0.0000276974
        0.0000125753  -0.0000329412  -0.0000906491  -0.0000375511  -0.0000321402
       -0.0000253152   0.0000405628  -0.0000049612  -0.0000178987   0.0000156760
        0.0000781268   0.0000090461  -0.0000073295  -0.0000824777  -0.0000179553
        0.0000314549  -0.0001290395   0.0000829966  -0.0000562139  -0.0000717168
        0.0000063778  -0.0000497687  -0.0000201518  -0.0000110570   0.0000055288
       -0.0000089788   0.0000018740  -0.0000118612  -0.0000015931  -0.0000155480
        0.0000012462  -0.0000008305   0.0000041925  -0.0000010949  -0.0000023335
       -0.0000006337   0.0000018127   0.0000365122   0.0000077558   0.0000042233
       -0.0000250166  -0.0000243347  -0.0000035691   0.0000068696   0.0000015616
        0.0000023924  -0.0000013583  -0.0000044595  -0.0000001594  -0.0000032048
        0.0000224745   0.0000018123   0.0000013496   0.0000018924  -0.0000001403
       -0.0000006314   0.0000059190   0.0000043604   0.0000341613  -0.0000393848
       -0.0000132906   0.0091038343  -0.2572258193  -0.0725288243  -0.0123973412
       -0.1360690611   0.1153758744   0.0328583466  -0.0509428145  -0.0160011488
        0.0131653081   0.0024518485   0.0127513342   0.0027427418   0.0013080193
        0.0023387625  -0.0005082753   0.0006890615  -0.0008844011  -0.0010212462
        0.0007195413   0.0000124901  -0.0009529260  -0.0004566753  -0.0012564810
        0.0000303338  -0.0000727549  -0.0000421985  -0.0000313326   0.0000409885
        0.0000435660  -0.0001069125   0.0000440693   0.0000400960  -0.0000264368
       -0.0000019577  -0.0000844437   0.0000223597   0.0000678133  -0.0000042657
       -0.0000203841   0.0000103093  -0.0000108567  -0.0000146595  -0.0000104235
       -0.0000067098   0.0000114758   0.0000149212  -0.0000037371   0.0000159699
       -0.0000066560  -0.0000053879   0.0000001945   0.0000049344  -0.0000056395
       -0.0000004543  -0.0000005542  -0.0000039907  -0.0000039244  -0.0000021916
       -0.0000031128  -0.0000040141   0.0000011135  -0.0000018855  -0.0000034184
        0.0000008127  -0.0000016862  -0.0000027432  -0.0000026378  -0.0000029241
        0.0000008102   0.0000044124   0.0000001010   0.0000087264  -0.0000027454
        0.0000041945   0.0000066471  -0.0000027797   0.0000041578   0.0000003555
        0.0000008191  -0.0000030861   0.0000059665   0.0000100734  -0.0000047372
        0.0000016247   0.0000194114  -0.0000117070  -0.0001046542   0.0000058524
        0.0000341697   0.0002310675   0.0000503666  -0.0001066371   0.0000152038
       -0.0000033679  -0.0000195616   0.0000526740  -0.0000204849  -0.0000285239
        0.0000420309  -0.0000336894   0.0000333785   0.0000949348   0.0000421341
        0.0001107338   0.0000226685  -0.0000136621   0.0000154799   0.0000070184
        0.0000132249   0.0000075593  -0.0000217597   0.0000078101  -0.0000204639
        0.0000016529   0.0000109345   0.0000067320   0.0000038962   0.0000020308
        0.0000069764   0.0000146292  -0.0000025949   0.0000048973  -0.0000041178
       -0.0000012248  -0.0000004397   0.0000014474   0.0000028996  -0.0000017859
        0.0000090011   0.0000051673   0.0000049020   0.0000009221   0.0000009180
        0.0000022414  -0.0000005205   0.0000037342   0.0000023065   0.0000013402
        0.0000007373  -0.0000001463   0.0000051204   0.0000004565   0.0000016145
        0.0000008337   0.0000007706   0.0000008250   0.0000001417   0.0000009892
        0.0000004184   0.0000005790   0.0000003770   0.0000007431   0.0000004422
        0.0000032984  -0.0000027042   0.0000018541  -0.0000037803  -0.0000042332
       -0.0300286393  -0.0062707406   0.4937114450  -0.0646184634  -0.0111531851
       -0.1232724060  -0.0093834882  -0.0070491127  -0.0101189146   0.0001857739
       -0.0021921377  -0.0007008463   0.0000748784   0.0001519080  -0.0000329108
       -0.0000217384   0.0000627323  -0.0000465974  -0.0000015456  -0.0000108724
        0.0000071128   0.0000121676   0.0000161160  -0.0000310701  -0.0000313923
       -0.0000141236   0.0000046945   0.0000174980   0.0000377133  -0.0000093563
        0.0000013333  -0.0000090687  -0.0000056684   0.0000075138   0.0000068028
       -0.0000061091  -0.0000045066   0.0000010267  -0.0000034062   0.0000047866
        0.0000010855  -0.0000021702  -0.0000131046  -0.0000001967   0.0000005643
       -0.0000019392  -0.0000082032   0.0000042422  -0.0000066640   0.0000052523
       -0.0000021347   0.0000189449  -0.0000150206  -0.0000007311  -0.0000050743
        0.0000416202   0.0000041466  -0.0000318312  -0.0000984755  -0.0000047196
        0.0000259516   0.0000461648   0.0000155194  -0.0000465768  -0.0000222202
       -0.0000082980   0.0000914077   0.0000113053   0.0000175728  -0.0000483416
       -0.0000069747  -0.0000039021   0.0000233041   0.0000058813   0.0000078851
       -0.0000000036   0.0000213804  -0.0000030485  -0.0000773750  -0.0000353069
        0.0000098115   0.0000297214   0.0000390034  -0.0000088863  -0.0000192289
       -0.0000184813   0.0000022314  -0.0000511787  -0.0000771530   0.0000275495
        0.0000011985   0.0000796798  -0.0000257555  -0.0000607324  -0.0000434603
        0.0000089790  -0.0001168126  -0.0000449950  -0.0000118520  -0.0001177493
       -0.0000463059  -0.0000681543  -0.0000266291   0.0002662369  -0.0000767322
        0.0000633447  -0.0001543438   0.0000467768   0.0000125178   0.0000423181
       -0.0000494367  -0.0000092736  -0.0000265781  -0.0000460187  -0.0000224673
       -0.0000111527  -0.0000264826   0.0000608689  -0.0000801370  -0.0000203285
        0.0000043382   0.0000138087   0.0000092186   0.0000285120  -0.0000211909
        0.0000003911   0.0000172700  -0.0000059798   0.0000070185   0.0000036443
       -0.0000014857  -0.0000059575   0.0000281004   0.0000048223   0.0000118359
       -0.0000368258  -0.0000194683  -0.0000045964   0.0000040505  -0.0000008945
        0.0000023770   0.0000027320   0.0000004373  -0.0000029145  -0.0000119801
        0.0000302211   0.0000025279   0.0000100978  -0.0000038087  -0.0000009447
        0.0000186612   0.0000221536  -0.0000025472   0.0000168389  -0.0000258871
       -0.0000028210   0.0046759614  -0.0724559690  -0.0681597424   0.0177812438
        0.1150706846  -0.1867197967   0.0950726739  -0.0161645600  -0.0922940213
       -0.0203158209  -0.0017100296  -0.0205313640   0.0073052085   0.0012575016
        0.0072037927   0.0003275222   0.0006413757   0.0008690669  -0.0006807022
        0.0004477007   0.0002278769  -0.0004842440  -0.0002905540  -0.0003843253
        0.0000594596  -0.0001925966   0.0003216165  -0.0000914354  -0.0001175523
       -0.0001181952   0.0000055667  -0.0000021045   0.0000860201   0.0000167710
       -0.0000326245   0.0000328487   0.0000038680   0.0000190699   0.0000253474
       -0.0000093697  -0.0000090329   0.0000008403  -0.0000156146  -0.0000071850
        0.0000183947   0.0000056746   0.0000077115   0.0000067911   0.0000098255
       -0.0000075557   0.0000100023   0.0000012988   0.0000026214  -0.0000002803
        0.0000012011  -0.0000035490  -0.0000030550  -0.0000019342  -0.0000041883
       -0.0000015103  -0.0000045748  -0.0000014798  -0.0000021219  -0.0000051932
       -0.0000025722   0.0000009331  -0.0000112805  -0.0000088956  -0.0000038674
       -0.0000060083   0.0000260547  -0.0000032675   0.0000064627  -0.0000056770
        0.0000052622  -0.0000014543  -0.0000089803   0.0000043426   0.0000032895
       -0.0000022938  -0.0000029609   0.0000408773  -0.0000027932   0.0000078891
        0.0000416096   0.0000177637   0.0000012478   0.0001692189  -0.0000786493
        0.0000083494   0.0001788886   0.0000488464  -0.0000225770  -0.0000097183
       -0.0000040448   0.0000303765   0.0000183471   0.0000125827   0.0000130861
       -0.0000057896  -0.0000298740   0.0000294191   0.0000431423   0.0000532239
       -0.0000181478  -0.0000015222   0.0000198481   0.0000052498  -0.0000051675
       -0.0000138678   0.0000398840   0.0000010086   0.0000301377   0.0000201063
       -0.0000191160   0.0000119864  -0.0000069448  -0.0000039758  -0.0000020731
        0.0000097341  -0.0000230505   0.0000202201  -0.0000048318  -0.0000061205
        0.0000185263   0.0000048561  -0.0000084308   0.0000012338  -0.0000005981
       -0.0000050249   0.0000022657  -0.0000022869  -0.0000017398   0.0000038950
        0.0000010935   0.0000001636   0.0000059801   0.0000004824  -0.0000052598
       -0.0000004000   0.0000034690  -0.0000113620   0.0000058444   0.0000007731
       -0.0000007808  -0.0000001646   0.0000007788   0.0000003729   0.0000005314
        0.0000009555  -0.0000003446  -0.0000023207   0.0000005409   0.0000017175
        0.0000012274  -0.0000035594  -0.0000082328  -0.0000059551  -0.0000041550
       -0.1428625543  -0.0156568927  -0.0646184634   0.5079656870  -0.0080509258
       -0.0308324081  -0.0663053635   0.0060729294   0.0053905555  -0.0003662268
       -0.0182838026  -0.0087249149   0.0002831232   0.0003941968   0.0001516258
       -0.0001360697   0.0001739561  -0.0001140564   0.0000341260   0.0000243400
        0.0000350700   0.0000731149   0.0000484245   0.0000562766  -0.0000713851
       -0.0000407489   0.0000539734   0.0000280884   0.0000758123  -0.0000354779
       -0.0000075159  -0.0000114359   0.0000090271   0.0000141310   0.0000128385
       -0.0000044053  -0.0000064459   0.0000053566   0.0000009001   0.0000149203
        0.0000109467  -0.0000044553  -0.0000312079   0.0000060945   0.0000085787
       -0.0000095980  -0.0000140028   0.0000034905   0.0000032324   0.0000080503
        0.0000021615   0.0000192714  -0.0000125878  -0.0000080477  -0.0000270382
        0.0000273636   0.0000091575   0.0000043666  -0.0000374095  -0.0000095940
        0.0000147119  -0.0000089985   0.0000062502   0.0000314391   0.0000323306
       -0.0000049148  -0.0000430433  -0.0000061630  -0.0000002783   0.0000320864
       -0.0000347170   0.0000119551   0.0000370475  -0.0000000735   0.0000048712
       -0.0000225638   0.0000006277   0.0000030023   0.0000779118  -0.0000171176
        0.0000517669  -0.0000137763  -0.0000049834  -0.0000066173   0.0000013472
       -0.0000049352  -0.0000033818  -0.0000290638  -0.0000004737   0.0000124484
       -0.0000015372  -0.0000269220   0.0000161068  -0.0000097854  -0.0000839213
        0.0000604578   0.0000134867  -0.0001052360  -0.0001796351   0.0000335618
       -0.0000303135  -0.0002554157  -0.0000325547   0.0003044864   0.0000323098
       -0.0000862909  -0.0001297744  -0.0000601367   0.0000237319   0.0000299014
       -0.0000102437   0.0000003177  -0.0002051169   0.0000359536   0.0000041705
       -0.0000566989   0.0000274230   0.0001303828  -0.0002044422   0.0000264002
        0.0000596257  -0.0000257603   0.0000562397   0.0000434771  -0.0000286145
        0.0000205984   0.0000455494  -0.0000259526   0.0000327066   0.0000087609
       -0.0000102417  -0.0000003703  -0.0000435568   0.0000071492   0.0000001967
        0.0000609178  -0.0000249585  -0.0000036513  -0.0000452534   0.0000125713
       -0.0000023168   0.0000097366   0.0000085597  -0.0000027448  -0.0000296238
        0.0000183668   0.0000013978   0.0000227066  -0.0000034596   0.0000037071
        0.0000295089   0.0000310261   0.0000147732   0.0000174414  -0.0000558602
       -0.0000200575  -0.0011188578  -0.0016550848  -0.0017500224   0.0004752415
        0.0016020602  -0.0022862949  -0.0269925118  -0.0036335152  -0.0174080506
       -0.0475314999  -0.0133157400   0.0203909335  -0.2173559806   0.0337645803
        0.0945573239   0.0007622085  -0.0044142326  -0.0013016688  -0.0044535101
        0.0265307209   0.0101066586  -0.0020736480  -0.0016780861  -0.0033778986
        0.0004602381  -0.0005453984   0.0006551893  -0.0009556139  -0.0009806168
       -0.0007548247  -0.0000000236  -0.0001450257  -0.0000610011   0.0000555000
       -0.0001293280   0.0000114747   0.0000357865  -0.0000475658   0.0000868079
       -0.0000667169  -0.0000137764  -0.0000215496  -0.0000378602  -0.0000303933
        0.0000227868   0.0000111530   0.0000165043  -0.0000127417   0.0000123333
       -0.0000209345  -0.0000062984   0.0000020145  -0.0000032038  -0.0000041826
       -0.0000007003  -0.0000064836  -0.0000005698  -0.0000027216  -0.0000060730
       -0.0000012143  -0.0000078378  -0.0000046697  -0.0000003368  -0.0000107412
       -0.0000021921  -0.0000013122   0.0000091851   0.0000092740  -0.0000048831
        0.0000014089  -0.0000161105  -0.0000033053  -0.0000095585   0.0000055552
       -0.0000013315  -0.0000030749   0.0000054283   0.0000011804  -0.0000129571
        0.0000025813  -0.0000009429   0.0000012666   0.0000057631   0.0000065300
       -0.0000108292   0.0000012149   0.0000077814   0.0000130623  -0.0000930700
        0.0000808630   0.0000516746   0.0001430029   0.0000383729   0.0000153073
        0.0000088041   0.0000450565   0.0000174847   0.0000344187   0.0000201235
       -0.0000125256  -0.0000131469   0.0000102596   0.0000551675   0.0002405891
       -0.0001496590  -0.0000057596   0.0000487934  -0.0000209900  -0.0000025418
        0.0000060611   0.0000186381  -0.0000045429   0.0000850051  -0.0000108711
       -0.0000822116   0.0000630350  -0.0000110120  -0.0000119527   0.0000142774
       -0.0000116999  -0.0000371715   0.0000397748  -0.0000156288  -0.0000149796
        0.0000160756  -0.0000172021  -0.0000326549   0.0000088472  -0.0000075972
       -0.0000155609  -0.0000052142  -0.0000143680  -0.0000054535   0.0000024241
       -0.0000118700  -0.0000009075   0.0000092016  -0.0000029091  -0.0000097381
       -0.0000007085   0.0000018504  -0.0000156318   0.0000097470  -0.0000001958
       -0.0000008514  -0.0000033379  -0.0000033378  -0.0000006791   0.0000004152
       -0.0000022068  -0.0000011707   0.0000000382  -0.0000029736  -0.0000099540
        0.0000010937  -0.0000036876  -0.0000276277  -0.0000141671  -0.0000149865
       -0.0149972866  -0.0675479012  -0.0111531851  -0.0080509258   0.4761542662
       -0.0258516877   0.0078484779  -0.1808853385  -0.0368622009  -0.0042573423
       -0.0083174984  -0.0071818125  -0.0000361482   0.0000564626   0.0000973298
        0.0002069905  -0.0002595212   0.0000532315   0.0000570222   0.0000215317
       -0.0000178822   0.0000262164  -0.0000162073  -0.0000332601  -0.0000421900
        0.0000500093   0.0000055999  -0.0000157537   0.0000057692  -0.0000005020
        0.0000312913  -0.0000081554  -0.0000045527   0.0000129716   0.0000081869
       -0.0000042869  -0.0000005939  -0.0000008050  -0.0000006289  -0.0000086029
       -0.0000067049   0.0000034264   0.0000089203   0.0000014333  -0.0000030667
       -0.0000281838  -0.0000047005   0.0000094789   0.0000047833  -0.0000099925
       -0.0000001120   0.0000266089  -0.0000205547  -0.0000009486  -0.0000091023
        0.0000826719   0.0000104022  -0.0000625161  -0.0001474311  -0.0000162192
        0.0000537114   0.0001069745   0.0000216629  -0.0001076959  -0.0000958274
       -0.0000141948   0.0001606508   0.0000475205   0.0000295721  -0.0000902325
        0.0000192421  -0.0000155520  -0.0000197357  -0.0000034957   0.0000029631
        0.0000304948  -0.0000047549   0.0000084699  -0.0002295164   0.0000313283
       -0.0000653806   0.0000573178   0.0000742952  -0.0000120057  -0.0000188779
       -0.0000154998   0.0000035869   0.0000070593  -0.0000515617   0.0000144406
       -0.0000226679   0.0000033485  -0.0000021303   0.0000408876   0.0000262878
       -0.0000093803  -0.0000181921  -0.0001499992   0.0000823637  -0.0001876661
       -0.0001359748  -0.0000177520   0.0000337256  -0.0000273992  -0.0000327592
        0.0001789086   0.0000398791   0.0000635106  -0.0001529525  -0.0000217921
        0.0000901832  -0.0001908402   0.0003259743   0.0000058794  -0.0000699637
       -0.0000076522  -0.0000729187  -0.0000967466   0.0000730417  -0.0000617463
       -0.0000664477   0.0000187756  -0.0000427888  -0.0000128832  -0.0000373323
       -0.0000073234  -0.0000200486   0.0000132706  -0.0000189489  -0.0000092821
       -0.0000011994   0.0000020413   0.0000921054   0.0000151115   0.0000092901
       -0.0000892456  -0.0000402021  -0.0000095522   0.0000333851  -0.0000043196
        0.0000032637  -0.0000051361  -0.0000080755  -0.0000013525   0.0000027578
        0.0000471650   0.0000037301   0.0000016919   0.0000026973   0.0000014930
        0.0000014046  -0.0000012922   0.0000004889   0.0000568034  -0.0000540944
       -0.0000119080  -0.0216254277  -0.0071943529  -0.0198626948   0.0135612195
        0.0023344357   0.0127520542   0.0027460118   0.0008760421   0.0023089813
       -0.0137308493  -0.1313285089   0.1094687271   0.0338116196  -0.0500283603
       -0.0151859628   0.0004772329  -0.0256240595  -0.0040686129   0.0038680388
       -0.0102607396  -0.0055086801  -0.0007317078   0.0005270160  -0.0000929873
        0.0008255128   0.0012810978   0.0012323787  -0.0000012414   0.0000100986
       -0.0000659707   0.0002394561   0.0000643096   0.0000235123  -0.0001151394
       -0.0000727315  -0.0000384857  -0.0000319322   0.0000801305   0.0000732299
       -0.0000188282   0.0000162228   0.0000093231  -0.0000055900   0.0000170747
       -0.0000216338  -0.0000093300   0.0000098592   0.0000092997  -0.0000158602
       -0.0000022395  -0.0000047338  -0.0000132204   0.0000005571   0.0000010850
       -0.0000033908  -0.0000008280  -0.0000001306  -0.0000087730  -0.0000026497
        0.0000013026  -0.0000085172   0.0000014925   0.0000014049  -0.0000042439
        0.0000038272  -0.0000004439  -0.0000159816  -0.0000118130  -0.0000039638
       -0.0000027687   0.0000237603  -0.0000060116   0.0000196690  -0.0000087593
        0.0000050065   0.0000061553  -0.0000049694  -0.0000013003   0.0000049773
        0.0000028852  -0.0000068228   0.0000252687   0.0000278722  -0.0000116105
        0.0000203724   0.0000557137  -0.0000096921  -0.0000255067   0.0000879503
       -0.0000081900   0.0002062537   0.0000397450  -0.0000168830   0.0000326031
       -0.0000311294  -0.0000546192   0.0000180013   0.0000043588   0.0000086605
        0.0000515170  -0.0000711067  -0.0000176374   0.0001393239  -0.0001081016
       -0.0000945645   0.0000303220  -0.0000265080   0.0000572974   0.0000257190
       -0.0000312804   0.0000245841   0.0000840164  -0.0000308852   0.0000173311
        0.0000088522  -0.0000066319   0.0000242161   0.0000223245  -0.0000101999
        0.0000297138   0.0000240111  -0.0000075254   0.0000129582   0.0000118339
        0.0000183600   0.0000065567   0.0000073178   0.0000073269   0.0000047928
        0.0000175188   0.0000128779   0.0000121932   0.0000047986  -0.0000028465
        0.0000098713  -0.0000005619   0.0000034544   0.0000003527   0.0000026092
        0.0000004332  -0.0000009012   0.0000112421  -0.0000016039   0.0000008750
        0.0000005446   0.0000015180  -0.0000001322   0.0000003060   0.0000015195
       -0.0000005603   0.0000002852   0.0000009043   0.0000005100   0.0000037203
        0.0000061460  -0.0000071663   0.0000028053   0.0000108806  -0.0000021955
       -0.0647806694  -0.0118260044  -0.1232724060  -0.0308324081  -0.0258516877
        0.5070939644   0.0061821160  -0.0368137699  -0.0787727442  -0.0028188440
       -0.0190117107  -0.0109367989   0.0001401409  -0.0000258260   0.0000974069
        0.0001029910   0.0000528467  -0.0002353395   0.0000747128  -0.0000275154
        0.0000165926   0.0000563248   0.0000195536   0.0000000169  -0.0000489986
       -0.0000150947   0.0000022325   0.0000262865   0.0000563446  -0.0000073666
       -0.0000016798  -0.0000149385  -0.0000003597   0.0000095500   0.0000090779
       -0.0000024166  -0.0000041077   0.0000000644   0.0000012123   0.0000069586
       -0.0000001656   0.0000005331  -0.0000199145   0.0000036428   0.0000053162
       -0.0000022141  -0.0000128618   0.0000083706  -0.0000049996   0.0000100673
       -0.0000026167   0.0000164096  -0.0000171896   0.0000059047  -0.0000297924
        0.0000294740  -0.0000019949   0.0000260492  -0.0000194547   0.0000115778
       -0.0000107872   0.0000167175  -0.0000006424   0.0000116066  -0.0000317211
        0.0000004291  -0.0000114363   0.0000080844  -0.0000082382   0.0000058422
        0.0000081494  -0.0000007206  -0.0000115006   0.0000016346  -0.0000030585
        0.0000030762  -0.0000033104  -0.0000043505   0.0000254801   0.0000086719
        0.0000044970   0.0000029089  -0.0000191089   0.0000097471   0.0000041201
        0.0000048574   0.0000011705   0.0000469632   0.0000279991   0.0000021750
        0.0000327071   0.0000002929   0.0000039541  -0.0000645747   0.0000243003
       -0.0000421307  -0.0000583135   0.0000951322   0.0000145194  -0.0000373521
       -0.0000519122   0.0000315676  -0.0000417581  -0.0000627824  -0.0000417333
        0.0000119819  -0.0000066353  -0.0000200536   0.0000281870  -0.0000154311
       -0.0000714962   0.0000860022  -0.0000435284  -0.0001213927  -0.0000227044
       -0.0000171224  -0.0000323991   0.0000426470  -0.0000719386   0.0000135010
        0.0000387176  -0.0000010065   0.0000099282   0.0000289176  -0.0000065020
       -0.0000004742   0.0000248949  -0.0000115299   0.0000075430   0.0000081943
       -0.0000080187  -0.0000165266  -0.0000159494   0.0000131595   0.0000033685
        0.0000382806  -0.0000249095   0.0000047142  -0.0000246897   0.0000121769
       -0.0000005271   0.0000022835   0.0000004747  -0.0000004515  -0.0000283482
        0.0000153580  -0.0000002545   0.0000089032  -0.0000117745  -0.0000075506
        0.0000094102   0.0000225112  -0.0000163295   0.0000263220  -0.0000356214
        0.0000046175  -0.0092063584  -0.0041237264  -0.0085117317  -0.0197549948
       -0.0012621661  -0.0206628895   0.0069820509   0.0017932078   0.0081997773
        0.0208189417   0.1096993466  -0.1780142040   0.0936195749  -0.0148002021
       -0.0932706502  -0.0012199365   0.0211535267   0.0059137172   0.0033465148
       -0.0153792136  -0.0056043195  -0.0031600742  -0.0017152523  -0.0028784959
        0.0000294985  -0.0015228825   0.0005787307   0.0003862685  -0.0000614303
        0.0001637614   0.0000787635  -0.0000360945  -0.0000268050  -0.0001050290
        0.0000312764   0.0001549935  -0.0000194845  -0.0001107264  -0.0000402147
        0.0000268461   0.0000118282   0.0000025648  -0.0000408115  -0.0000275884
        0.0000389807   0.0000046241   0.0000018027  -0.0000006102   0.0000155350
       -0.0000092395   0.0000206989  -0.0000021806   0.0000051010   0.0000027239
        0.0000000525  -0.0000024221   0.0000023891  -0.0000019885  -0.0000029045
        0.0000042259  -0.0000042103  -0.0000000372   0.0000029390  -0.0000059122
       -0.0000011834   0.0000050878   0.0000060599   0.0000040235   0.0000011239
       -0.0000003737  -0.0000063092   0.0000026321  -0.0000032751   0.0000040086
       -0.0000013324  -0.0000007076   0.0000062493   0.0000014656   0.0000082448
       -0.0000013879   0.0000004152   0.0000035801  -0.0000116631   0.0000082352
        0.0000163946  -0.0000036957   0.0000015028   0.0001260182  -0.0000200372
       -0.0000418388   0.0001251045  -0.0000880820  -0.0000532127  -0.0000083495
        0.0000101774   0.0000088186   0.0000075270  -0.0000191361   0.0000013574
        0.0000028187   0.0000745639   0.0000438483  -0.0002004751  -0.0000531345
        0.0002283339   0.0000234315   0.0000041362  -0.0000065853  -0.0000075490
        0.0000468393  -0.0000128384  -0.0001088731   0.0000227818   0.0000170340