$hessian                                                                        
        0.0339832458  -0.0000329789  -0.0003335010  -0.0514086674  -0.0000378801
        0.0001968388   0.0106159584   0.0000051136   0.0001757238   0.0055752873
        0.0058765184  -0.0155890129   0.0020274712  -0.0004033243  -0.0003130048
        0.0002401144   0.0036227865  -0.0004171561  -0.0016047747  -0.0022809089
        0.0009618259  -0.0001802114   0.0001817084  -0.0002789164   0.0001411533
       -0.0004763052  -0.0003105642   0.0001533133   0.0000803398   0.0002022585
        0.0001155985  -0.0002216028  -0.0000430880  -0.0001893506   0.0000902292
       -0.0001743630   0.0000122298   0.0001508105   0.0001460504  -0.0003465766
       -0.0000037733  -0.0003829606   0.0003070586  -0.0003133685   0.0000759232
       -0.0001313553   0.0004631010   0.0002073369  -0.0000751110  -0.0000572798
       -0.0001869797  -0.0001365431   0.0002656979   0.0000597645   0.0002223355
       -0.0001134143   0.0001538514  -0.0000478516  -0.0001439155  -0.0002619141
        0.0002771387  -0.0000569080   0.0005110320   0.0014434392   0.0015141119
        0.0002098176  -0.0046192745   0.0006312007  -0.0003502176  -0.0046256744
       -0.0006568549   0.0003359926   0.0014615612  -0.0014966999  -0.0002055995
       -0.0016162169   0.0022690419  -0.0009640855  -0.0001810941  -0.0001849031
        0.0002777231   0.0002780528   0.0000581751  -0.0005105922  -0.0000492841
        0.0001429362   0.0002624697   0.0002223225   0.0001142379  -0.0001528365
       -0.0001344701  -0.0002675693  -0.0000600932  -0.0000760406   0.0000557198
        0.0001865627  -0.0001280949  -0.0004652333  -0.0002089140   0.0003070831
        0.0003159030  -0.0000756976  -0.0003486569   0.0000026176   0.0003819239
        0.0000133952  -0.0001504223  -0.0001471751  -0.0001890877  -0.0000907562
        0.0001725684   0.0001144461   0.0002234157   0.0000429542   0.0001541616
       -0.0000793509  -0.0002021412   0.0001373566   0.0004777139   0.0003122291
        0.0002629313  -0.0036075218   0.0004151409   0.0020562157   0.0004433891
        0.0003209352   0.0055863531  -0.0058446953   0.0155606533   0.0006323384
       -0.0001545754  -0.0002564868  -0.0001226166   0.0001570850   0.0001379239
       -0.0000429345  -0.0000735651  -0.0000276198  -0.0000129940  -0.0000105930
       -0.0000016216  -0.0000082297   0.0000028694   0.0000016276  -0.0000032969
        0.0000032430   0.0000007222  -0.0000099765  -0.0000023434  -0.0000004739
       -0.0000040612   0.0000009190   0.0000007065   0.0000105780   0.0000050452
        0.0000140615   0.0000153282  -0.0000067717   0.0000727253  -0.0002669947
        0.0003665687  -0.0003084733  -0.0002654515  -0.0003689983   0.0003070977
        0.0000152810   0.0000071326  -0.0000714719   0.0000107568  -0.0000059246
       -0.0000134498  -0.0000042262  -0.0000023651  -0.0000009773  -0.0000099355
        0.0000013863  -0.0000001538  -0.0000032343  -0.0000028497  -0.0000018679
       -0.0000081660  -0.0000020969  -0.0000029155  -0.0000131376   0.0000113356
        0.0000007977  -0.0000437509   0.0000733583   0.0000276452  -0.0001213656
       -0.0001569035  -0.0001364175   0.0006362020   0.0001589422   0.0002578584
       -0.0000329789   0.0721714931  -0.0892743417  -0.0000609188  -0.0740054143
        0.0971374871   0.0000466853   0.0110211909  -0.0343977996   0.0052832494
       -0.0021186044   0.0117511391  -0.0059785416   0.0015318859   0.0005561216
        0.0025169561  -0.0036658514   0.0005420761  -0.0001854807   0.0010185643
       -0.0003061873   0.0001261463   0.0000888075   0.0000803503  -0.0002340836
        0.0003404761   0.0000918561   0.0000213030  -0.0000478931  -0.0001107898
       -0.0001046307   0.0002011910  -0.0000018577   0.0001241609  -0.0001931061
        0.0000573518  -0.0000292578   0.0001024316   0.0000287448  -0.0000243319
       -0.0002582123  -0.0001814660   0.0002810473  -0.0002568985   0.0001243328
        0.0000198174   0.0001249654   0.0001091814  -0.0000114728   0.0000254479
        0.0000422971   0.0000952017  -0.0000524597   0.0000354881  -0.0000192607
        0.0000620612   0.0000005079  -0.0000285319  -0.0000062777  -0.0000157747
       -0.0001703643   0.0001399039  -0.0002532337   0.0012553944  -0.0018382638
        0.0002047095  -0.0000854722   0.0005077664   0.0000387749   0.0000520746
        0.0005080092   0.0000396972  -0.0012345626  -0.0018569855   0.0001995118
        0.0001694829   0.0010376069  -0.0003131659  -0.0001274784   0.0000871759
        0.0000815686   0.0001695191   0.0001416498  -0.0002544069   0.0000292718
       -0.0000062391  -0.0000148232   0.0000190997   0.0000621068   0.0000000448
       -0.0000949871  -0.0000531280   0.0000346646   0.0000113825   0.0000251994
        0.0000419435  -0.0000208500   0.0001248885   0.0001089035  -0.0002792497
       -0.0002583544   0.0001227499   0.0000266853  -0.0002570537  -0.0001819779
        0.0000287109   0.0001021441   0.0000284276  -0.0001225498  -0.0001934353
        0.0000563532   0.0001031595   0.0002009207  -0.0000015594  -0.0000196871
       -0.0000475263  -0.0001112189   0.0002318776   0.0003418789   0.0000928290
       -0.0024994557  -0.0037086842   0.0005369456   0.0060195022   0.0015992172
        0.0005768637  -0.0052694259  -0.0021981255   0.0118381156   0.0004179273
        0.0002070830   0.0004742205   0.0002008085  -0.0002856669  -0.0002965767
       -0.0000465870   0.0000768003   0.0000773091  -0.0000128156   0.0000050538
       -0.0000097180   0.0000020466  -0.0000331062  -0.0000003194   0.0000125612
       -0.0000281082   0.0000106511   0.0000130598  -0.0000155150   0.0000151758
        0.0000221556  -0.0000070522   0.0000216658   0.0000107343   0.0000041572
        0.0000284828  -0.0000575481  -0.0000588206  -0.0001089668   0.0001243688
       -0.0001334134   0.0002200714  -0.0001255363  -0.0001367603   0.0002210942
        0.0000583272  -0.0000592582  -0.0001095510  -0.0000108668   0.0000040165
        0.0000278290  -0.0000227104  -0.0000072420   0.0000207843  -0.0000131288
       -0.0000155373   0.0000143095  -0.0000120702  -0.0000279772   0.0000096734
       -0.0000014796  -0.0000329956  -0.0000007588   0.0000133919   0.0000065478
       -0.0000102108   0.0000460698   0.0000759677   0.0000776173  -0.0001985232
       -0.0002876917  -0.0002985303  -0.0004173402   0.0002050494   0.0004753133
       -0.0003335010  -0.0892743417   0.4685471816   0.0002517212   0.0805679597
       -0.4195000438   0.0000771418  -0.0046393818  -0.0348888242  -0.0040671642
        0.0056740755  -0.0052268377   0.0077141804  -0.0007343913  -0.0005196368
       -0.0029681673   0.0041508325  -0.0007995233   0.0001567749  -0.0016629423
        0.0003296054  -0.0002685635   0.0000903487   0.0000535365   0.0003439728
       -0.0006947239  -0.0003381817  -0.0001804645   0.0001987419   0.0001781153
        0.0001533100  -0.0003415051   0.0000085822  -0.0000916534   0.0002612770
        0.0000040256   0.0000597516  -0.0002210572  -0.0000439478   0.0001013883
        0.0004488977   0.0003200615  -0.0004532924   0.0005217536  -0.0001014035
       -0.0000565740  -0.0003095290  -0.0002995918   0.0000581312  -0.0000188973
        0.0000360529  -0.0001428081   0.0000903158  -0.0000399169   0.0000350182
       -0.0001203472   0.0000011898   0.0000297868   0.0000600918   0.0000992711
        0.0002586614  -0.0001749068   0.0003442283  -0.0001606851   0.0019890349
       -0.0003249280  -0.0026106874  -0.0028602301   0.0001507875   0.0026155352
       -0.0028489009   0.0001619702   0.0001540412   0.0019865761  -0.0003247901
       -0.0001501081  -0.0016617323   0.0003275310   0.0002676948   0.0000920528
        0.0000549298  -0.0002585055  -0.0001751437   0.0003409818  -0.0000295128
        0.0000599234   0.0001015638  -0.0000332789  -0.0001187236   0.0000004793
        0.0001406238   0.0000894419  -0.0000393092  -0.0000596393  -0.0000191932
        0.0000375916   0.0000577582  -0.0003118302  -0.0003012983   0.0004517645
        0.0005262703  -0.0000999162  -0.0001080114   0.0004459550   0.0003230080
       -0.0000587458  -0.0002219042  -0.0000452317   0.0000876801   0.0002599332
        0.0000064300  -0.0001501989  -0.0003396495   0.0000072969   0.0001794741
        0.0001988543   0.0001771250  -0.0003377620  -0.0006935250  -0.0003396522
        0.0029525599   0.0041643155  -0.0007894615  -0.0076952498  -0.0007770620
       -0.0005372946   0.0040706411   0.0056807417  -0.0052082936  -0.0002874040
       -0.0007120201  -0.0004409812  -0.0005212963   0.0004149193   0.0001808326
        0.0000277166  -0.0000591497  -0.0002278162   0.0000046251   0.0000774386
        0.0000419626   0.0000013232   0.0000388619  -0.0000028368  -0.0000079382
        0.0000300700  -0.0000147269  -0.0000168744   0.0000338399  -0.0000231660
       -0.0000149152   0.0000109769  -0.0000305128   0.0000176926  -0.0000182676
       -0.0000226943   0.0001248127  -0.0000170323   0.0000761205  -0.0002974566
        0.0005292667  -0.0004601331   0.0002940994   0.0005305302  -0.0004577984
       -0.0001251157  -0.0000195412   0.0000757615  -0.0000176971  -0.0000186132
       -0.0000227043   0.0000140716   0.0000108587  -0.0000305807   0.0000164260
        0.0000338693  -0.0000232035   0.0000076602   0.0000302825  -0.0000151926
       -0.0000017188   0.0000389153  -0.0000027312  -0.0000053450   0.0000795785
        0.0000416267  -0.0000270385  -0.0000611583  -0.0002276461   0.0005174455
        0.0004176349   0.0001820226   0.0002938884  -0.0007087352  -0.0004390647
       -0.0514086674  -0.0000609188   0.0002517212   0.3382014564  -0.0008298058
       -0.0005973907  -0.0511581255   0.0010770646   0.0007385409  -0.1043182350
        0.0413432993  -0.0153916521  -0.0309323438   0.0173773419  -0.0060763239
       -0.0017372394  -0.0213105623   0.0083173538   0.0082198722   0.0129193791
       -0.0051015869   0.0005660676  -0.0007915691   0.0002873031  -0.0004770281
        0.0009942264   0.0007174866  -0.0002424373  -0.0000937246  -0.0004120038
       -0.0002838778   0.0005240748   0.0000297027   0.0004860073  -0.0002084239
        0.0004358501  -0.0000169830  -0.0003701950  -0.0004434523   0.0007241413
        0.0000280446   0.0008441385  -0.0006388091   0.0005982788  -0.0001749169
        0.0002304700  -0.0010241120  -0.0003884644   0.0001854618   0.0002124791
        0.0005112949   0.0003988417  -0.0007305117  -0.0001996757  -0.0005929681
        0.0003257310  -0.0003733689   0.0001549349   0.0002602494   0.0006290305
       -0.0006288478   0.0003969318  -0.0010518818  -0.0039318567  -0.0054960600
        0.0016104725   0.0135926938   0.0149789698  -0.0061134324   0.0137326894
       -0.0147198528   0.0060763987  -0.0039928783   0.0054579425  -0.0016334981
        0.0082902820  -0.0128475181   0.0051122089   0.0005621736   0.0008000428
       -0.0002814316  -0.0006288700  -0.0003979815   0.0010458488   0.0001580599
       -0.0002614191  -0.0006302057  -0.0005921621  -0.0003287292   0.0003721582
        0.0003936718   0.0007332568   0.0002020405   0.0001897033  -0.0002093571
       -0.0005113930   0.0002241724   0.0010299357   0.0003928627  -0.0006437356
       -0.0006082758   0.0001766988   0.0007287616  -0.0000292659  -0.0008491155
       -0.0000195454   0.0003721476   0.0004447436   0.0004849331   0.0002086146
       -0.0004340022  -0.0002796952  -0.0005239288  -0.0000315425  -0.0002450529
        0.0000917820   0.0004119283  -0.0004661023  -0.0009941272  -0.0007208910
       -0.0018641343   0.0212232345  -0.0083067926  -0.0306911626  -0.0175612362
        0.0059934178  -0.1039576215  -0.0415476727   0.0151138010   0.0004571541
       -0.0000418348  -0.0000139145  -0.0000021195   0.0002409378  -0.0001855650
        0.0000430943   0.0001712361   0.0000653125   0.0000208358   0.0000269082
        0.0000017819   0.0000105521  -0.0000113915  -0.0000149327   0.0000039420
       -0.0000132615  -0.0000101562   0.0000405245   0.0000049244  -0.0000248973
        0.0000275826  -0.0000016094  -0.0000140761  -0.0000366116  -0.0000191889
       -0.0000642905  -0.0000319741   0.0000537974  -0.0001353346   0.0005906320
       -0.0011192256   0.0005280982   0.0005858179   0.0011264497  -0.0005234404
       -0.0000314142  -0.0000549085   0.0001328204  -0.0000374760   0.0000193368
        0.0000649207   0.0000269713   0.0000018180   0.0000141108   0.0000401678
       -0.0000048108   0.0000248678   0.0000035123   0.0000128978   0.0000103622
        0.0000100710   0.0000108761   0.0000148451   0.0000211841  -0.0000264950
       -0.0000020312   0.0000451673  -0.0001694972  -0.0000649210  -0.0000074721
       -0.0002467958   0.0001805317   0.0004438431   0.0000320570   0.0000239279
       -0.0000378801  -0.0740054143   0.0805679597  -0.0008298058   0.5855148215
        0.0441446659   0.0010549425  -0.3061429687  -0.1763421940   0.0241546546
       -0.0770841933   0.0150664069   0.0249814503  -0.0035687168  -0.0001337531
       -0.0097361861   0.0138032290  -0.0037409375  -0.0002349447  -0.0046035091
        0.0014718292  -0.0004380074  -0.0001567351  -0.0002697730   0.0006851577
       -0.0011385775  -0.0003038009  -0.0000936461   0.0002244997   0.0002873659
        0.0003959785  -0.0007484242   0.0000200132  -0.0003384496   0.0006226649
       -0.0001391008   0.0001381701  -0.0004637180  -0.0001279593   0.0002168717
        0.0009705648   0.0008174171  -0.0011288550   0.0009788900  -0.0005372685
       -0.0000649791  -0.0005503262  -0.0004390942   0.0001192482  -0.0001167743
       -0.0000584051  -0.0002543993   0.0000766859  -0.0001182647   0.0000596838
       -0.0001990029  -0.0000034685   0.0000529757   0.0001899135   0.0000688933
        0.0006001905  -0.0004464044   0.0010011409  -0.0050870152   0.0014914993
        0.0008252189   0.0095770043  -0.0321671209   0.0126904051  -0.0093133286
       -0.0323389956   0.0126985538   0.0050493221   0.0015619548   0.0008302560
        0.0003161027  -0.0046941635   0.0015077936   0.0004441610  -0.0001472791
       -0.0002710220  -0.0006041922  -0.0004517188   0.0010051687  -0.0000532093
        0.0001878062   0.0000665433  -0.0000615933  -0.0001990605  -0.0000015325
        0.0002538536   0.0000804775  -0.0001158004  -0.0001197812  -0.0001183998
       -0.0000596661   0.0000686664  -0.0005463041  -0.0004385013   0.0011205840
        0.0009832799  -0.0005318900  -0.0002241886   0.0009646806   0.0008153482
       -0.0001359951  -0.0004622937  -0.0001269242   0.0003344737   0.0006230214
       -0.0001376472  -0.0003913447  -0.0007496442   0.0000171586   0.0000897061
        0.0002240829   0.0002887896  -0.0006788486  -0.0011455042  -0.0003118160
        0.0096642530   0.0140130861  -0.0037644059  -0.0251620685  -0.0038529878
       -0.0001660112  -0.0243766318  -0.0775113162   0.0150908650  -0.0020872805
       -0.0002056185  -0.0006651049  -0.0011860661   0.0008843991   0.0002909944
        0.0001420668  -0.0002280700  -0.0001747425   0.0000333086  -0.0000027827
        0.0000401582  -0.0000108965   0.0001027603   0.0000100720  -0.0000498057
        0.0000950432  -0.0000312775  -0.0000466171   0.0000687004  -0.0000450440
       -0.0000758222   0.0000405949  -0.0000836143  -0.0000694523  -0.0000122513
       -0.0001488007   0.0001442705   0.0001898329   0.0002928019   0.0002546748
       -0.0003928437  -0.0000625963  -0.0002493005  -0.0003868739  -0.0000661326
       -0.0001472698   0.0001875519   0.0002935791   0.0000690225  -0.0000118943
       -0.0001478536   0.0000751516   0.0000408405  -0.0000829503   0.0000459756
        0.0000687347  -0.0000443149   0.0000486531   0.0000952646  -0.0000308294
        0.0000097389   0.0001027292   0.0000105905  -0.0000341659  -0.0000024998
        0.0000400204  -0.0001407345  -0.0002306315  -0.0001755770   0.0011785948
        0.0008899575   0.0002958662   0.0020838536  -0.0001945483  -0.0006578012
        0.0001968388   0.0971374871  -0.4195000438  -0.0005973907   0.0441446659
        0.6915606544   0.0007964859  -0.1927923940  -0.1868452786  -0.0094121748
        0.0146410592  -0.0428517489  -0.0087862123  -0.0000851933  -0.0032420757
        0.0034594968  -0.0034236980   0.0060495500   0.0002788291   0.0022309997
       -0.0004612894   0.0002291443  -0.0006487957  -0.0009547521  -0.0003039575
        0.0008322468   0.0005165818   0.0001978038  -0.0002649270  -0.0002536812
       -0.0001802258   0.0004086149  -0.0000268310   0.0001511821  -0.0002827517
        0.0000322711  -0.0000659607   0.0001007942  -0.0000755747   0.0000978800
       -0.0004742392   0.0000043649   0.0002540193  -0.0003990076  -0.0001501872
        0.0000031184   0.0000618363   0.0002239008   0.0000278021   0.0000521282
        0.0000607245   0.0002281959  -0.0002720664  -0.0000276461  -0.0001220923
        0.0001931176  -0.0000750380  -0.0000925900   0.0001601238  -0.0001128359
       -0.0003689289   0.0003355679  -0.0001795545   0.0019281503   0.0001970788
        0.0022918569  -0.0031931485   0.0131601532  -0.0026440512   0.0031529594
        0.0131301555  -0.0026154948  -0.0019462169   0.0001994841   0.0022821538
       -0.0002685438   0.0021931013  -0.0004468937  -0.0002201286  -0.0006470961
       -0.0009568905   0.0003630813   0.0003367712  -0.0001744156   0.0000938696
        0.0001588667  -0.0001137628   0.0001189132   0.0001921669  -0.0000727827
       -0.0002240553  -0.0002695529  -0.0000274585  -0.0000265300   0.0000505960
        0.0000581459  -0.0000027560   0.0000674904   0.0002261408  -0.0002535687
       -0.0004031049  -0.0001507701  -0.0000912149  -0.0004737371  -0.0000004244
        0.0000654763   0.0001028731  -0.0000730463  -0.0001463345  -0.0002815589
        0.0000289904   0.0001754201   0.0004054726  -0.0000259706  -0.0001963541
       -0.0002648424  -0.0002521476   0.0002949408   0.0008288449   0.0005155389
       -0.0034679748  -0.0033871892   0.0060147967   0.0087051927  -0.0000749896
       -0.0032004724   0.0091332278   0.0145815193  -0.0427699315   0.0007147356
       -0.0005936849  -0.0016818126   0.0004438852   0.0000852671   0.0009955921
        0.0000091753   0.0000151239   0.0002657416   0.0000013354  -0.0001227993
       -0.0000497497  -0.0000074086  -0.0000498155   0.0000139579  -0.0000041849
       -0.0000307393   0.0000128438   0.0000140572  -0.0000424124   0.0000314673
        0.0000172864  -0.0000130723   0.0000330466  -0.0000758216   0.0000162364
       -0.0000344752  -0.0001671029   0.0000559392   0.0000238970  -0.0001094017
       -0.0000471891  -0.0004015991   0.0001128522  -0.0000432558  -0.0004027989
        0.0001666280   0.0000557388   0.0000248040   0.0000758740   0.0000169203
       -0.0000342090  -0.0000175538  -0.0000131368   0.0000327841  -0.0000136769
       -0.0000423629   0.0000311971   0.0000045666  -0.0000302654   0.0000122713
        0.0000077054  -0.0000494911   0.0000139266  -0.0000001344  -0.0001209533
       -0.0000504100  -0.0000096612   0.0000122445   0.0002659810  -0.0004471613
        0.0000815154   0.0009952481  -0.0007016630  -0.0005978793  -0.0016823256
        0.0106159584   0.0000466853   0.0000771418  -0.0511581255   0.0010549425
        0.0007964859   0.0337661161  -0.0012229995  -0.0009022976   0.0056042587
        0.0147482369   0.0080274247   0.0020440801  -0.0001383704   0.0005220735
        0.0002514733   0.0030612420  -0.0023250018  -0.0016574471  -0.0025175363
        0.0009023227  -0.0001758298   0.0003836678   0.0000692957   0.0001190139
       -0.0004605443  -0.0003346086   0.0001092579   0.0000883851   0.0002016593
        0.0001106424  -0.0002198921  -0.0000254096  -0.0001865651   0.0000959274
       -0.0001627729   0.0000102579   0.0001491001   0.0001556915  -0.0003238849
        0.0000288229  -0.0003781843   0.0002845877  -0.0002832179   0.0001079671
       -0.0000927015   0.0004480907   0.0001942231  -0.0000839259  -0.0000576309
       -0.0001803327  -0.0001422218   0.0002721274   0.0000723505   0.0002093593
       -0.0001103662   0.0001468480  -0.0000127087  -0.0001575739  -0.0002310930
        0.0003003028  -0.0001063188   0.0004632337   0.0013739970   0.0011865212
       -0.0009415675  -0.0046676964   0.0005031274   0.0002021855  -0.0046504606
       -0.0005537806  -0.0002025521   0.0013861775  -0.0011584604   0.0009379882
       -0.0016717207   0.0024928507  -0.0009013999  -0.0001724565  -0.0003844409
       -0.0000689365   0.0002975607   0.0001065665  -0.0004585371  -0.0000142331
        0.0001582094   0.0002319120   0.0002087916   0.0001111108  -0.0001465477
       -0.0001391022  -0.0002725443  -0.0000736713  -0.0000850133   0.0000569497
        0.0001799068  -0.0000896007  -0.0004511822  -0.0001967297   0.0002881628
        0.0002891510  -0.0001085176  -0.0003260318  -0.0000262353   0.0003807164
        0.0000111733  -0.0001506755  -0.0001560847  -0.0001849008  -0.0000947491
        0.0001619083   0.0001078263   0.0002177498   0.0000265161   0.0001111087
       -0.0000871608  -0.0002003243   0.0001129953   0.0004563145   0.0003342671
        0.0002839433  -0.0030252482   0.0023007248   0.0019773764   0.0001391747
       -0.0005152392   0.0057801919  -0.0146303578  -0.0079895891   0.0006276378
        0.0000292699   0.0003110911  -0.0001230283   0.0000432395  -0.0001591161
       -0.0000224761  -0.0000636393  -0.0000416701  -0.0000055958  -0.0000045681
        0.0000012310  -0.0000011067   0.0000038395   0.0000034494  -0.0000005484
        0.0000055887   0.0000049788  -0.0000106391   0.0000039892   0.0000045628
       -0.0000081086   0.0000032897   0.0000018839   0.0000166244   0.0000007491
        0.0000278498   0.0000091544  -0.0000318163   0.0000597434  -0.0002572737
        0.0004735654  -0.0000518548  -0.0002522114  -0.0004700268   0.0000507081
        0.0000085721   0.0000334573  -0.0000585034   0.0000170823  -0.0000000987
       -0.0000285086  -0.0000078523  -0.0000028626  -0.0000021401  -0.0000105229
       -0.0000037606  -0.0000046036  -0.0000004065  -0.0000052751  -0.0000045904
       -0.0000010742  -0.0000039543  -0.0000029579  -0.0000057385   0.0000041256
       -0.0000008011  -0.0000237444   0.0000621689   0.0000414904  -0.0001192298
       -0.0000425894   0.0001558237   0.0006404985  -0.0000203602  -0.0003015120
        0.0000051136   0.0110211909  -0.0046393818   0.0010770646  -0.3061429687
       -0.1927923940  -0.0012229995   0.3255643150   0.2098398398   0.0068308345
       -0.0117537060  -0.0060790964  -0.0094242002   0.0006610602  -0.0015815012
        0.0039024358  -0.0046469104   0.0032365805  -0.0002378981   0.0018683235
       -0.0005823247   0.0002556324  -0.0001377928  -0.0001976775  -0.0003700534
        0.0006544001   0.0002269253   0.0000778477  -0.0001421197  -0.0001749895
       -0.0002203100   0.0004120058  -0.0000172489   0.0002304850  -0.0003604464
        0.0001085172  -0.0000607869   0.0002108108   0.0000515098  -0.0000587134
       -0.0005498776  -0.0003595236   0.0005236211  -0.0004528658   0.0002279287
        0.0000150138   0.0002261430   0.0001893741  -0.0000237619   0.0000663348
        0.0000800096   0.0001524255  -0.0000722895   0.0000559883  -0.0000448950
        0.0001244379  -0.0000000063  -0.0000247055  -0.0000634456  -0.0000287588
       -0.0003973031   0.0002772986  -0.0005489068   0.0010979665  -0.0024216358
        0.0011218733   0.0016022547   0.0018571572  -0.0014873495  -0.0016405979
        0.0018441850  -0.0014939482  -0.0010761204  -0.0024372178   0.0011247103
        0.0002167228   0.0018897725  -0.0005883145  -0.0002548819  -0.0001416615
       -0.0001990083   0.0003974049   0.0002801048  -0.0005486594   0.0000255212
       -0.0000629785  -0.0000282972   0.0000445281   0.0001238213  -0.0000000650
       -0.0001512644  -0.0000731438   0.0000552524   0.0000242506   0.0000660346
        0.0000795848  -0.0000160653   0.0002263868   0.0001900610  -0.0005207885
       -0.0004562469   0.0002257183   0.0000642370  -0.0005476189  -0.0003604242
        0.0000597484   0.0002105699   0.0000519435  -0.0002272000  -0.0003607786
        0.0001066694   0.0002171527   0.0004113867  -0.0000159123  -0.0000757700
       -0.0001419742  -0.0001750595   0.0003650286   0.0006557024   0.0002297290
       -0.0038900921  -0.0046948164   0.0032393291   0.0094362540   0.0007192174
       -0.0015614818  -0.0066986685  -0.0118661919  -0.0061480329   0.0004503720
        0.0000144460  -0.0008808394   0.0004940742  -0.0001932009   0.0004223483
       -0.0000771702   0.0001405379   0.0001110429  -0.0000173947   0.0000091032
       -0.0000228392  -0.0000029294  -0.0000420296  -0.0000032622   0.0000206633
       -0.0000461927   0.0000108233   0.0000153796  -0.0000331055   0.0000208452
        0.0000355572  -0.0000205849   0.0000369878   0.0000403479   0.0000037736
        0.0000766417  -0.0000759855  -0.0001260042  -0.0001653871   0.0002756578
       -0.0006241624  -0.0000198746  -0.0002726103  -0.0006293133  -0.0000211437
        0.0000776808  -0.0001253931  -0.0001657187  -0.0000401100   0.0000034511
        0.0000762089  -0.0000352844  -0.0000209006   0.0000366740  -0.0000149251
       -0.0000332826   0.0000205428  -0.0000199115  -0.0000463263   0.0000104839
        0.0000036076  -0.0000420063  -0.0000034211   0.0000179355   0.0000094746
       -0.0000228732   0.0000762939   0.0001409845   0.0001116442  -0.0004944563
       -0.0001968198   0.0004219815  -0.0004412605   0.0000135790  -0.0008840472
        0.0001757238  -0.0343977996  -0.0348888242   0.0007385409  -0.1763421940
       -0.1868452786  -0.0009022976   0.2098398398   0.2139739392  -0.0001507548
        0.0002678114   0.0047814839  -0.0019766252  -0.0003867224   0.0002746176
        0.0007060521  -0.0006670426   0.0004473409  -0.0000694053   0.0004091620
       -0.0001414268   0.0000728864  -0.0000204185   0.0000449872  -0.0000512351
        0.0001357741   0.0000357787   0.0000435369  -0.0000430843   0.0000312098
       -0.0000571906   0.0000881193   0.0000060904   0.0000320394  -0.0000786869
        0.0000221911  -0.0000229985   0.0001226712   0.0000701516  -0.0000902898
       -0.0001771911  -0.0002277238   0.0002157875  -0.0001852718   0.0001285792
       -0.0000017851   0.0001803253   0.0000931918  -0.0000526040   0.0000089751
       -0.0000139533  -0.0000078307   0.0000808409   0.0000354939   0.0000055197
        0.0000099309   0.0000167730   0.0000201799  -0.0001140515   0.0000183336
       -0.0000892384   0.0000391218  -0.0002369762  -0.0006839955  -0.0002923769
       -0.0000303514   0.0019362325   0.0013525813  -0.0011456195  -0.0019551764
        0.0013405653  -0.0011526402   0.0006903718  -0.0002915097  -0.0000247686
        0.0000632168   0.0004180436  -0.0001444043  -0.0000730548  -0.0000219235
        0.0000444437   0.0000883721   0.0000407290  -0.0002376417  -0.0000181792
       -0.0001149936   0.0000193136  -0.0000056533   0.0000097447   0.0000167875
        0.0000075106   0.0000809755   0.0000356967   0.0000528328   0.0000085957
       -0.0000140107   0.0000007624   0.0001805475   0.0000934196  -0.0002146800
       -0.0001867116   0.0001276384   0.0000923399  -0.0001764476  -0.0002278724
        0.0000222163   0.0001223347   0.0000702812  -0.0000311274  -0.0000788484
        0.0000218421   0.0000561290   0.0000874498   0.0000059414  -0.0000428639
       -0.0000432322   0.0000310433   0.0000501388   0.0001353067   0.0000354519
       -0.0007054162  -0.0006813226   0.0004520585   0.0019823779  -0.0003739651
        0.0002790354   0.0001441726   0.0002322966   0.0047634104  -0.0000520084
        0.0002654313  -0.0002632836   0.0002596816  -0.0001513026  -0.0000165345
       -0.0000441216   0.0000614577  -0.0000461068  -0.0000117581   0.0000242501
       -0.0000119741  -0.0000040593  -0.0000031720  -0.0000029547   0.0000092609
       -0.0000118324  -0.0000006027   0.0000018443  -0.0000050932   0.0000003253
        0.0000110526  -0.0000050850   0.0000031413   0.0000486582  -0.0000014497
        0.0000465171   0.0000275100  -0.0000631188  -0.0000805627   0.0001442985
       -0.0003650572   0.0000519667  -0.0001425380  -0.0003673900   0.0000513093
       -0.0000267587  -0.0000651825  -0.0000807606  -0.0000487392  -0.0000021106
        0.0000461742  -0.0000117044  -0.0000055641   0.0000026231  -0.0000017511
       -0.0000053279  -0.0000001895  -0.0000087017  -0.0000117457  -0.0000015110
        0.0000044440  -0.0000030986  -0.0000030542   0.0000121872   0.0000267768
       -0.0000125181   0.0000441244   0.0000591151  -0.0000455718  -0.0002589065
       -0.0001531662  -0.0000170358   0.0000534471   0.0002647173  -0.0002644310
        0.0055752873   0.0052832494  -0.0040671642  -0.1043182350   0.0241546546
       -0.0094121748   0.0056042587   0.0068308345  -0.0001507548   0.6555887782
        0.0819339415  -0.0364152680  -0.3302567718  -0.0843259490   0.0362148975
       -0.0685310073   0.0819837999  -0.0299385705  -0.0257764155  -0.0311857837
        0.0120446737  -0.0012580212   0.0008661104  -0.0003409804   0.0000866959
       -0.0022007990  -0.0015852988   0.0001223488  -0.0000456705   0.0005165755
        0.0000580071  -0.0002800778  -0.0001553853  -0.0002191019  -0.0000533280
       -0.0002844890  -0.0000256083   0.0003198876   0.0002826978  -0.0003746906
       -0.0001849103  -0.0005667447   0.0004910096  -0.0005126355   0.0002184544
        0.0000543631   0.0005711018   0.0002881372  -0.0001722369  -0.0000939436
       -0.0004013142  -0.0001805575   0.0003464838   0.0002470157   0.0003322053
       -0.0000058434   0.0003685739  -0.0001215965  -0.0003481387  -0.0009843064
        0.0015356061   0.0000739913   0.0021003407   0.0219153894   0.0118073892
       -0.0043800148  -0.0905427945  -0.0704647297   0.0271594429  -0.0430079277
       -0.0390591775   0.0145391753   0.0036423155   0.0077562676  -0.0033651851
       -0.0021717680  -0.0042753759   0.0017184054  -0.0009924393  -0.0007202553
        0.0002505296   0.0012748941  -0.0000468029  -0.0017854923  -0.0000350947
        0.0008464078   0.0007161049   0.0008506816   0.0006759320  -0.0005485887