$hessian                                                                        
        0.6772071661   0.0006847667   0.0053327930  -0.1181682868   0.0077699228
       -0.1079122071  -0.0108908597   0.0024717530  -0.0338052334   0.0006204687
       -0.0010556058   0.0145937734  -0.0001077944   0.0000079185  -0.0000902911
        0.0002045186  -0.0000830093   0.0000376654  -0.0001929286  -0.0001454571
        0.0000022691   0.0000253745   0.0000602993  -0.0000000069   0.0000339887
        0.0000028011   0.0000004025  -0.0000027740  -0.0000086836   0.0000011984
        0.0001340290   0.0000798372  -0.0000111582   0.0000036428   0.0000006532
        0.0000521832  -0.0000025846  -0.0000032211   0.0000142010   0.0000045747
        0.0000037061  -0.0000309417  -0.0000089030   0.0000010865  -0.0000308592
       -0.0000330116   0.0000015136  -0.0000237421   0.0000101561  -0.0000032860
        0.0000416312  -0.0000179921   0.0000052724  -0.0000851350  -0.0000556937
       -0.0000009300   0.0001266033   0.0001051227   0.0000019743  -0.0000752866
       -0.0000678692  -0.0000034815   0.0000268225   0.0000759530  -0.0000042563
       -0.0000882068  -0.0001584486  -0.0000047498   0.0001261595   0.0000980199
        0.0000049980  -0.0000654361   0.0001329210  -0.0000753642  -0.0000247319
       -0.0000030686   0.0000098729   0.0000003331   0.0000345491  -0.0000039408
       -0.0000001979   0.0000258090  -0.0000593358  -0.0000011226  -0.0001933180
        0.0001436013   0.0000190032   0.0002035747   0.0000833169   0.0000724442
       -0.0556858366  -0.0007158633   0.0078102079  -0.2009579513  -0.0117270730
        0.1561916288  -0.2915251966   0.0033504034  -0.0523460773   0.0051123704
       -0.0013855407   0.0189616799  -0.0056955813   0.0000887266  -0.0016048004
       -0.0001250221   0.0001709931  -0.0000989538  -0.0000179816   0.0000207573
       -0.0000049962   0.0000221277  -0.0000130065   0.0000021231   0.0000056551
        0.0000138335   0.0000029984  -0.0000102740  -0.0000019533   0.0000215515
        0.0000028393  -0.0000019661   0.0000234782   0.0000183699  -0.0000007032
        0.0000097033   0.0000051614   0.0000006300  -0.0000064033   0.0000068027
        0.0000008880  -0.0000094378  -0.0000140526   0.0000024788  -0.0000270945
        0.0000056775  -0.0000142467   0.0000010651   0.0000220675   0.0000124529
        0.0000046279  -0.0000178883  -0.0000201093  -0.0000075961  -0.0001219461
       -0.0001544005  -0.0001243045  -0.0055162759   0.0000701274  -0.0013770988
        0.0054705995   0.0004215991  -0.0056252279
        0.0006847667   0.1206309218  -0.0389257680   0.0020000775  -0.0499955736
        0.0187525396   0.0067693930   0.0012471443  -0.0002081863  -0.0010592226
       -0.0066741228   0.0043645529  -0.0000237586  -0.0001666099  -0.0000507351
        0.0000719473  -0.0000444847   0.0000131759  -0.0000660666   0.0000286155
       -0.0000148644   0.0000044306  -0.0000058327   0.0000025192  -0.0000055011
       -0.0000009317  -0.0000002428   0.0000080994   0.0000030579   0.0000003140
        0.0000014518  -0.0000093458  -0.0000026407   0.0000028740   0.0000034381
        0.0000000107  -0.0000009694   0.0000020780   0.0000001416  -0.0000016588
        0.0000004482   0.0000010825   0.0000003783   0.0000004756   0.0000004039
        0.0000005903   0.0000007260   0.0000000526   0.0000014706   0.0000007473
       -0.0000004232  -0.0000024934   0.0000001216  -0.0000014479   0.0000032392
       -0.0000008724   0.0000027169   0.0000009742   0.0000020414  -0.0000009908
       -0.0000018105  -0.0000003982  -0.0000013873  -0.0000029654   0.0000000205
        0.0000042390   0.0000132024  -0.0000013529   0.0000005587  -0.0000085523
        0.0000015550  -0.0000033682  -0.0000111891  -0.0000125678  -0.0000105305
       -0.0000094656   0.0000069156   0.0000008052   0.0000096311   0.0000003743
        0.0000022181   0.0000019008  -0.0000062283  -0.0000070545   0.0000804085
        0.0000517536   0.0000130577  -0.0000908234  -0.0000027979  -0.0000056020
       -0.0049882551   0.0015089297  -0.0034031383  -0.0059593597  -0.0495691439
        0.0132796396   0.0033521102  -0.0347392086   0.0013778280   0.0003558446
        0.0007637200   0.0019041743   0.0000584500   0.0081180463   0.0005198053
        0.0000104047   0.0000060077  -0.0000140727  -0.0000012095   0.0000057531
       -0.0000020313   0.0000023957  -0.0000000109  -0.0000010500   0.0000030882
        0.0000000396   0.0000007605  -0.0000001900  -0.0000002156  -0.0000010501
       -0.0000003265  -0.0000001413  -0.0000006069  -0.0000003059   0.0000000313
       -0.0000003125  -0.0000000605  -0.0000000213   0.0000001208  -0.0000008899
       -0.0000001036   0.0000000386  -0.0000006754  -0.0000000246  -0.0000013368
       -0.0000037238  -0.0000010839   0.0000006917  -0.0000017383  -0.0000011852
        0.0000008330   0.0000028788   0.0000055524   0.0000006640   0.0000252799
        0.0000205416   0.0000076509   0.0000919750   0.0080367924   0.0005234179
       -0.0013160514   0.0007864084   0.0018828271
        0.0053327930  -0.0389257680   0.6488013591  -0.0289402410   0.0189193438
       -0.3070936177  -0.0928712748  -0.0003235625   0.0030820522   0.0146672498
        0.0043922620  -0.0654159062   0.0003452631  -0.0000543749   0.0004811175
        0.0001395145   0.0002608798  -0.0000531169  -0.0001049802   0.0001587754
        0.0000669784  -0.0000512869  -0.0000042877   0.0000226620  -0.0000219821
        0.0000075780  -0.0000109909   0.0000123342   0.0000286342  -0.0000013621
        0.0000660076  -0.0000206205   0.0000736709  -0.0000402787   0.0000015491
        0.0000149880   0.0000049861   0.0000001446   0.0000105843   0.0000148179
        0.0000016418  -0.0000185464   0.0000008515   0.0000012195  -0.0000002416
       -0.0000098449  -0.0000006024  -0.0000013118  -0.0000032733  -0.0000008275
        0.0000135814   0.0000231925  -0.0000004285  -0.0000028035  -0.0000581264
       -0.0000017573   0.0000254627   0.0000935205  -0.0000007833  -0.0000093258
       -0.0000439240   0.0000018968  -0.0000132862   0.0000102821   0.0000006221
       -0.0000030489  -0.0000477986   0.0000000562   0.0000118332   0.0000026273
        0.0000010129  -0.0000237300   0.0000686354   0.0000085094   0.0000747655
        0.0000115183  -0.0000304316  -0.0000063312  -0.0000244443  -0.0000048817
       -0.0000126741  -0.0000506713   0.0000013396   0.0000231682  -0.0001027009
       -0.0001718123   0.0000395898   0.0001265012  -0.0002645519  -0.0000910540
        0.0665972374  -0.0032640626   0.0478855917   0.0772660898   0.0131034470
       -0.2258102695  -0.0523920934   0.0013817375  -0.0548103870  -0.0047766920
        0.0018448666  -0.0244602531  -0.0011857849   0.0005135718   0.0010240061
       -0.0002373596   0.0001049315   0.0000593275  -0.0000105353   0.0000004090
        0.0000151528  -0.0000037990  -0.0000057766   0.0000016193   0.0000049412
       -0.0000057754  -0.0000110323   0.0000040145  -0.0000009295   0.0000131118
        0.0000043230  -0.0000004451   0.0000076803   0.0000052679  -0.0000002163
        0.0000037685  -0.0000009382   0.0000000355  -0.0000015387   0.0000118736
       -0.0000004783   0.0000009593   0.0000020244  -0.0000013737   0.0000137391
        0.0000045355   0.0000075016  -0.0000105175  -0.0000042739   0.0000054944
        0.0000016067  -0.0000105444  -0.0000016827   0.0000144851  -0.0002424496
       -0.0001168541   0.0000409169  -0.0016921018   0.0005267130   0.0008959196
        0.0181069970   0.0019281114  -0.0248583525
       -0.1181682868   0.0020000775  -0.0289402410   0.6643070264   0.0021054177
       -0.0128457163  -0.3243791970   0.0058611640  -0.0884293387  -0.0557941213
       -0.0051081738   0.0678338765  -0.0015296778  -0.0001893762   0.0024485295
       -0.0007927292   0.0000057138   0.0000815959  -0.0000252034  -0.0004468295
       -0.0001878507   0.0001147179   0.0000785088  -0.0000204529   0.0001064508
        0.0000210971   0.0000237753  -0.0000390953  -0.0000649471  -0.0000352661
        0.0000358185   0.0001236848  -0.0001392981   0.0000622520  -0.0000044198
        0.0000559883  -0.0000236988   0.0000006470   0.0000102539  -0.0000064098
        0.0000010464  -0.0000253201  -0.0000001018   0.0000020414   0.0000019062
       -0.0000154453   0.0000010121  -0.0000207163   0.0000087674  -0.0000023289
        0.0000275688  -0.0000238172   0.0000043329  -0.0000398382  -0.0000090575
       -0.0000128316   0.0000774288   0.0000269274   0.0000011519  -0.0000223546
       -0.0000428782   0.0000014689   0.0000091284   0.0000873922   0.0000102812
       -0.0000485393  -0.0001511222  -0.0000041948   0.0000303601   0.0001215938
        0.0000024677  -0.0000191850   0.0000343511  -0.0001028450  -0.0001562829
       -0.0000394444   0.0000724403  -0.0000230082   0.0001105905  -0.0000235324
        0.0000206460   0.0001158685  -0.0000765240  -0.0000367882  -0.0000177581
        0.0004825963  -0.0001057774  -0.0007883341  -0.0000143536   0.0000763149
       -0.0346967523   0.0024816504  -0.0349412846   0.0550103349   0.0003728848
       -0.0036264316  -0.0119370594   0.0020420592  -0.0281709165  -0.1589594235
       -0.0096476856   0.1280485171  -0.0108310550   0.0003033862  -0.0043248610
       -0.0000101204   0.0002750231   0.0001482656  -0.0000031293   0.0000069722
       -0.0000109936   0.0000342828  -0.0000112619   0.0000145027   0.0000029702
        0.0000179966   0.0000152462  -0.0000120416  -0.0000006488   0.0000099757
        0.0000047225  -0.0000009712   0.0000138234   0.0000160843  -0.0000002834
        0.0000053943   0.0000071994   0.0000006224  -0.0000068575   0.0000105280
        0.0000009710  -0.0000085783  -0.0000280148   0.0000008437  -0.0000127960
        0.0000030597  -0.0000198958   0.0000123448   0.0000346980   0.0000094922
        0.0000160510  -0.0000026818  -0.0000048614  -0.0000124132  -0.0000085549
       -0.0002988692   0.0001081734   0.0000317942   0.0000472383  -0.0006894159
       -0.0019522191  -0.0002994560   0.0038108558
        0.0077699228  -0.0499955736   0.0189193438   0.0021054177   0.1206496394
       -0.0399381756   0.0001540455  -0.0471630481   0.0041166730  -0.0005787168
       -0.0011306389  -0.0035056106  -0.0003349005   0.0084588803   0.0008417361
       -0.0014999216  -0.0002279407   0.0002250858  -0.0001602967  -0.0002320843
       -0.0000700322   0.0000312114   0.0000091536   0.0000078208   0.0000340258
       -0.0000013617   0.0000078205  -0.0001126109  -0.0000567690  -0.0000322658
       -0.0002328179   0.0004173043  -0.0000830562   0.0000003215   0.0000144221
        0.0000053339  -0.0000011146   0.0000045403  -0.0000001924   0.0000007989
       -0.0000002448  -0.0000013733  -0.0000002517   0.0000005110  -0.0000039240
       -0.0000021919   0.0000004861   0.0000012732  -0.0000002449   0.0000003789
        0.0000003038  -0.0000001485  -0.0000017750  -0.0000016427  -0.0000031925
        0.0000007499   0.0000043717   0.0000118695   0.0000013630   0.0000027605
       -0.0000108185  -0.0000009506  -0.0000065235  -0.0000017748  -0.0000041711
        0.0000057459   0.0000078220   0.0000075262  -0.0000017575  -0.0000047434
        0.0000058147  -0.0000019071   0.0002250052   0.0003930978   0.0001358184
        0.0001109879  -0.0000601641   0.0000178971  -0.0000336328  -0.0000051014
       -0.0000107965  -0.0000413869   0.0000020936  -0.0000076935   0.0001500360
       -0.0002542600   0.0000539567   0.0014578600  -0.0002154461  -0.0002269076
        0.0024889393  -0.0048865622   0.0016236559  -0.0039494877   0.0012324853
        0.0046498124   0.0002950202   0.0006123903   0.0005574930  -0.0096580262
       -0.0355479070   0.0113720614   0.0020233773   0.0005655967   0.0006144655
        0.0002248147  -0.0001074409   0.0000284476   0.0000040441   0.0000174677
       -0.0000007209   0.0000137170  -0.0000003438   0.0000009753  -0.0000132465
        0.0000335297   0.0000021311  -0.0000014577  -0.0000007906   0.0000006961
        0.0000005036  -0.0000001007   0.0000018658   0.0000015258   0.0000002371
        0.0000004332   0.0000006536   0.0000003757  -0.0000003194   0.0000005461
        0.0000018060  -0.0000002225   0.0000003921  -0.0000008819  -0.0000015560
        0.0000156317   0.0000354946   0.0000028585  -0.0000113473   0.0000031723
        0.0000001380  -0.0000054319   0.0000215304   0.0000042459  -0.0002517748
       -0.0001326335  -0.0000573863   0.0000500081  -0.0002617823  -0.0000459598
       -0.0002689611   0.0077979256   0.0007928027
       -0.1079122071   0.0187525396  -0.3070936177  -0.0128457163  -0.0399381756
        0.6614468976  -0.0098356711   0.0042772071  -0.1057919457   0.0058755554
       -0.0036574121   0.0485461869   0.0043825139   0.0008408598  -0.0027732303
        0.0001312977  -0.0001042042  -0.0002580481   0.0000297156  -0.0001046856
       -0.0001552713   0.0000795353  -0.0000536299   0.0000108257  -0.0000030124
       -0.0000201474   0.0000108564  -0.0000103921   0.0000075773   0.0000384015
        0.0000705367  -0.0000340142   0.0000631491  -0.0000272417  -0.0000022354
       -0.0000186488   0.0000182174   0.0000014122   0.0000047232  -0.0000059743
       -0.0000014099   0.0000076508   0.0000038557  -0.0000019938   0.0000304025
        0.0000175659   0.0000001030   0.0000060931   0.0000038945   0.0000002997
       -0.0000045318  -0.0000063894  -0.0000006569   0.0000142157  -0.0000292258
       -0.0000060960  -0.0000023227   0.0000269717   0.0000036826   0.0000151365
       -0.0000162494   0.0000000959  -0.0000077148   0.0000439057   0.0000111935
       -0.0000348309  -0.0001105568  -0.0000049267  -0.0000037621   0.0000845376
        0.0000001575   0.0000125559   0.0001013117   0.0000795453   0.0000880035
        0.0000056570  -0.0000200476   0.0000417086  -0.0000050540   0.0000189085
        0.0000129037   0.0000744561   0.0000511101   0.0000119044   0.0000593411
        0.0001014373  -0.0001226151   0.0003401727   0.0001177760  -0.0002846654
       -0.0349122814   0.0016213740  -0.0278684248   0.0556483135   0.0047828362
       -0.0619994730  -0.0043174889   0.0006017180  -0.0076700024   0.1280684411
        0.0113808981  -0.1859688925  -0.0279629907   0.0005669084  -0.0078670899
        0.0001645035  -0.0001914567   0.0000505419   0.0000033244   0.0000274470
       -0.0000006680  -0.0000131149   0.0000176227  -0.0000057274  -0.0000140325
        0.0000145982   0.0000026774   0.0000163474   0.0000005649  -0.0000062375
       -0.0000038708   0.0000012925  -0.0000164989  -0.0000146152   0.0000002936
       -0.0000053257  -0.0000081134  -0.0000002185   0.0000018070  -0.0000028879
       -0.0000003096   0.0000074978  -0.0000163227  -0.0000011833   0.0000120665
       -0.0000117864  -0.0000099912   0.0000009395  -0.0000144857  -0.0000164273
       -0.0000083081   0.0000028612  -0.0000239764  -0.0000041629   0.0001303829
        0.0001688353   0.0000754983  -0.0006574694  -0.0000452761   0.0003014429
        0.0033739344   0.0007901802  -0.0028420704
       -0.0108908597   0.0067693930  -0.0928712748  -0.3243791970   0.0001540455
       -0.0098356711   0.6573328598  -0.0001060658   0.0186676754  -0.1747020028
       -0.0055292963   0.0711753653  -0.0418074628  -0.0013858913   0.0174858009
       -0.0008505574  -0.0028869578   0.0018202530   0.0001930403  -0.0000795802
        0.0004650990  -0.0001603441  -0.0000808198  -0.0001113581   0.0001000880
        0.0000681060  -0.0000209984  -0.0001169100  -0.0002878842  -0.0002014186
       -0.0007034849   0.0006889618  -0.0004768820   0.0002532503   0.0000025628
       -0.0001482385   0.0000320287  -0.0000022509   0.0000398610  -0.0000023773
       -0.0000047798   0.0000435492  -0.0000049494  -0.0000032621   0.0000450268
        0.0000192867  -0.0000005940   0.0000250117  -0.0000167170   0.0000029663
       -0.0000437823   0.0000302940  -0.0000026980   0.0000772332   0.0001237792
        0.0000035982  -0.0001794421  -0.0002133213  -0.0000018677   0.0000868588
        0.0001467411   0.0000004410  -0.0000006855  -0.0002041455  -0.0000030325
        0.0001463935   0.0003671436   0.0000107923  -0.0002011097  -0.0001511204
        0.0000004269   0.0000255977  -0.0006884780  -0.0006042535  -0.0005617623
       -0.0001160594   0.0003122451  -0.0001577585   0.0000971190  -0.0000621780
       -0.0000302720  -0.0001618938   0.0000964593  -0.0001042462   0.0001765520
       -0.0000129510   0.0004694041  -0.0008369726   0.0025600878   0.0022545253
        0.0507244780  -0.0037516927   0.0528740221  -0.0595909653  -0.0016687650
        0.0210581506   0.0003147026   0.0001382397  -0.0020872629  -0.0236983577
        0.0000676491  -0.0017463667  -0.0693819298   0.0055252041  -0.0765778511
       -0.0004647640   0.0015580670   0.0002502538   0.0000393743   0.0000014468
        0.0000070266  -0.0000049427   0.0000279977   0.0000341992  -0.0000371966
        0.0000613880   0.0000128576   0.0000240823   0.0000002748   0.0000027365
       -0.0000139978   0.0000027832  -0.0000312192  -0.0000284712   0.0000007778
       -0.0000094092  -0.0000118699  -0.0000008666   0.0000095006  -0.0000228280
       -0.0000013259   0.0000137972   0.0000257234  -0.0000035051   0.0000386315
       -0.0000358748  -0.0000618227   0.0000024297  -0.0000047989  -0.0000323939
        0.0000285596   0.0000394291  -0.0000016467   0.0000058743  -0.0004570681
       -0.0015956769   0.0000042329   0.0002097793   0.0001480338  -0.0022311034
       -0.0004898336  -0.0000298894   0.0004581858
        0.0024717530   0.0012471443  -0.0003235625   0.0058611640  -0.0471630481
        0.0042772071  -0.0001060658   0.1191914157  -0.0399548522  -0.0110004518
       -0.0465972695   0.0129509605  -0.0002783956   0.0030732178  -0.0001417893
        0.0001897015  -0.0015058336   0.0009916738   0.0002621334  -0.0005792227
       -0.0002113449   0.0001457891   0.0001132486   0.0000382860   0.0000606863
        0.0000019357   0.0000390490  -0.0000118085  -0.0001275651  -0.0000788412
       -0.0002645551   0.0001975133   0.0000462698  -0.0000041134   0.0000245213
        0.0000080560  -0.0000017476   0.0000354423   0.0000075363  -0.0000008517
        0.0000086638  -0.0000093821   0.0000021356  -0.0000003394   0.0000050956
       -0.0000005327   0.0000001512  -0.0000040592   0.0000066388  -0.0000031537
        0.0000067967  -0.0000044777   0.0000020701  -0.0000128286  -0.0000091439
       -0.0000048279   0.0000175467   0.0000167461   0.0000064284  -0.0000204886
        0.0000010647  -0.0000031853   0.0000095132   0.0000086356   0.0000104347
       -0.0000053754  -0.0000157869  -0.0000000217   0.0000237476  -0.0000019897
       -0.0000104535  -0.0000173114   0.0003043900   0.0002164582   0.0000088678
        0.0000284040  -0.0001430277   0.0000647387  -0.0000505091   0.0000157379
       -0.0000369790  -0.0001428675   0.0001022615  -0.0000125288  -0.0002942443
       -0.0005500221   0.0001672898   0.0000052288  -0.0013711613  -0.0012727930
        0.0003845094   0.0005457685   0.0046453653  -0.0016459213  -0.0046721241
       -0.0000531662   0.0001530847   0.0077149345   0.0009474724  -0.0016610680
        0.0008904466  -0.0001798810   0.0055540751  -0.0354202794   0.0174764267
        0.0011735757  -0.0012518109  -0.0001243909   0.0000095611   0.0000018427
       -0.0000151507   0.0000483166  -0.0000052644   0.0000030601   0.0000043644
        0.0000145773  -0.0000026642  -0.0000003346  -0.0000076059   0.0000021587
        0.0000007457  -0.0000018739   0.0000010687   0.0000008032   0.0000002886
        0.0000007631  -0.0000005864  -0.0000014459  -0.0000003669   0.0000030274
       -0.0000036621  -0.0000009374  -0.0000022080  -0.0000008440  -0.0000001027
       -0.0000009933   0.0000154480   0.0000034108  -0.0000438757  -0.0000028489
       -0.0000065386  -0.0000103751   0.0000027642   0.0000167682  -0.0012332705
       -0.0014261190  -0.0001375305   0.0001216212   0.0074977616   0.0009346973
       -0.0000319811  -0.0000774667  -0.0000709607
       -0.0338052334  -0.0002081863   0.0030820522  -0.0884293387   0.0041166730
       -0.1057919457   0.0186676754  -0.0399548522   0.6612432006   0.1450860111
        0.0131076112  -0.2196404641   0.0027924116  -0.0001804530   0.0057674511
       -0.0012518004  -0.0004056286   0.0005242657   0.0001245098   0.0005505688
       -0.0002328408  -0.0000339377  -0.0000884067  -0.0000705064  -0.0000837029
        0.0000484052  -0.0000017158  -0.0001027163  -0.0000150538  -0.0000599290
       -0.0003120381   0.0001319054  -0.0001646581   0.0000606249   0.0000104214
       -0.0000552961   0.0000137828   0.0000054344  -0.0000663159   0.0000328905
       -0.0000095849   0.0001424886  -0.0000361074   0.0000039959  -0.0000879454
       -0.0000069349  -0.0000056657   0.0000757018  -0.0000815390   0.0000074355
       -0.0001000331   0.0000763713  -0.0000167787   0.0002016390   0.0000878896
        0.0000242079  -0.0001730874  -0.0001866981  -0.0000163749   0.0001618882
        0.0000088092   0.0000065145  -0.0000974550  -0.0001373819  -0.0000131603
        0.0000145562   0.0002771334   0.0000248695  -0.0002248305  -0.0000660970
       -0.0000167728   0.0001804583  -0.0002684796  -0.0000724224  -0.0001855984
       -0.0000997383   0.0000036839  -0.0000480685  -0.0000899751  -0.0000476668
       -0.0000150920  -0.0000565710   0.0001131138  -0.0000520628   0.0000822438
       -0.0005926724  -0.0003008907  -0.0012651158   0.0001144200   0.0003886219
       -0.0038539029   0.0045193540  -0.0608493427   0.0208924531  -0.0000436778
       -0.0031510694  -0.0023001428   0.0009476837  -0.0051678560   0.0219155789
       -0.0001345744   0.0033130650  -0.0768264042   0.0174711822  -0.2748030904
        0.0004555301  -0.0010353202   0.0002715137   0.0000087199   0.0000222536
       -0.0000053053  -0.0000283867   0.0000129958   0.0000169351  -0.0000226755
        0.0000081395   0.0000088160   0.0000032072   0.0000025660  -0.0000379710
       -0.0000101094   0.0000012207  -0.0000177362  -0.0000096647   0.0000009767
       -0.0000121032   0.0000051197  -0.0000002819   0.0000036974  -0.0000418267
       -0.0000013881   0.0000100379   0.0000330495  -0.0000003862   0.0000079840
       -0.0000227810  -0.0000073956   0.0000080764  -0.0000350742  -0.0000167178
        0.0000144600   0.0000074520  -0.0000217051  -0.0000053387   0.0002775409
        0.0007882369   0.0004191567  -0.0018503690   0.0009314679  -0.0052803591
        0.0004057377  -0.0000702107   0.0008428420
        0.0006204687  -0.0010592226   0.0146672498  -0.0557941213  -0.0005787168
        0.0058755554  -0.1747020028  -0.0110004518   0.1450860111   0.6121217295
        0.0016151067  -0.0056591038  -0.2232070535   0.0020279727  -0.0341129911
       -0.0252653705   0.0156800758  -0.0037699040   0.0004089760  -0.0011481804
        0.0002965372  -0.0007244916   0.0003621460  -0.0001605091   0.0002595161
       -0.0000384972   0.0000723140  -0.0009346868   0.0003824462  -0.0002067516
        0.0011686120   0.0009708635  -0.0006241850   0.0000223541  -0.0000567703
        0.0005237658  -0.0003113423   0.0000003794   0.0000085064  -0.0000445328
        0.0000187769  -0.0002455624   0.0000761101   0.0000016507   0.0000890946
       -0.0000518521   0.0000104793  -0.0001551867   0.0001790030  -0.0000185756
        0.0002291187  -0.0000660430   0.0000409884  -0.0004979345  -0.0001541442
       -0.0000923595   0.0007500556   0.0007070377   0.0000483779  -0.0005749751
       -0.0001870491  -0.0000044383   0.0002053799   0.0002535969   0.0000052459
        0.0000535089   0.0003315198  -0.0000420656   0.0005346338  -0.0008670789
        0.0000668942  -0.0008266171   0.0012061439  -0.0008179357  -0.0007337651
       -0.0009192554  -0.0003588212  -0.0002602345   0.0002557731   0.0000343140
        0.0000755598  -0.0007175398  -0.0003386230  -0.0002284006   0.0004058542
        0.0011059456   0.0004924796  -0.0249221391  -0.0151439415  -0.0062446219
       -0.1013010045   0.0067409769  -0.0932308085  -0.0111791316   0.0023847041
       -0.0324563265   0.0009916877  -0.0000310031   0.0003971490  -0.0044557668
        0.0000795549  -0.0014042775   0.0053295788   0.0004496599  -0.0060312760
        0.0006691604  -0.0004814254  -0.0001554810  -0.0000124197  -0.0004005998
        0.0000043732   0.0000331830  -0.0001487178   0.0000517962   0.0000503435
        0.0000371070   0.0000186160  -0.0000724073  -0.0000004844   0.0000202547
        0.0000495924  -0.0000058105   0.0000938842   0.0000985274  -0.0000019798
        0.0000481575   0.0000498394   0.0000034541  -0.0000289007   0.0001259720
        0.0000070430  -0.0000614670  -0.0001182830   0.0000134016  -0.0001785460
        0.0000518790  -0.0000336287   0.0000115525   0.0000309944   0.0001418624
        0.0000706927  -0.0000169775   0.0003957904   0.0000634880   0.0006799497
        0.0005355740  -0.0000763973   0.0046363664  -0.0014059591   0.0193233918
       -0.0047890757   0.0000474165  -0.0011389034
       -0.0010556058  -0.0066741228   0.0043922620  -0.0051081738  -0.0011306389
       -0.0036574121  -0.0055292963  -0.0465972695   0.0131076112   0.0016151067
        0.1700075168  -0.0338722222   0.0021176514  -0.0673972199  -0.0013314432
        0.0250288628   0.0006330971   0.0042867201   0.0024155030  -0.0021661621
        0.0004914490   0.0006015388  -0.0001439956  -0.0000178889  -0.0001542101
       -0.0001103734   0.0000007673   0.0013511653   0.0002957921  -0.0001248781
        0.0024124948  -0.0047541651   0.0005107985   0.0000120768  -0.0000637239
       -0.0000186692  -0.0000208472  -0.0000383131   0.0000121775   0.0000014738
        0.0000213391  -0.0000032969   0.0000020900   0.0000089956   0.0000095847
        0.0000053468   0.0000020511  -0.0000045239   0.0000041146   0.0000100745
        0.0000033075   0.0000067912   0.0000020240  -0.0000080518   0.0000160110
       -0.0000128925  -0.0000062202  -0.0000121611   0.0000030903   0.0000091108
        0.0000137313   0.0000035788   0.0000030626  -0.0000400796   0.0000037273
        0.0000335259   0.0000942731  -0.0000152932  -0.0000143174  -0.0000690846
       -0.0000743646  -0.0000314753  -0.0023382439  -0.0045706988  -0.0015956889
       -0.0013532957   0.0002630053   0.0000242465   0.0001384535  -0.0000814765
        0.0000024670  -0.0005654704  -0.0001124459  -0.0000586586  -0.0023174882
       -0.0020705398  -0.0006737971  -0.0245950395   0.0012590163  -0.0035458498
        0.0012147324  -0.0494282700   0.0178506603   0.0069241943  -0.0015187526
       -0.0005036575  -0.0000273129   0.0005715661   0.0000990316   0.0001126639
        0.0082482165   0.0005296977  -0.0012894011   0.0015591367   0.0020113243
        0.0010064798  -0.0027541670   0.0001888205  -0.0000345440   0.0000150268
       -0.0000098001  -0.0000166282  -0.0000050991   0.0000177501   0.0001791773
       -0.0003496996   0.0000338854   0.0000010729  -0.0000155163   0.0000016514
       -0.0000002209  -0.0000040273  -0.0000013851  -0.0000018602  -0.0000046200
        0.0000004659  -0.0000006564  -0.0000046221   0.0000019012  -0.0000009237
       -0.0000065517   0.0000008812   0.0000045614   0.0000021283   0.0000013761
       -0.0001882624  -0.0003496956  -0.0000669619   0.0000095803  -0.0000123099
        0.0000018049   0.0000355502   0.0000053429  -0.0000075004  -0.0009499519
       -0.0026084473  -0.0006279603   0.0003133617   0.0018563879   0.0020397393
        0.0000306988   0.0083043607   0.0005155782
        0.0145937734   0.0043645529  -0.0654159062   0.0678338765  -0.0035056106
        0.0485461869   0.0711753653   0.0129509605  -0.2196404641  -0.0056591038
       -0.0338722222   0.6335433995  -0.0350879206  -0.0013327965  -0.0528719792
       -0.0023103378   0.0026618466  -0.0035904402  -0.0002414998   0.0001083720
       -0.0008489531  -0.0002525357   0.0001644032   0.0003153230   0.0001078826
        0.0001732286  -0.0000963860   0.0000570278  -0.0000850250   0.0008648651
        0.0000156857  -0.0002542213   0.0024097973  -0.0001423088  -0.0000253936
        0.0001898745   0.0002463218   0.0000134411  -0.0001678029  -0.0000636473
       -0.0000031968   0.0000436146  -0.0000036448   0.0000094739  -0.0000638396
       -0.0000494685  -0.0000034419   0.0000239850  -0.0000161670   0.0000012100
       -0.0000099048  -0.0001210155  -0.0000031278   0.0000273690  -0.0001407175
       -0.0000180199   0.0000718999   0.0001506578   0.0000077356  -0.0000980760
       -0.0001684094   0.0000058858  -0.0000224629   0.0004785713   0.0000363036
       -0.0003277410  -0.0010845271  -0.0000192897   0.0001427258   0.0007793671
       -0.0000216234   0.0002482086  -0.0003610238  -0.0008411653   0.0022049173
       -0.0001556578  -0.0000062454   0.0008845416   0.0001318727  -0.0001700728
       -0.0001248572  -0.0003378828  -0.0002334173   0.0002761653  -0.0006062550
       -0.0002962848  -0.0009617130  -0.0061574432  -0.0019357643  -0.0045798276
       -0.0186741585   0.0180802019  -0.2957550356  -0.0944965966  -0.0006455719
        0.0041190339   0.0003804788   0.0001001313  -0.0007757157  -0.0019339213
        0.0005293161   0.0010289543   0.0176839300   0.0020522051  -0.0258689294
       -0.0003069096   0.0005570329   0.0003650643  -0.0000067021  -0.0000950998
        0.0001172333   0.0000384303  -0.0000472033  -0.0001197127   0.0000945188
       -0.0000554350  -0.0001399880  -0.0000103630   0.0000026617  -0.0000416014
        0.0000035321  -0.0000007549   0.0000110338   0.0000247673   0.0000006694
       -0.0000078891   0.0000093307   0.0000019327  -0.0000271416   0.0000167206
        0.0000013855  -0.0000197809  -0.0000693077   0.0000013378  -0.0000242392
        0.0000661970   0.0000239026  -0.0001421417   0.0000406952   0.0000653012
       -0.0001134962  -0.0000025448   0.0000788732   0.0001299769  -0.0004660193
       -0.0010356600   0.0001797569  -0.0042170236   0.0019952784  -0.0251573875
       -0.0007858900   0.0005190003   0.0012694859
       -0.0001077944  -0.0000237586   0.0003452631  -0.0015296778  -0.0003349005