51
 energy: -80.511936396859 gnorm: 0.000063488704 xtb: 6.7.1 (edcfbbe)
C            5.79805841399106        0.05432821345540        0.56287075580365
C            5.42705344849813       -0.17270866163897       -0.75234322171340
C            4.08812985786015       -0.21160934985705       -1.09999781100651
C            3.11961610024415       -0.02394824284365       -0.12202342283839
N            1.73379713082378       -0.05441686027113       -0.44238049479114
C            1.08837778733504        1.13130958307790       -0.73838511467286
C            1.81626103036270        2.28931032652563       -1.02314174760607
C            1.16442694250807        3.45520682389417       -1.36674530364389
C           -0.21994383340144        3.49024744634646       -1.43836989294476
C           -0.94937274826912        2.35497678621817       -1.13744363693460
C           -0.31157996118570        1.17511060990177       -0.78700765918170
C           -1.08212519097447       -0.02559067322675       -0.31840336917130
C           -2.52660667501457       -0.05471750377874       -0.74693769814409
C           -3.04546368783037       -0.16387641470067       -2.01331300405458
C           -4.43041181035300       -0.16781966949777       -2.16950473115598
C           -5.26656409222716       -0.06313467594753       -1.06481434618037
C           -4.75783296690290        0.04715760491493        0.21528064648829
C           -3.37223218776264        0.05158218846361        0.37912481438960
C           -2.56980794124136        0.15064501941682        1.55202669326041
N           -2.89340016589452        0.26877567871013        2.86103028195598
C           -1.90303702936843        0.34023598886587        3.74483998934984
C           -0.58333325091491        0.30010581544259        3.37984044116184
N           -0.23960860461306        0.18223778064975        2.06364197028688
C           -1.21122827984226        0.11083118071183        1.20105799558241
C           -0.32565218906447       -1.29943502827102       -0.56585764122462
C           -0.98015173996919       -2.51419231515502       -0.69885743664289
C           -0.26763756362623       -3.69587752463792       -0.78410677613939
C            1.11647438728952       -3.66842539196719       -0.70678978720023
C            1.78513673436885       -2.46899009158366       -0.57756079602122
C            1.07541021849765       -1.26701607941464       -0.52161715585145
C            3.48888918057298        0.20434778465349        1.19631925479853
C            4.82989098484452        0.24315570321270        1.53524378101086
H            6.84388318574646        0.08452866987561        0.82937646215632
H            6.18197878623339       -0.31840243458502       -1.51058449836372
H            3.78704254863608       -0.38427411268578       -2.12308466104050
H            2.89431764645451        2.26840917756500       -0.97283085676175
H            1.74076377334621        4.34244078093302       -1.58254985001317
H           -0.72837371842483        4.40192045910443       -1.71142181624311
H           -2.02843873437644        2.38067250203582       -1.16379587462283
H           -2.39378207066313       -0.24501008029945       -2.87168208042018
H           -4.85556803890142       -0.25288273459377       -3.15814848086075
H           -6.33734546723735       -0.06814626453032       -1.21129934997959
H           -5.40561688827391        0.12863257173622        1.07408289944023
H           -2.18495169142217        0.43301245038494        4.78262714484574
H            0.21862693767306        0.35713014405274        4.09525442540485
H           -2.05944756503066       -2.52867949345864       -0.72446564253899
H           -0.78910911531113       -4.63451387201920       -0.88997616112433
H            1.67979820254085       -4.58870247118525       -0.74813101659614
H            2.86250037428738       -2.45770824635898       -0.51533749500885
H            2.71687666125440        0.34784404448747        1.93743641163394
H            5.11980466112267        0.42020985079366        2.56007355909402
