$hessian                                                                        
        0.3859588771  -0.2435263847   0.1388984972  -0.0858984471   0.0758712595
        0.0520547840  -0.0091499597   0.0199572648   0.0138148526  -0.0007075823
       -0.0085754280  -0.0031904094  -0.0013704764   0.0011068044  -0.0003119530
        0.0002335282  -0.0005887876  -0.0003422341  -0.0002546089   0.0000381420
       -0.0001290377   0.0001468485  -0.0001214542   0.0000448133  -0.0002033365
        0.0002397574  -0.0000433851   0.0002368934   0.0000777866   0.0000245155
       -0.0000532894  -0.0000779170   0.0000251235   0.0000725581  -0.0000014699
        0.0000294787  -0.0000794072  -0.0000020456   0.0000045328   0.0000621542
        0.0000056506  -0.0000157266  -0.0000241259   0.0000105700  -0.0000201208
        0.0000215605  -0.0000015671  -0.0000222770  -0.0000468694  -0.0000024938
        0.0000065460   0.0000327595   0.0000053339   0.0000069318  -0.0000285863
       -0.0000133290   0.0000287032  -0.0000100821   0.0000050543   0.0000165255
        0.0000028170  -0.0000016751  -0.0000088835  -0.0000114365  -0.0000001839
        0.0000004967   0.0000007403   0.0000025213   0.0000097411  -0.0000080311
        0.0000002270  -0.0000077019  -0.0000001540   0.0000042080   0.0000134921
        0.0000403902   0.0000011822  -0.0000125332  -0.0000155829   0.0000008502
       -0.0000124953  -0.0000013354   0.0000023903  -0.0000025998  -0.0000039563
        0.0000020052  -0.0000013753  -0.0000009168   0.0000036870  -0.0000006023
       -0.0000039490   0.0000017950  -0.0000024484  -0.0000038695  -0.0000003463
        0.0000019281   0.0000534797   0.0000192080  -0.0000380342  -0.0000710142
        0.0000503511  -0.0000068230  -0.0000300783  -0.0003099346  -0.0000021228
        0.0000633573   0.0000596795   0.0000070834   0.0000240081  -0.0000921433
       -0.0000087078  -0.0000246172   0.0000063532   0.0000131326  -0.0000108239
       -0.0000313012   0.0000019905   0.0000037142   0.0000414335   0.0000042698
        0.0002512303   0.0000609049  -0.0000861571   0.0000735205  -0.0000740724
       -0.0000250632  -0.0000097484  -0.0000254593   0.0000037078  -0.0000125157
        0.0000127797   0.0000015843  -0.0000111966   0.0000073049   0.0000055669
        0.0000051985   0.0000157259  -0.0000008459   0.0000143996  -0.0000013293
       -0.0000050696   0.0000163685   0.0000061396  -0.0000009403  -0.0003724559
        0.0003010278   0.0001227029   0.0000999522  -0.0000419212  -0.0000336386
        0.0000126075   0.0000105657  -0.0000016801  -0.0000018247  -0.0000142748
       -0.0000027613  -0.0000025599  -0.0000136682  -0.0000026626  -0.0000152030
       -0.0000047689   0.0000051598  -0.0000087981   0.0000115228   0.0000048731
       -0.0000110319   0.0000084155   0.0000027420  -0.0000471556  -0.0003013389
        0.0000176131  -0.0000611509   0.0000678438  -0.0000161723  -0.0000700901
        0.0002656767  -0.0000298446   0.0004409557  -0.0000410612   0.0005665839
       -0.0239036064   0.0181890863  -0.0215833911  -0.1152145709   0.0062804702
       -0.1278785521  -0.1597152578   0.1259389100  -0.0431207122   0.0032898594
       -0.0081047455  -0.0091315026   0.0015366058   0.0065939050  -0.0026505243
       -0.0000609091  -0.0000240774   0.0000112774  -0.0000118409  -0.0000053779
        0.0000194198   0.0000060866   0.0000038110  -0.0000013929  -0.0000038346
        0.0000040928   0.0000037190  -0.0000004914  -0.0000005291  -0.0000007961
       -0.0000000003  -0.0000010927   0.0000022805   0.0000003753   0.0000036671
        0.0000016321   0.0000008112   0.0000017263   0.0000009471   0.0000000719
        0.0000007786  -0.0000015283   0.0000018947   0.0000004342  -0.0000018637
        0.0000020473   0.0000006024   0.0000009703   0.0000000319   0.0000031105
        0.0000010375   0.0000000212   0.0000003453   0.0000016521   0.0000006837
        0.0000008147   0.0000015712   0.0000007335   0.0000011860   0.0000006310
        0.0000001484  -0.0000003446   0.0000008361  -0.0000018497  -0.0000017298
       -0.0000023661   0.0000017269   0.0000000684  -0.0000090624  -0.0000170512
       -0.0000109734  -0.0000040620  -0.0000065955   0.0000056988  -0.0000045567
       -0.0000042602   0.0000046480   0.0000069578   0.0000101035  -0.0000033138
       -0.0000038135   0.0000028653  -0.0000039763  -0.0000003380  -0.0000011282
       -0.0000064031   0.0000006731  -0.0000057421  -0.0000012686   0.0000011275
       -0.0000074794   0.0000031789   0.0000034227  -0.0000044408   0.0000092931
        0.0000012567  -0.0000001999   0.0000059900   0.0000003979   0.0000044544
        0.0000015850  -0.0000003700   0.0000042932  -0.0000027711  -0.0000012978
        0.0000058115  -0.0000068929  -0.0000035623   0.0000006079   0.0000053763
        0.0000111910   0.0000126730   0.0000147054  -0.0000168299   0.0000675655
        0.0000322858   0.0000222701   0.0014540700   0.0063174273  -0.0030125695
        0.0033240650   0.0003332319   0.0059821546
       -0.2435263847   0.4714571588   0.1074580845   0.0484847475  -0.1928873943
       -0.1487657539   0.0412852516  -0.0434522078   0.0073777607  -0.0087762656
       -0.0096688889  -0.0233543819   0.0010387687  -0.0014505292   0.0003871913
       -0.0001665679   0.0004032349   0.0004152720   0.0002682711  -0.0000332224
        0.0000348280  -0.0001241098   0.0001942367  -0.0000477175   0.0001814530
       -0.0002288577   0.0000913586  -0.0001987400  -0.0000669340  -0.0000262804
        0.0000393472   0.0000616007  -0.0000193661  -0.0000616341  -0.0000001990
       -0.0000215242   0.0000600574   0.0000022205  -0.0000043575  -0.0000451580
       -0.0000041001   0.0000123731   0.0000214181  -0.0000072166   0.0000174987
       -0.0000200277   0.0000021286   0.0000170262   0.0000399585   0.0000024967
       -0.0000055795  -0.0000259162  -0.0000036951  -0.0000074031   0.0000206909
        0.0000104846  -0.0000259799   0.0000070139  -0.0000029099  -0.0000104320
       -0.0000071921   0.0000018267   0.0000059032   0.0000069063   0.0000010521
       -0.0000030294  -0.0000005359   0.0000002632  -0.0000055794   0.0000021952
        0.0000015192   0.0000048134  -0.0000015053  -0.0000032702  -0.0000096548
       -0.0000354179  -0.0000001399   0.0000094489   0.0000132595   0.0000006876
        0.0000116621  -0.0000009721   0.0000024999  -0.0000014313   0.0000009857
        0.0000014529  -0.0000000916  -0.0000005134   0.0000018207  -0.0000002550
        0.0000008078   0.0000036958   0.0000000182  -0.0000036472   0.0000009570
       -0.0000039342  -0.0000452986  -0.0000187017   0.0000340418   0.0000537520
       -0.0000395359   0.0000027736   0.0000222826   0.0002471249   0.0000057438
       -0.0000471760  -0.0000487443  -0.0000024994  -0.0000263768   0.0000719328
        0.0000139919   0.0000254466  -0.0000110572  -0.0000123335   0.0000131552
        0.0000162572  -0.0000018102  -0.0000068836   0.0000238538  -0.0000011380
       -0.0001445324  -0.0000720854   0.0000531360  -0.0000744656   0.0000738774
        0.0000264024   0.0000143516   0.0000098493  -0.0000038453   0.0000051424
       -0.0000061699   0.0000022996   0.0000133982  -0.0000073089  -0.0000034753
        0.0000024942  -0.0000123468   0.0000016642  -0.0000109518  -0.0000086372
        0.0000065537  -0.0000094005   0.0000013600   0.0000007347   0.0002764900
       -0.0002854697  -0.0000922061  -0.0000646084   0.0000984205   0.0000228368
       -0.0000222392  -0.0000150052   0.0000048195   0.0000038838   0.0000199196
        0.0000030932  -0.0000039723   0.0000117010   0.0000041088   0.0000192405
        0.0000072570  -0.0000057864   0.0000068611  -0.0000133390  -0.0000038437
        0.0000158038  -0.0000125427  -0.0000037247   0.0000062511   0.0001709605
       -0.0000033281   0.0000489012  -0.0000507213   0.0000100763   0.0001057911
       -0.0003139347  -0.0000467331  -0.0006538291   0.0001294346  -0.0005966396
       -0.0029243856   0.0177231327   0.0231575167   0.0338217579  -0.0783808276
        0.0174080502   0.1259476686  -0.1627332668   0.0388051330   0.0000659056
       -0.0007113924  -0.0020285305   0.0063390836   0.0003695962  -0.0004744815
        0.0000656019   0.0001388657   0.0000662696   0.0000258204   0.0000052809
       -0.0000065951  -0.0000117916  -0.0000046175  -0.0000011118   0.0000055703
       -0.0000031665  -0.0000038073   0.0000005296   0.0000002732   0.0000006337
        0.0000001555   0.0000010298  -0.0000012991  -0.0000001734  -0.0000029806
       -0.0000003326  -0.0000000656  -0.0000012765  -0.0000001908   0.0000001541
       -0.0000005041   0.0000015564  -0.0000012786  -0.0000001746   0.0000012703
       -0.0000006688  -0.0000001701  -0.0000005934  -0.0000001173  -0.0000027708
       -0.0000000535  -0.0000000171  -0.0000004660  -0.0000004529  -0.0000003227
       -0.0000006909  -0.0000006203  -0.0000005612  -0.0000012462   0.0000001891
        0.0000007721   0.0000004758   0.0000004384   0.0000021623   0.0000024205
        0.0000011054  -0.0000006875   0.0000002089   0.0000070014   0.0000138366
        0.0000017785  -0.0000015468   0.0000085318  -0.0000013923   0.0000023305
        0.0000035689  -0.0000049361  -0.0000063829  -0.0000039873   0.0000016483
        0.0000029411  -0.0000029839   0.0000043434   0.0000010210   0.0000002072
        0.0000053281   0.0000001848   0.0000071403   0.0000032063  -0.0000007334
        0.0000063210  -0.0000057130  -0.0000024956   0.0000038450  -0.0000070595
       -0.0000008811   0.0000002905  -0.0000050208  -0.0000001288  -0.0000048582
       -0.0000018756   0.0000007321  -0.0000045568   0.0000028101   0.0000017532
       -0.0000029657   0.0000058582   0.0000032424  -0.0000005302  -0.0000054225
       -0.0000084755  -0.0000171188   0.0000029128   0.0000177175   0.0000162637
       -0.0000036650   0.0000778951   0.0066301568   0.0004393689  -0.0000412392
       -0.0079883281  -0.0011360232  -0.0199224301
        0.1388984972   0.1074580845   0.5860269505   0.0040197203  -0.0907195310
       -0.1958511205   0.0502879558  -0.0357886830   0.0434738201  -0.0037862589
       -0.0239622663  -0.0536040730  -0.0005622943   0.0001467673  -0.0005153474
        0.0001784968  -0.0007244434   0.0000825361  -0.0001494898   0.0000886721
       -0.0001740031   0.0001982516   0.0000866658   0.0000569391  -0.0000996050
        0.0000553714   0.0000432674   0.0000608479   0.0000236960   0.0000066618
       -0.0000161745  -0.0000127384   0.0000024155   0.0000197183  -0.0000003051
        0.0000059942  -0.0000154082  -0.0000020419   0.0000014732   0.0000125862
        0.0000008556  -0.0000031151  -0.0000050056   0.0000026004  -0.0000090025
        0.0000023834   0.0000006431  -0.0000059255  -0.0000101738  -0.0000004575
        0.0000016416   0.0000077682   0.0000010280   0.0000035314  -0.0000071959
       -0.0000033527   0.0000048250  -0.0000016252   0.0000002864   0.0000026251
        0.0000023296  -0.0000020684  -0.0000015863   0.0000012220  -0.0000022158
        0.0000003784   0.0000030828  -0.0000012855   0.0000039683  -0.0000005746
       -0.0000007560   0.0000006361   0.0000009705   0.0000011445   0.0000057000
        0.0000101289   0.0000003066  -0.0000031869  -0.0000058538  -0.0000001237
       -0.0000051095  -0.0000004799   0.0000012548   0.0000014796  -0.0000020898
        0.0000019844   0.0000014264  -0.0000011913   0.0000018977   0.0000016474
       -0.0000013033   0.0000003999   0.0000006512   0.0000006509   0.0000000521
        0.0000016971   0.0000120255   0.0000076354  -0.0000128153  -0.0000151018
        0.0000113480  -0.0000056802  -0.0000007553  -0.0000502378  -0.0000055948
        0.0000136862   0.0000078218   0.0000010701   0.0000069190  -0.0000128034
       -0.0000022363  -0.0000075564   0.0000083546   0.0000024912  -0.0000024746
       -0.0000054774   0.0000004174  -0.0000033474  -0.0000203018   0.0000022091
        0.0000101243   0.0000155148  -0.0000028871   0.0000171008  -0.0000183939
       -0.0000068022  -0.0000027687   0.0000016305   0.0000023238  -0.0000006756
       -0.0000011597   0.0000025381  -0.0000028258   0.0000022545   0.0000056898
        0.0000000578   0.0000032210   0.0000038122   0.0000032270   0.0000025934
        0.0000008568  -0.0000001941  -0.0000021658   0.0000023827  -0.0000443245
        0.0000731249   0.0000190062   0.0000058128  -0.0000398469  -0.0000036475
        0.0000081419   0.0000041044  -0.0000008272  -0.0000005866  -0.0000066057
       -0.0000003366   0.0000037004  -0.0000047935  -0.0000009901  -0.0000077349
       -0.0000033952   0.0000050181  -0.0000002614   0.0000049852   0.0000043794
       -0.0000045318   0.0000054793   0.0000032560   0.0000172879  -0.0000089591
       -0.0000038763  -0.0000060819   0.0000126756  -0.0000047272   0.0000821699
        0.0000086089  -0.0000872379  -0.0003983629   0.0001086577   0.0001673407
       -0.0574291382   0.0669715413  -0.0029717440  -0.0793068277  -0.0401244050
       -0.2810521113  -0.0431041228   0.0388215901  -0.0563965322   0.0051516362
       -0.0196344825  -0.0216550585  -0.0029345561   0.0000639671   0.0016793861
        0.0000748074   0.0001747705   0.0001426786   0.0000165746   0.0000032023
        0.0000248936  -0.0000032601  -0.0000014713  -0.0000088016  -0.0000026367
        0.0000000054   0.0000018695   0.0000009286   0.0000002970   0.0000017990
        0.0000008698   0.0000002728   0.0000013821  -0.0000004455   0.0000010400
        0.0000011681  -0.0000001508   0.0000000217   0.0000004760  -0.0000005748
       -0.0000001634   0.0000001517   0.0000002897  -0.0000003006  -0.0000001819
        0.0000005171  -0.0000003019   0.0000001597   0.0000000529   0.0000010553
        0.0000004180   0.0000002512   0.0000004184   0.0000006378   0.0000003535
        0.0000004655   0.0000006585   0.0000003606   0.0000007534   0.0000001649
       -0.0000002333   0.0000002075  -0.0000000289   0.0000000481  -0.0000014076
        0.0000022242   0.0000006093  -0.0000019982   0.0000000960  -0.0000064202
       -0.0000070874  -0.0000053758  -0.0000027233   0.0000008116  -0.0000013301
       -0.0000010491   0.0000018074   0.0000011188   0.0000015396  -0.0000002611
       -0.0000003035   0.0000011696  -0.0000011159   0.0000001933   0.0000000950
       -0.0000016390   0.0000005933  -0.0000016743  -0.0000005021   0.0000011319
       -0.0000004654   0.0000016420   0.0000012752  -0.0000008223   0.0000001194
        0.0000001649   0.0000001707   0.0000013913   0.0000004055   0.0000026508
        0.0000008510  -0.0000000452   0.0000017280  -0.0000008737  -0.0000003677
        0.0000008140  -0.0000019010   0.0000010894  -0.0000013430   0.0000001047
        0.0000017201   0.0000062759   0.0000295082   0.0000085803   0.0001595452
        0.0001530953   0.0001589670  -0.0025615967  -0.0004300636   0.0016955219
       -0.0087858046  -0.0027762764  -0.0212799734
       -0.0858984471   0.0484847475   0.0040197203   0.3780568724  -0.2329445977
        0.1427415711  -0.1828302247   0.1495216690  -0.0269657003  -0.0247683933
       -0.0021786308  -0.0554199159   0.0045602224   0.0008673835  -0.0032937195
       -0.0006000274   0.0008728003   0.0004570503   0.0004470286  -0.0000992414
        0.0004042840  -0.0003963057   0.0003406517  -0.0002048383   0.0002999317
       -0.0002527196   0.0001171533  -0.0000846446  -0.0000474240  -0.0000513794
        0.0000093143   0.0000229442  -0.0000109511  -0.0000102771   0.0000036348
       -0.0000023767  -0.0000051409   0.0000081329  -0.0000074779  -0.0000016964
       -0.0000027181  -0.0000018077  -0.0000024396   0.0000019645   0.0000021568
        0.0000033724  -0.0000008681  -0.0000032716  -0.0000121014  -0.0000003213
        0.0000012354   0.0000023584  -0.0000005478   0.0000010813  -0.0000002810
       -0.0000025300  -0.0000045637  -0.0000013222  -0.0000009838   0.0000008026
       -0.0000035719   0.0000003138   0.0000007518  -0.0000032833   0.0000016453
       -0.0000011918  -0.0000029879   0.0000011236   0.0000006560  -0.0000060315
        0.0000001696  -0.0000015813  -0.0000017760   0.0000033797   0.0000027674
        0.0000157453  -0.0000010771  -0.0000015446  -0.0000051591   0.0000007695
       -0.0000036066  -0.0000030713   0.0000022994  -0.0000035883  -0.0000035190
        0.0000006559  -0.0000013373  -0.0000003308   0.0000031000  -0.0000007114
       -0.0000033371   0.0000029972  -0.0000033545  -0.0000048480  -0.0000003980
       -0.0000018455  -0.0000131928  -0.0000097392   0.0000148846   0.0000237125
       -0.0000029696   0.0000143139  -0.0000042720   0.0001129592   0.0000241211
        0.0000003183  -0.0000232643   0.0000032886  -0.0000140192   0.0000259371
        0.0000024240   0.0000350021  -0.0000062502  -0.0000175326  -0.0000022193
       -0.0000141393   0.0000042812  -0.0000264313   0.0000311768   0.0000041406
        0.0000390077  -0.0000239589  -0.0000155908  -0.0000321606  -0.0000424558
        0.0000096061   0.0000004896   0.0000224720   0.0000017512   0.0000003764
       -0.0000122217  -0.0000066150   0.0000006282   0.0000072180   0.0000024753
        0.0000029851   0.0000003937  -0.0000005314   0.0000029668   0.0000083907
       -0.0000025035  -0.0000060236  -0.0000129140   0.0000103632  -0.0000328301
        0.0000324933   0.0000096095   0.0000490005   0.0000545530  -0.0000194245
       -0.0000226705  -0.0000091587   0.0000100730   0.0000103148   0.0000115430
       -0.0000045088  -0.0000137398  -0.0000057605   0.0000012555  -0.0000012312
       -0.0000000800   0.0000005189  -0.0000066757  -0.0000036818   0.0000021439
        0.0000135369  -0.0000012623  -0.0000078575   0.0000108211  -0.0000717186
        0.0000034225   0.0000172295  -0.0000215349  -0.0000067253   0.0000451476
       -0.0003324009   0.0003846657  -0.0006674981  -0.0000122131  -0.0006362694
       -0.0215473021   0.0254712899   0.0110427834   0.0282465777  -0.0205743848
        0.0206401024  -0.0063328999   0.0162556802   0.0130006261  -0.0860055165
        0.0032795316  -0.1010158658  -0.0059191075   0.0079296657  -0.0010348849
       -0.0000843277   0.0002409318  -0.0000205425   0.0000308828   0.0000150496
       -0.0000513934   0.0000019301   0.0000001092   0.0000047150  -0.0000053445
        0.0000007633  -0.0000020582   0.0000001994  -0.0000005449  -0.0000036739
       -0.0000014613   0.0000014650   0.0000011320  -0.0000008246   0.0000019337
        0.0000014638  -0.0000015971   0.0000004821   0.0000003528  -0.0000004096
       -0.0000000260  -0.0000013008   0.0000015573   0.0000002445  -0.0000020619
        0.0000012316   0.0000008719   0.0000006033  -0.0000011344  -0.0000000184
        0.0000001785  -0.0000007212  -0.0000007504   0.0000011823   0.0000002698
        0.0000002720   0.0000009331  -0.0000002445   0.0000007439  -0.0000000682
       -0.0000005072  -0.0000002860   0.0000008736  -0.0000033697  -0.0000009731
        0.0000050984  -0.0000007193  -0.0000007293  -0.0000047692  -0.0000143889
       -0.0000132543  -0.0000008407  -0.0000051052   0.0000072239   0.0000049091
       -0.0000011458   0.0000006722   0.0000023187   0.0000006255  -0.0000031002
       -0.0000033866  -0.0000009291  -0.0000016577   0.0000005252   0.0000003151
       -0.0000036761  -0.0000000099  -0.0000022800  -0.0000006220  -0.0000004167
        0.0000011298  -0.0000017806   0.0000022951   0.0000037607  -0.0000003186
       -0.0000023084  -0.0000013620   0.0000026726  -0.0000007893   0.0000002624
       -0.0000021382   0.0000007475   0.0000007046   0.0000003341  -0.0000000373
        0.0000027461   0.0000023270  -0.0000012028   0.0000010832   0.0000068121
        0.0000009694   0.0000224699  -0.0000136005   0.0000407187   0.0001771977
        0.0001406373   0.0000038023  -0.0000302038   0.0002068794   0.0004910551
        0.0033137566   0.0027415305  -0.0046520224
        0.0758712595  -0.1928873943  -0.0907195310  -0.2329445977   0.4615178925
        0.1108811784   0.1210324236  -0.1935120674   0.0009911121   0.0192055916
        0.0156732121   0.0637574406   0.0003480137   0.0058764535  -0.0024507281
       -0.0001830930  -0.0004305722  -0.0008487723  -0.0005862731   0.0001924772
        0.0001578362   0.0004455728  -0.0006743276   0.0001637982  -0.0004078567
        0.0004849926  -0.0002759290   0.0002434962   0.0000715070   0.0000772250
       -0.0000599352  -0.0000743299   0.0000308129   0.0000502210  -0.0000104131
        0.0000245568  -0.0000492988  -0.0000121028   0.0000103657   0.0000418881
        0.0000058832  -0.0000090306  -0.0000117715   0.0000062208  -0.0000151648
        0.0000097615   0.0000004096  -0.0000142785  -0.0000184655  -0.0000018932
        0.0000015036   0.0000206985   0.0000038276   0.0000032641  -0.0000197214
       -0.0000067815   0.0000224114  -0.0000075286   0.0000041481   0.0000118524
        0.0000045435  -0.0000019098  -0.0000069023  -0.0000056794  -0.0000021967
        0.0000008041   0.0000037588   0.0000009519   0.0000073281  -0.0000022171
        0.0000002843  -0.0000056133   0.0000020034  -0.0000005481   0.0000106825
        0.0000120543   0.0000019397  -0.0000093828  -0.0000065842  -0.0000002503
       -0.0000062073   0.0000009715   0.0000023423  -0.0000010341  -0.0000006213
        0.0000026714  -0.0000008306  -0.0000002710   0.0000028256  -0.0000005055
       -0.0000008987   0.0000015179  -0.0000008564  -0.0000024140  -0.0000005504
        0.0000010795   0.0000467709   0.0000189217  -0.0000373386  -0.0000733927
        0.0000362917  -0.0000245077  -0.0000112662  -0.0002762544  -0.0000612992
        0.0000182448   0.0000538644   0.0000090079   0.0000264875  -0.0000775224
       -0.0000103190  -0.0000562369   0.0000064803   0.0000305013   0.0000022690
        0.0000125328  -0.0000083717   0.0000750576   0.0000067470  -0.0000177497
        0.0000506391   0.0000326300  -0.0000154581   0.0000989702   0.0000524241
       -0.0000297536  -0.0000018794  -0.0000491928   0.0000007546  -0.0000120934
        0.0000209492   0.0000110650  -0.0000053154  -0.0000055515   0.0000038539
        0.0000054810   0.0000096121   0.0000023083   0.0000076107  -0.0000180105
        0.0000020900   0.0000186176   0.0000203333  -0.0000093430  -0.0001395967
        0.0000445401   0.0000465398  -0.0000093981  -0.0000571466   0.0000079131
        0.0000235586   0.0000081779  -0.0000086654  -0.0000091459  -0.0000128475
        0.0000033946   0.0000094427  -0.0000030913  -0.0000022738  -0.0000036547
       -0.0000016456   0.0000021379   0.0000018088   0.0000077361   0.0000014690
       -0.0000129264   0.0000039421   0.0000078097  -0.0000684828  -0.0000704542
        0.0000165482  -0.0000497349   0.0000557771   0.0000106525  -0.0003975284
        0.0007855867   0.0003974189   0.0018498886  -0.0007855691   0.0013255521
        0.0263534234  -0.0430411768  -0.0107875694  -0.0410371310   0.0178899167
       -0.0562798567   0.0077912073  -0.0166748086  -0.0137876866   0.0035944683
       -0.0402839789  -0.0035299295   0.0157923081  -0.0169649101   0.0027243157
        0.0000779856  -0.0000910743  -0.0002312856  -0.0000670438   0.0000311553
        0.0000261871  -0.0000059961   0.0000004291  -0.0000043823   0.0000058676
        0.0000023442   0.0000031115  -0.0000004947  -0.0000001914   0.0000013717
        0.0000016925  -0.0000023175   0.0000004430   0.0000009625  -0.0000004545
       -0.0000002648   0.0000019840  -0.0000005063   0.0000004705   0.0000012854
       -0.0000005896  -0.0000006763   0.0000007170  -0.0000007360   0.0000004474
        0.0000011352  -0.0000008994   0.0000002044   0.0000009413   0.0000017546
        0.0000009555   0.0000005165   0.0000008479   0.0000007023   0.0000002264
        0.0000003228   0.0000007279   0.0000009349  -0.0000002186   0.0000010875
        0.0000014406  -0.0000001264   0.0000003050   0.0000038574  -0.0000007870
       -0.0000082220   0.0000028228   0.0000020399  -0.0000001619   0.0000067609
        0.0000023176  -0.0000019737   0.0000028298  -0.0000011202  -0.0000093064
        0.0000018067   0.0000000080   0.0000035511   0.0000065975   0.0000010129
        0.0000019912   0.0000027165  -0.0000010027   0.0000004648  -0.0000013292
       -0.0000017868   0.0000014656   0.0000001174   0.0000006956   0.0000015471
       -0.0000022628   0.0000011467  -0.0000006315  -0.0000052405   0.0000023929
        0.0000023741   0.0000017225   0.0000007407   0.0000012490   0.0000031550
        0.0000024307  -0.0000004314   0.0000023782  -0.0000022789  -0.0000000347
        0.0000005013  -0.0000054384   0.0000011090  -0.0000009877  -0.0000065689
        0.0000049358   0.0000640725  -0.0000263080  -0.0000619464  -0.0000513835
       -0.0001359244  -0.0001978644   0.0000381898  -0.0004776850  -0.0000112327
        0.0030380186   0.0037278521  -0.0013079825
        0.0520547840  -0.1487657539  -0.1958511205   0.1427415711   0.1108811784
        0.6061972594  -0.0743567068   0.0571877386  -0.1027839674  -0.0199521594
        0.0237786849  -0.0016784157  -0.0040692168  -0.0015124940  -0.0037827779
        0.0002319508  -0.0007465353   0.0000589130  -0.0001478683   0.0000399477
       -0.0000217857   0.0000629576  -0.0000386657   0.0000239385   0.0000149476
        0.0000295056  -0.0000063687   0.0000620501  -0.0000054956  -0.0000072771
       -0.0000251489  -0.0000218189   0.0000086969   0.0000443311  -0.0000107878
        0.0000360890  -0.0000603755  -0.0000016658  -0.0000006624   0.0000539977
        0.0000027768  -0.0000209362  -0.0000296591   0.0000120028  -0.0000380463
        0.0000278111  -0.0000005787  -0.0000351845  -0.0000801943  -0.0000087418
        0.0000090135   0.0000454459   0.0000082756   0.0000190980  -0.0000346655
       -0.0000124679   0.0000429693  -0.0000148920   0.0000047752   0.0000200061
        0.0000173300  -0.0000029359  -0.0000092447  -0.0000094895  -0.0000023028
        0.0000097381   0.0000022833  -0.0000001113   0.0000143890  -0.0000080408
       -0.0000008847  -0.0000078684   0.0000071673   0.0000045164   0.0000243152
        0.0000797195   0.0000049207  -0.0000186048  -0.0000330520  -0.0000045999
       -0.0000288674   0.0000024880   0.0000002995   0.0000053636  -0.0000061724
        0.0000039646  -0.0000009792  -0.0000020390   0.0000031967   0.0000015508
       -0.0000053680  -0.0000028176   0.0000003117   0.0000039984  -0.0000002633
        0.0000092302   0.0000256440   0.0000187830  -0.0000323256  -0.0000233229
        0.0000266744  -0.0000079277   0.0000118682  -0.0000674742  -0.0000108727
        0.0000188177   0.0000294592   0.0000066219   0.0000307654  -0.0000462305
       -0.0000149377  -0.0000197247   0.0000212795   0.0000042581  -0.0000075204
       -0.0000298107  -0.0000028293   0.0000803375  -0.0001063505  -0.0000216681
       -0.0001040018   0.0000190320   0.0000316807   0.0000934598   0.0000353753
       -0.0000340028  -0.0000112186   0.0000113505   0.0000041553  -0.0000040386
       -0.0000098516   0.0000037895  -0.0000117336   0.0000157942   0.0000078009
        0.0000036447   0.0000031509   0.0000020144   0.0000158199   0.0000123928
       -0.0000038744   0.0000047941  -0.0000150727  -0.0000009166  -0.0000459909
        0.0001019282   0.0000219800  -0.0000420973  -0.0001320995   0.0000127956
        0.0000190019   0.0000131650  -0.0000044470   0.0000025599  -0.0000191716
       -0.0000024591   0.0000046608  -0.0000138021  -0.0000033621  -0.0000164078
       -0.0000075641   0.0000071595  -0.0000088816   0.0000157579   0.0000089157
       -0.0000079349   0.0000191349   0.0000047678   0.0000258674   0.0000599557
       -0.0000093021  -0.0000205379   0.0000364201  -0.0000038338  -0.0003611230
       -0.0000678053  -0.0000558442  -0.0008620655   0.0008909606  -0.0001853734
        0.0123109420  -0.0121999415  -0.0015824395  -0.0150675374  -0.0134993061
       -0.0525956222  -0.0013449382   0.0036107281   0.0040132016  -0.1010001127
       -0.0033209156  -0.2518200514   0.0134815137  -0.0147464318   0.0034235477
        0.0001349870   0.0001259595  -0.0000896948  -0.0000001989  -0.0000186619
        0.0000209585  -0.0000072694  -0.0000017203  -0.0000116353  -0.0000001036
        0.0000038453  -0.0000030100  -0.0000015215  -0.0000019308   0.0000014209
        0.0000036832  -0.0000021398   0.0000046270  -0.0000023167   0.0000006002
        0.0000008122  -0.0000013616  -0.0000013828   0.0000009364   0.0000006251
       -0.0000018565  -0.0000057324   0.0000053464  -0.0000014339  -0.0000030592
        0.0000038102  -0.0000010702   0.0000016082  -0.0000000221   0.0000051171
        0.0000000189  -0.0000000070   0.0000006898   0.0000028027   0.0000018773
        0.0000021045   0.0000034872   0.0000028381   0.0000037633   0.0000008363
       -0.0000006556  -0.0000003990  -0.0000012919   0.0000028243  -0.0000050647
       -0.0000013315   0.0000000157  -0.0000035208  -0.0000044683  -0.0000084363
       -0.0000015894  -0.0000074159  -0.0000148548  -0.0000029578   0.0000020337
        0.0000006710  -0.0000050619   0.0000028594   0.0000024213   0.0000021834
        0.0000007874   0.0000085405  -0.0000102233  -0.0000006514  -0.0000012165
       -0.0000138272   0.0000018228  -0.0000112788  -0.0000073857   0.0000038183
        0.0000020025   0.0000056067   0.0000002533  -0.0000049906  -0.0000025452
       -0.0000002482   0.0000027655   0.0000058684   0.0000008421   0.0000128112
        0.0000045676  -0.0000018325   0.0000117472  -0.0000072315  -0.0000031133
       -0.0000017019  -0.0000053445   0.0000026496  -0.0000015933  -0.0000034633
        0.0000032601  -0.0000555365   0.0000738624  -0.0000393823   0.0000565828
        0.0000923012   0.0000074554   0.0004360861  -0.0000080464   0.0007011861
       -0.0043648647  -0.0017019892  -0.0039409838
       -0.0091499597   0.0412852516   0.0502879558  -0.1828302247   0.1210324236
       -0.0743567068   0.3784628150  -0.2432675301   0.1250266153  -0.1038495229
        0.0236666810  -0.0736268094  -0.0196934298   0.0114123510  -0.0226399549
        0.0001649837  -0.0035065649  -0.0021219484  -0.0015574916   0.0003143480
       -0.0000027886   0.0012641940  -0.0015013776   0.0004616347  -0.0007310576