$hessian                                                                        
        0.5173635984   0.0258977154  -0.0002077619  -0.0691560953   0.0306451706
       -0.0037195417  -0.0002089304   0.0037600309  -0.0020573066   0.0011861090
       -0.0192441881  -0.0008509279  -0.0126515713   0.0253955995   0.0031388107
       -0.0008149054   0.0004284328  -0.0002163995   0.0005876873  -0.0001814292
        0.0003632903   0.0006811766   0.0001231203   0.0001194282  -0.0006930491
       -0.0006910321   0.0015186227  -0.0023046084   0.0002182399  -0.0004918423
        0.0000034323  -0.0002605685  -0.0000294913  -0.0001075814  -0.0000283053
       -0.0000052788   0.0000127882  -0.0000109266  -0.0000371341  -0.0000328720
       -0.0000170639  -0.0000078203   0.0000225472   0.0000266833   0.0000065706
        0.0000264484   0.0000102277   0.0000158994   0.0000036985   0.0000172206
        0.0000104350  -0.0000051661   0.0000024036   0.0000204140   0.0000479855
        0.0000051839  -0.0000370518  -0.0002517542  -0.0000022015  -0.0001504348
       -0.0006147896   0.0002559166   0.0003540978   0.0003856086   0.0001768336
        0.0000835832  -0.0000603647  -0.0000775863  -0.0000537386   0.0000821989
       -0.0000623229  -0.0000059605   0.0000550589   0.0000959314  -0.0000008981
       -0.0000278427  -0.0000330403   0.0000098604  -0.0000176040  -0.0000162896
        0.0000057268  -0.0000014262  -0.0000158094  -0.0000055713   0.0000141089
        0.0000114709  -0.0000013027  -0.0000213362  -0.0000129682   0.0000063586
        0.0000214910   0.0000064933  -0.0000140091  -0.0000151973   0.0000054271
        0.0000145996  -0.0000692474   0.0000536973  -0.0000051083   0.0001403363
       -0.0000791553   0.0000320367  -0.0001402261   0.0000822025  -0.0000178118
        0.0000829095   0.0000210263  -0.0000222515  -0.0000159812  -0.0000048266
        0.0000089074   0.0000108075  -0.0000016116  -0.0000056520   0.0000019796
        0.0000092616  -0.0000060897   0.0000038710  -0.0000020479  -0.0000008323
       -0.0000050889   0.0000010460   0.0000009029  -0.0000054774   0.0000006596
       -0.0000008749  -0.0000037834  -0.0000016022   0.0000013521  -0.0000001902
       -0.0000089189   0.0000033400  -0.0000085140   0.0000240542  -0.0000131992
       -0.0000195900  -0.0000069650   0.0000121394   0.0000054777   0.0000080371
       -0.0000079801  -0.0000090257  -0.0000033051   0.0000064539   0.0000028615
       -0.0000056101  -0.0000014437   0.0000016459   0.0000023378  -0.0000047163
       -0.0000002463  -0.0000007613  -0.0000059656   0.0000016530   0.0000007838
       -0.0000039919   0.0000032355  -0.0000148326   0.0000068426   0.0000119851
        0.0000053001  -0.0000202473  -0.0000061301  -0.0000597395   0.0000244434
       -0.0001382280  -0.0000174467   0.0000009630  -0.1513742068  -0.0922859528
       -0.0771721692  -0.0442773304   0.0013482911  -0.0069651678  -0.2361094916
        0.0286835743   0.0880676626   0.0004394223   0.0000640103  -0.0005075388
        0.0002001806   0.0005738529   0.0002203047   0.0004388921  -0.0007069056
        0.0002532398   0.0008470863  -0.0014377434  -0.0003232454  -0.0024910002
       -0.0036870461  -0.0017641139   0.0004181704  -0.0004200994   0.0004341303
       -0.0011731627   0.0010995265   0.0001023506   0.0000063083   0.0000143553
       -0.0000021800  -0.0001584042   0.0002625715  -0.0001941414   0.0000045092
       -0.0000017086   0.0000016654   0.0000044968   0.0000095184   0.0000221472
       -0.0000038245  -0.0000058022  -0.0000055262  -0.0000020049  -0.0000027132
       -0.0000099181  -0.0000035460  -0.0000080650  -0.0000047450   0.0000000819
       -0.0000092220  -0.0000057232   0.0000014235   0.0000203323   0.0000114300
        0.0000072480   0.0000138611   0.0000144635  -0.0000113977  -0.0000061107
       -0.0000015930  -0.0000078158  -0.0000064928  -0.0000024034  -0.0000190879
        0.0000159717   0.0000292586  -0.0000420248   0.0000140186   0.0000195873
        0.0000009373   0.0000219394   0.0000028129  -0.0000005550   0.0000037392
       -0.0000009281  -0.0000045647   0.0000002625   0.0000044424  -0.0000077347
       -0.0000043439   0.0000028734  -0.0000026670  -0.0000019355   0.0000006891
       -0.0000165065   0.0000005856  -0.0000065380   0.0000020893   0.0000031364
       -0.0000002269  -0.0000026727  -0.0000023620   0.0000036655  -0.0000039387
       -0.0000002765   0.0000014785   0.0000013450   0.0000018588   0.0000000420
        0.0000013300   0.0000010905   0.0000008956   0.0000013307   0.0000016428
       -0.0000007978   0.0000012627   0.0000003446  -0.0000007513  -0.0000035149
        0.0000009653   0.0000030124  -0.0000039082   0.0000006018   0.0000015441
        0.0000017464   0.0000004398   0.0000000147   0.0000015192   0.0000003440
       -0.0000010400  -0.0000029824   0.0000028032  -0.0000014139  -0.0000061794
        0.0000019451   0.0000018217  -0.0000004612  -0.0000015720   0.0000005572
       -0.0000006895  -0.0000022846   0.0000004165  -0.0000013758   0.0000035701
       -0.0000026651   0.0000011922  -0.0000017469   0.0000002399  -0.0000016938
       -0.0000032687   0.0000016918  -0.0000007653   0.0000042999  -0.0000026369
       -0.0000014213   0.0000024295  -0.0000034481  -0.0000013300  -0.0000013009
        0.0000037274  -0.0000011592  -0.0000020194   0.0000011155   0.0000009319
       -0.0000005834   0.0000004068  -0.0000036185   0.0000008130   0.0000072633
        0.0000056546  -0.0000030928   0.0000075181
        0.0258977154   0.4494081607   0.0079801269   0.0243879968  -0.1713466016
        0.0089115637   0.0034217007  -0.0150944873   0.0066602341  -0.0008854706
       -0.0264016099  -0.0024305158   0.0113256365  -0.0092019127  -0.0039677437
       -0.0011057600  -0.0006688136  -0.0000151564   0.0001110975   0.0001034563
       -0.0003731008   0.0001787869  -0.0000001939  -0.0001641639   0.0002662899
        0.0000743032  -0.0005565299   0.0001888419   0.0001660045   0.0010580528
        0.0000434395   0.0000756094  -0.0000076330  -0.0000910254  -0.0000577731
       -0.0000461166  -0.0000170576   0.0000042707   0.0000152998  -0.0000197838
       -0.0000049896   0.0000093132   0.0000066755   0.0000086797   0.0000129342
        0.0000045560   0.0000124511   0.0000167456  -0.0000017497   0.0000145473
        0.0000313105   0.0000096885   0.0000057603   0.0000018162   0.0000465482
       -0.0000116422  -0.0000266041  -0.0000471024  -0.0000690336  -0.0000533971
       -0.0002337896   0.0000346893   0.0001661953   0.0001194680   0.0000511775
        0.0000477389  -0.0000257938  -0.0000302583  -0.0000228393   0.0000404226
        0.0000137705   0.0000026580   0.0000620027  -0.0000545384  -0.0000274263
       -0.0000623196   0.0000478566   0.0000239129  -0.0000096436  -0.0000002670
        0.0000040613  -0.0000011871  -0.0000041881  -0.0000019544   0.0000029242
        0.0000022592   0.0000006776  -0.0000054111   0.0000008435   0.0000006610
        0.0000070256   0.0000003317  -0.0000028233   0.0000022036   0.0000030744
       -0.0000014222  -0.0000166471   0.0000180311  -0.0000074898   0.0000695795
       -0.0000335927   0.0000136989  -0.0000381694   0.0000537501  -0.0000222699
        0.0000094662   0.0000117265   0.0000006816  -0.0000028920  -0.0000060991
        0.0000052111   0.0000038395  -0.0000006967  -0.0000014449  -0.0000010844
        0.0000044724  -0.0000025794  -0.0000017885  -0.0000013034  -0.0000004545
       -0.0000003915  -0.0000024055  -0.0000007535  -0.0000006570  -0.0000019055
        0.0000005208  -0.0000015479  -0.0000006560  -0.0000004427  -0.0000041033
       -0.0000014207   0.0000025696   0.0000034766   0.0000028368  -0.0000040830
       -0.0000135975   0.0000043545   0.0000022331   0.0000034510  -0.0000026887
        0.0000008440  -0.0000020405  -0.0000004360   0.0000023187  -0.0000044977
       -0.0000019084  -0.0000016454  -0.0000037728   0.0000016917  -0.0000004744
       -0.0000072676   0.0000047583  -0.0000004565  -0.0000060802   0.0000028318
       -0.0000019822  -0.0000051347  -0.0000030792   0.0000058240  -0.0000120178
        0.0000077367  -0.0000035893   0.0000009291  -0.0000428533   0.0000204096
       -0.0000507177  -0.0000088479   0.0000022318  -0.0921706866  -0.1197315007
       -0.0653341201   0.0012237395  -0.0600852291   0.0614480825   0.0282726204
       -0.0461167443  -0.0130033529   0.0001648485  -0.0005868400   0.0021202664
       -0.0002175852   0.0007659954  -0.0010050034   0.0000616198   0.0003890129
       -0.0007990269   0.0011441129   0.0004538717   0.0002819574  -0.0026161089
       -0.0026912138  -0.0017667833   0.0007808782   0.0005986025   0.0006617540
       -0.0003308954  -0.0000510704   0.0000013022  -0.0000171228  -0.0000443748
        0.0000190015   0.0000961372  -0.0000270480   0.0001494348   0.0000357848
        0.0000020417  -0.0000024596   0.0000010067   0.0000042384   0.0000007135
       -0.0000027555   0.0000041458  -0.0000037468   0.0000058914   0.0000007882
       -0.0000094294  -0.0000038410   0.0000033560  -0.0000042246   0.0000073885
       -0.0000048254  -0.0000038706   0.0000001675   0.0000030843   0.0000007706
        0.0000014428   0.0000027514  -0.0000011591   0.0000011409   0.0000060161
       -0.0000095005  -0.0000005266  -0.0000027443  -0.0000006082   0.0000054281
        0.0000084670   0.0000008551  -0.0000061573  -0.0000043782   0.0000009453
        0.0000034084   0.0000007627   0.0000027681   0.0000004292   0.0000013384
        0.0000014553   0.0000002118  -0.0000000369   0.0000020619   0.0000002200
       -0.0000004331   0.0000014389   0.0000004064  -0.0000004234   0.0000027126
        0.0000001459   0.0000044607  -0.0000019328  -0.0000004299   0.0000044160
       -0.0000011849   0.0000019573   0.0000024011  -0.0000022268   0.0000015345
        0.0000001743  -0.0000003872  -0.0000001052   0.0000014780  -0.0000008000
        0.0000005609  -0.0000001203   0.0000009721  -0.0000003046   0.0000016746
       -0.0000008331  -0.0000004573   0.0000004027  -0.0000001153   0.0000008730
       -0.0000006459  -0.0000011324   0.0000010541  -0.0000010041  -0.0000007273
       -0.0000004133  -0.0000004601  -0.0000000580  -0.0000003604   0.0000003383
       -0.0000001021  -0.0000000375  -0.0000011570  -0.0000010026   0.0000032907
        0.0000001681  -0.0000004468   0.0000008739  -0.0000010696  -0.0000022069
        0.0000043376   0.0000011640   0.0000004738   0.0000004825  -0.0000019992
        0.0000006754   0.0000001433  -0.0000003851  -0.0000009305   0.0000018355
        0.0000001824   0.0000006345   0.0000009450  -0.0000006138   0.0000004412
        0.0000005656  -0.0000008007   0.0000002789   0.0000005424  -0.0000006064
       -0.0000001893   0.0000022517   0.0000015753   0.0000022901   0.0000031518
        0.0000030254  -0.0000041378   0.0000028433  -0.0000023459   0.0000015315
       -0.0000017449   0.0000069035   0.0000041288
       -0.0002077619   0.0079801269   0.5210979510  -0.0021404755   0.0053616800
       -0.0607611458  -0.0069272197   0.0279220821  -0.0078417689   0.0007075070
       -0.0136791511  -0.0003450409   0.0061366453  -0.0114684974  -0.0002742887
        0.0000494414  -0.0009165140   0.0000422362  -0.0000555678   0.0001920513
       -0.0002416011  -0.0003300901   0.0000013436  -0.0000041997   0.0001630096
        0.0003234840  -0.0007491818   0.0014522429   0.0000227363  -0.0003135490
        0.0000549205   0.0000801949  -0.0000230655   0.0000161992   0.0000165717
       -0.0000021137   0.0000042242   0.0000046351   0.0000167204   0.0000061479
        0.0000129440   0.0000005727  -0.0000113467  -0.0000006262  -0.0000026719
       -0.0000114288   0.0000063954  -0.0000101316  -0.0000029421   0.0000077010
       -0.0000047086  -0.0000118944  -0.0000078165  -0.0000164147  -0.0000082094
        0.0000071909   0.0000212314   0.0000736121  -0.0000485672   0.0000353785
        0.0002654728  -0.0000549471  -0.0000786923  -0.0001548981  -0.0000796463
       -0.0000236139   0.0000213787   0.0000313933   0.0000044789  -0.0000340476
        0.0000266455  -0.0000020751  -0.0000066606  -0.0000528680  -0.0000028463
        0.0000007129   0.0000215479   0.0000082790   0.0000083263   0.0000061362
        0.0000008981   0.0000005398   0.0000056176   0.0000006275  -0.0000056941
       -0.0000067357   0.0000025805   0.0000072509   0.0000046377   0.0000022394
       -0.0000039414  -0.0000020478   0.0000024309   0.0000069967  -0.0000031028
       -0.0000041157   0.0000240115  -0.0000266498   0.0000043850  -0.0000636970
        0.0000376960  -0.0000118045   0.0000568797  -0.0000452948   0.0000080521
       -0.0000283492  -0.0000102685   0.0000099300   0.0000043372   0.0000019753
       -0.0000049667  -0.0000061014   0.0000029944   0.0000028165  -0.0000004835
       -0.0000039378   0.0000038530   0.0000013347   0.0000004177  -0.0000020682
        0.0000015446   0.0000003179  -0.0000004108   0.0000007982   0.0000011275
       -0.0000014789   0.0000009680   0.0000000255  -0.0000009499   0.0000018413
        0.0000016827  -0.0000002770  -0.0000006068  -0.0000084771   0.0000039634
        0.0000108322  -0.0000007756  -0.0000054578  -0.0000046761  -0.0000014790
        0.0000000263   0.0000042032   0.0000005236  -0.0000035742  -0.0000012198
       -0.0000006139  -0.0000032767   0.0000004553  -0.0000030328  -0.0000000023
        0.0000009526  -0.0000032892  -0.0000013169   0.0000014631  -0.0000040078
       -0.0000009984   0.0000007670   0.0000024425  -0.0000055253  -0.0000014606
       -0.0000055477   0.0000057702   0.0000024638   0.0000374635  -0.0000133830
        0.0000593408   0.0000122566   0.0000002860  -0.0773831478  -0.0656891165
       -0.0990140538  -0.0071343941   0.0618115731  -0.2639217284   0.0882192303
       -0.0133764310  -0.0844520247  -0.0006648240   0.0033076267  -0.0055842797
        0.0001819423   0.0008498595   0.0010876688  -0.0006772526   0.0005743412
        0.0008838820   0.0003570731   0.0002338610   0.0002329066  -0.0018900548
       -0.0023402890  -0.0008107580   0.0001593082  -0.0009800567   0.0006729458
       -0.0003369512   0.0000789972   0.0001172973   0.0000014613   0.0000088303
        0.0000219031  -0.0000144050  -0.0001312558   0.0002531559  -0.0000030052
       -0.0000022469   0.0000096269  -0.0000012981  -0.0000051338  -0.0000126014
        0.0000021153  -0.0000013434   0.0000015594   0.0000059281   0.0000016485
       -0.0000009848   0.0000007624   0.0000004776   0.0000032551   0.0000069185
        0.0000009979  -0.0000006620  -0.0000010743  -0.0000104057  -0.0000075844
       -0.0000036107  -0.0000078832  -0.0000083689  -0.0000003830   0.0000038809
        0.0000032529   0.0000062162  -0.0000047770   0.0000019109   0.0000143855
       -0.0000063407  -0.0000125061   0.0000239773  -0.0000061093  -0.0000049555
        0.0000035024  -0.0000060110   0.0000125644  -0.0000016096   0.0000005969
        0.0000049390   0.0000012566   0.0000020523   0.0000014479   0.0000010224
        0.0000009820   0.0000029616  -0.0000019540  -0.0000004895   0.0000027293
        0.0000058173  -0.0000001531   0.0000046428   0.0000003215  -0.0000020510
        0.0000024535   0.0000005711  -0.0000000079   0.0000007477   0.0000008912
        0.0000002785   0.0000005665  -0.0000007053  -0.0000006873   0.0000009396
       -0.0000005716  -0.0000001609   0.0000006861  -0.0000004994  -0.0000002519
        0.0000020254  -0.0000001500   0.0000013475   0.0000008904   0.0000010229
        0.0000007411   0.0000004842   0.0000000493   0.0000008323  -0.0000004662
       -0.0000002735  -0.0000003955   0.0000010256  -0.0000004414   0.0000006546
        0.0000001106   0.0000005293  -0.0000010259   0.0000000277   0.0000010450
       -0.0000013469  -0.0000010119  -0.0000014033   0.0000005902   0.0000003449
       -0.0000004061  -0.0000010581  -0.0000014460  -0.0000004839  -0.0000013477
       -0.0000015366  -0.0000008830   0.0000013153   0.0000002903   0.0000006120
       -0.0000001380  -0.0000025635  -0.0000000976  -0.0000021035  -0.0000012762
       -0.0000003741  -0.0000024562  -0.0000006638   0.0000002619  -0.0000004119
       -0.0000016684  -0.0000007616  -0.0000011576  -0.0000014248  -0.0000011888
       -0.0000016438   0.0000005073  -0.0000007531   0.0000019521  -0.0000027306
       -0.0000013135   0.0000007054  -0.0000024448
       -0.0691560953   0.0243879968  -0.0021404755   0.4880763010   0.0112080227
        0.0043840313  -0.0620046914   0.0015763572  -0.0101345433  -0.1263450093
       -0.0460923630  -0.0375084274  -0.1563079919   0.0131969747   0.0460356948
       -0.0299738091  -0.0018966725   0.0063962874  -0.0010910547  -0.0029476979
       -0.0017962933  -0.0011631547   0.0000771524   0.0005212025   0.0015905024
       -0.0008711909   0.0006001887  -0.0055944604   0.0057022635   0.0086827742
       -0.0000431498  -0.0001472876  -0.0000289570   0.0001315936   0.0001029276
        0.0000561927   0.0000999966   0.0000151617  -0.0000300326   0.0000127407
       -0.0000019676   0.0000000446  -0.0000284222  -0.0000360655  -0.0000175211
       -0.0000420817  -0.0000201220  -0.0000299364  -0.0000281168  -0.0000190971
       -0.0000223462  -0.0001041411  -0.0000822325  -0.0000675088  -0.0001323071
        0.0000949302   0.0001349120   0.0001129633  -0.0000804381  -0.0001399245
        0.0008848984   0.0000649278  -0.0004360120  -0.0004556825  -0.0002269266
       -0.0001464996   0.0001152772   0.0000450772   0.0000729100  -0.0000890162
        0.0000822568   0.0000197272   0.0000164380  -0.0001321058  -0.0000340495
       -0.0000416994   0.0000572933   0.0000118332   0.0000048672   0.0000137240
       -0.0000017007  -0.0000001985   0.0000092072  -0.0000018512   0.0000018567
        0.0000060369   0.0000094494  -0.0000069495  -0.0000003350   0.0000010339
       -0.0000070263  -0.0000047713  -0.0000015622   0.0000048163   0.0000011453
       -0.0000012450   0.0000760250  -0.0000397001   0.0000042145  -0.0001511223
        0.0000391106  -0.0000331841   0.0000891974  -0.0000680367   0.0000257290
       -0.0000412231  -0.0000128143   0.0000014362   0.0000136142   0.0000054592
       -0.0000084424   0.0000010516  -0.0000035627   0.0000065304  -0.0000027856
       -0.0000035055   0.0000057685   0.0000006694   0.0000030777   0.0000022448
        0.0000032626   0.0000031628   0.0000025308   0.0000052556   0.0000020928
        0.0000014376   0.0000039846   0.0000011970   0.0000028276   0.0000032705
        0.0000113604  -0.0000034234  -0.0000003859  -0.0000157270   0.0000107879
        0.0000130310   0.0000030921  -0.0000094116  -0.0000076009  -0.0000015586
        0.0000035676   0.0000081506   0.0000004583  -0.0000059486  -0.0000012955
       -0.0000036312   0.0000028805   0.0000053329  -0.0000036886   0.0000018367
        0.0000034066  -0.0000073314   0.0000025819   0.0000008114  -0.0000058413
        0.0000037794   0.0000011576   0.0000028793  -0.0000067688   0.0000129421
       -0.0000117627   0.0000105914  -0.0000002128   0.0000445701  -0.0000148730
        0.0001584181   0.0000321236  -0.0000074109   0.0037164143  -0.0188577003
        0.0006362477  -0.0006955850   0.0022543273  -0.0012622385  -0.0107725790
        0.0270151796  -0.0000763382  -0.0004666399   0.0027627459  -0.0075326394
       -0.0025925270   0.0042703585  -0.0197092806  -0.0017139703  -0.0070439760
        0.0262580058  -0.0259036616  -0.0141722258  -0.0096936559   0.0035726287
        0.0006919351   0.0019046233  -0.0032490738  -0.0015135800  -0.0043491371
        0.0004844862   0.0010844748   0.0005241159  -0.0007603825   0.0000644105
        0.0003658364  -0.0001787680  -0.0005979189  -0.0013773072  -0.0000364060
       -0.0000211408  -0.0000042146  -0.0000021239  -0.0000183747  -0.0000271092
        0.0000077114   0.0000054476   0.0000011671   0.0000053419   0.0000056802
        0.0000041883   0.0000112275   0.0000021601   0.0000034886   0.0000056425
        0.0000071641   0.0000031065  -0.0000006921  -0.0000250986  -0.0000223636
       -0.0000005950  -0.0000184350  -0.0000204869   0.0000206297  -0.0000045686
       -0.0000012426   0.0000174291   0.0000045956  -0.0000102331   0.0000191355
       -0.0000241699  -0.0000156128   0.0000572759   0.0000212103  -0.0000119524
       -0.0000339498   0.0000151580  -0.0000081967  -0.0000092116  -0.0000035606
        0.0000061615  -0.0000053731  -0.0000011524   0.0000023601  -0.0000066379
       -0.0000007595   0.0000013003  -0.0000097083  -0.0000036739  -0.0000005246
       -0.0000099153  -0.0000019055   0.0000089517  -0.0000088601  -0.0000018074
        0.0000028505  -0.0000045482   0.0000027707   0.0000022875  -0.0000022534
        0.0000022087   0.0000038003  -0.0000034788   0.0000009821   0.0000045071
       -0.0000044562   0.0000022658   0.0000023804  -0.0000019984   0.0000012784
        0.0000042592  -0.0000011600   0.0000041324   0.0000036944   0.0000003843
        0.0000029780   0.0000048601  -0.0000018574   0.0000045635   0.0000033437
       -0.0000033606   0.0000028732   0.0000020844  -0.0000012480   0.0000047748
        0.0000042050  -0.0000032895   0.0000008565   0.0000028533  -0.0000020060
        0.0000013063   0.0000000624  -0.0000019867   0.0000032856   0.0000019312
       -0.0000043798   0.0000014642  -0.0000004991  -0.0000034754   0.0000023485
        0.0000005428  -0.0000015947   0.0000027765  -0.0000014850  -0.0000013922
        0.0000024787  -0.0000042709   0.0000008601   0.0000001114  -0.0000000514
       -0.0000020900  -0.0000013238  -0.0000018418  -0.0000024869   0.0000020366
       -0.0000029795  -0.0000049660   0.0000004944  -0.0000019497  -0.0000091803
        0.0000034680  -0.0000006771  -0.0000134604   0.0000052238  -0.0000058185
       -0.0000199868  -0.0000017598  -0.0000077867
        0.0306451706  -0.1713466016   0.0053616800   0.0112080227   0.4647609013
        0.0062739841  -0.0005620723  -0.0698525109   0.0324513709  -0.0474530350
       -0.0984839667  -0.0290931184   0.0103588322  -0.0611199011  -0.0101178229
       -0.0101249125   0.0016132273   0.0064529550  -0.0033379429   0.0017882265
       -0.0031698772  -0.0002308880  -0.0001674697  -0.0005855497  -0.0008290736
        0.0022072284  -0.0058578412   0.0146356800  -0.0024671102  -0.0085810775
        0.0005243632   0.0003494882  -0.0003108259   0.0000453549  -0.0000436926
       -0.0000135825  -0.0000382322  -0.0000152345   0.0000349260  -0.0000037678
        0.0000177899   0.0000004567  -0.0000124458  -0.0000151876   0.0000087731
       -0.0000114247   0.0000014425   0.0000014388  -0.0000173876  -0.0000007660
        0.0000143356   0.0000037922   0.0000405904   0.0000068449   0.0000449913
       -0.0000354122   0.0000061283   0.0002006258  -0.0003062628   0.0001158000
        0.0001661025  -0.0006164392   0.0002751657  -0.0000123758  -0.0000307101
        0.0000924186   0.0000518638   0.0000114766  -0.0000032179  -0.0000359081
        0.0000143362  -0.0000184508   0.0000031799  -0.0000315867  -0.0000214310
       -0.0000078005   0.0000188809   0.0000114690   0.0000039784   0.0000055441
       -0.0000003499   0.0000009060   0.0000005798   0.0000013799  -0.0000014182
        0.0000014522   0.0000021963  -0.0000006324  -0.0000015171  -0.0000013161
        0.0000007811  -0.0000013448  -0.0000011974   0.0000047936  -0.0000013785
       -0.0000018273   0.0000241405  -0.0000371858  -0.0000006277   0.0000179183
        0.0000230843  -0.0000126756   0.0000133949   0.0000002030  -0.0000023762
       -0.0000091225  -0.0000002861   0.0000033989   0.0000022574  -0.0000018475
       -0.0000000473  -0.0000011136  -0.0000002672   0.0000007350  -0.0000002945
       -0.0000015394   0.0000004673  -0.0000002981  -0.0000006404  -0.0000002790
        0.0000009915  -0.0000022653  -0.0000007032   0.0000011108  -0.0000019981
        0.0000004143   0.0000008862  -0.0000019181   0.0000001869   0.0000000707
        0.0000012819   0.0000000797   0.0000002683  -0.0000031352   0.0000009408
        0.0000000894   0.0000005573  -0.0000012617   0.0000000680  -0.0000019508
        0.0000011632   0.0000000845  -0.0000001787   0.0000005354  -0.0000008750
       -0.0000008094   0.0000004136  -0.0000042702   0.0000003926   0.0000012491
       -0.0000038765  -0.0000004165   0.0000014084  -0.0000034003   0.0000004279
        0.0000012647  -0.0000017849   0.0000008377   0.0000000732  -0.0000026250
       -0.0000013450   0.0000021501   0.0000003071   0.0000039076  -0.0000012732
        0.0000199140   0.0000095227   0.0000088456   0.0014984201  -0.0204934118
       -0.0009460562   0.0033328113  -0.0117493705   0.0041285696   0.0050774969
       -0.0085861972  -0.0012675635   0.0019057755  -0.0117351044   0.0278644855
       -0.0013409034   0.0033945427  -0.0151929690  -0.0004843746   0.0008507127
       -0.0017100077   0.0014440039   0.0018364751   0.0019017232  -0.0207721907
       -0.0205541409  -0.0125068471   0.0044703074   0.0032312404   0.0018963796
       -0.0000182069  -0.0013023600   0.0011050001  -0.0008701368   0.0000781324
        0.0001055051   0.0003553638  -0.0012319916   0.0013662368   0.0000164460
       -0.0000012554  -0.0000224927  -0.0000013869  -0.0000029550  -0.0000109683
        0.0000039089   0.0000095546   0.0000003689   0.0000044944   0.0000049143
       -0.0000015702   0.0000030896   0.0000004250   0.0000045041   0.0000060366
        0.0000007905   0.0000002564   0.0000003192  -0.0000064447  -0.0000063644
        0.0000010521  -0.0000025916  -0.0000065688   0.0000119022  -0.0000035831
       -0.0000038397   0.0000112103   0.0000048562  -0.0000075491   0.0000150801
        0.0000018140  -0.0000159150   0.0000296805  -0.0000307662   0.0000026161
       -0.0000044908   0.0000048393   0.0000030444  -0.0000004707   0.0000018714
        0.0000013511  -0.0000003405  -0.0000004667   0.0000014904  -0.0000003377
       -0.0000015280  -0.0000007742  -0.0000004452  -0.0000010380  -0.0000021844
       -0.0000003367   0.0000026590   0.0000033863   0.0000004540   0.0000011702
       -0.0000001935  -0.0000000538   0.0000007773  -0.0000008726   0.0000005726
       -0.0000001109  -0.0000008808   0.0000007049  -0.0000002120  -0.0000003827
        0.0000004157   0.0000000480  -0.0000007665   0.0000003663  -0.0000000578
       -0.0000006845  -0.0000004439   0.0000006765  -0.0000008454   0.0000003258
       -0.0000005029  -0.0000008116   0.0000002263  -0.0000005557  -0.0000008350
       -0.0000000585   0.0000002474  -0.0000011877   0.0000001299   0.0000004408
       -0.0000006902   0.0000009347  -0.0000011369  -0.0000014506   0.0000024871
        0.0000006020  -0.0000004706   0.0000020464  -0.0000001999  -0.0000021328
        0.0000029753   0.0000005508  -0.0000008168   0.0000015824  -0.0000023655
        0.0000010027   0.0000013663  -0.0000001080  -0.0000019532   0.0000012638
        0.0000014636   0.0000004977   0.0000027041  -0.0000016807   0.0000004436
        0.0000026110  -0.0000011753   0.0000003155   0.0000013584   0.0000008022
       -0.0000000316   0.0000015529   0.0000001566   0.0000002929   0.0000037950
       -0.0000021664   0.0000005288   0.0000066119   0.0000028913  -0.0000035843
       -0.0000006679   0.0000023196  -0.0000056578
       -0.0037195417   0.0089115637  -0.0607611458   0.0043840313   0.0062739841
        0.4630819431  -0.0033323300   0.0301285869  -0.1694001780  -0.0391525036
       -0.0294742399  -0.0873898534   0.0422410249  -0.0109155587  -0.0809586909
       -0.0034367220   0.0039249864   0.0046988995  -0.0021891482  -0.0032744777
        0.0019470563   0.0002360178  -0.0006420471  -0.0005852415   0.0008133797
       -0.0058021580   0.0003200287   0.0193811401  -0.0058740186  -0.0119396033
        0.0007683822  -0.0001173769   0.0000769470   0.0000122121  -0.0000061881
       -0.0000504079  -0.0000594879   0.0000120486   0.0000052619  -0.0000030645
       -0.0000008721   0.0000177257  -0.0000054664   0.0000085646   0.0000115295
       -0.0000045471   0.0000132381  -0.0000019096  -0.0000178291   0.0000141711
        0.0000171882   0.0000247609   0.0000185920   0.0000517760   0.0000668860
        0.0000128283  -0.0000592578   0.0001092276   0.0001250284  -0.0002952037
       -0.0001273713   0.0003745015  -0.0003441417  -0.0001220303  -0.0000015294
       -0.0000874118  -0.0000299544   0.0000310492   0.0000442153   0.0000246069
       -0.0000120149   0.0000071269  -0.0000033049   0.0000183919   0.0000194372
        0.0000095659  -0.0000115702  -0.0000055660   0.0000019620  -0.0000031015
       -0.0000020386   0.0000013406   0.0000027156   0.0000012349  -0.0000058136
       -0.0000086484  -0.0000015218   0.0000082565   0.0000030550  -0.0000023551
       -0.0000014200  -0.0000002052   0.0000020325   0.0000007469  -0.0000022129
       -0.0000025926  -0.0000169003   0.0000412399  -0.0000040895  -0.0000513722
       -0.0000233812   0.0000045866   0.0000129012  -0.0000150788   0.0000018440
       -0.0000129612  -0.0000040438   0.0000084913  -0.0000008947  -0.0000013968
       -0.0000015516  -0.0000052489   0.0000037015  -0.0000004486   0.0000003485
       -0.0000012662   0.0000000800   0.0000020683  -0.0000010859  -0.0000033921
        0.0000006093  -0.0000006851  -0.0000025672  -0.0000008918  -0.0000006581
       -0.0000031703  -0.0000001042  -0.0000005004  -0.0000026358   0.0000009552
       -0.0000024194   0.0000007757  -0.0000006398  -0.0000020100  -0.0000002354
        0.0000057033  -0.0000019329  -0.0000016339  -0.0000007377   0.0000027959
       -0.0000029824   0.0000032684   0.0000022015  -0.0000017110   0.0000003456
        0.0000003560  -0.0000036579   0.0000033844  -0.0000018607  -0.0000011804
        0.0000032109  -0.0000015323  -0.0000024950   0.0000053164  -0.0000015489
       -0.0000042247   0.0000006907   0.0000029604  -0.0000035064  -0.0000052222
        0.0000035544  -0.0000012619   0.0000043186   0.0000155601  -0.0000054168
        0.0000610305  -0.0000412684  -0.0000179169   0.0024911657  -0.0137651068
       -0.0001295616  -0.0076258322   0.0277999516  -0.0047231671   0.0042062375
       -0.0114353461   0.0003819180  -0.0007524246   0.0043127757  -0.0049702971