$hessian                                                                        
        0.6580173070  -0.0054509316   0.0053649001  -0.3289987097  -0.0341040466
        0.0344938320  -0.0408153880   0.0577384520  -0.0582878595  -0.0438098248
       -0.0223959689   0.0226130655   0.0584392486  -0.0171160768   0.0172699469
       -0.1464860992  -0.0460312241   0.0464919756  -0.0032213232   0.0034201318
       -0.0034517261   0.0002476252   0.0007425460  -0.0007489107  -0.0003357305
        0.0003124666  -0.0003152379   0.0001325242  -0.0000791349   0.0000795842
       -0.0003545508  -0.0002337742   0.0002359269  -0.0000255897   0.0004629503
       -0.0004670206  -0.0001641698  -0.0002133909   0.0002157425   0.0003740440
        0.0003598318  -0.0003617600   0.0001133534   0.0000112910  -0.0000386210
       -0.0000037982  -0.0000536044  -0.0000903297   0.0001305355  -0.0000153682
        0.0000114465  -0.0001678922   0.0000428606   0.0000406316   0.0000034921
       -0.0001149842  -0.0001243844   0.0000786241   0.0003846971   0.0003287679
        0.0002820287  -0.0000120861   0.0000130146   0.0000799789  -0.0003322755
       -0.0003809903   0.0000040100   0.0001254955   0.0001139998  -0.0001679054
       -0.0000412371  -0.0000422643   0.0001307932  -0.0000121576   0.0000149387
       -0.0000037455   0.0000911689   0.0000532492   0.0001134261   0.0000387486
       -0.0000113979  -0.1178486161   0.0812717574  -0.0820042713  -0.0164325165
       -0.0020061791   0.0020268442  -0.0009317735   0.0021700140  -0.0021903770
       -0.0178525659  -0.0190568152   0.0192445134  -0.0008276661   0.0000508563
       -0.0000518022  -0.0000275807  -0.0000507206   0.0000508366   0.0000134435
        0.0000065365  -0.0000063318   0.0000015256  -0.0000110139   0.0000109982
        0.0000140411  -0.0000092427   0.0000103591   0.0000505700  -0.0000451890
       -0.0001198828   0.0000059603   0.0000280077   0.0000262584   0.0000436366
        0.0000303431   0.0000151962   0.0000767942   0.0000068400  -0.0000008036
       -0.0000564716   0.0000116433  -0.0000122004   0.0000774549   0.0000007997
       -0.0000065919   0.0000441883  -0.0000153764  -0.0000296773   0.0000065408
       -0.0000267150  -0.0000275490   0.0000507710   0.0001200747   0.0000439616
       -0.0054509316   0.3909626131  -0.2790952020   0.0217008730  -0.0697115010
        0.0238065824   0.0159062815   0.0152824986  -0.0141723063  -0.0202406288
       -0.0091496900   0.0048205171   0.0214984089  -0.0338707547   0.0323627135
       -0.0986275228  -0.1655721916   0.1239319981   0.0019210638   0.0029164692
        0.0016896096   0.0002597740  -0.0006701275   0.0023203594   0.0000407267
        0.0001908002  -0.0002902995   0.0000792057  -0.0003398845   0.0001215827
       -0.0002210648  -0.0000155931   0.0000297300   0.0000915850   0.0000517714
       -0.0002094801  -0.0004717454   0.0001562411  -0.0001598092   0.0007898170
       -0.0001586833   0.0001030866   0.0000236764  -0.0001281927   0.0000436791
        0.0000987897  -0.0000668391  -0.0000984716   0.0000319032   0.0000102883
       -0.0000130021  -0.0000422558   0.0000192219   0.0000189827  -0.0000248097
       -0.0000543923  -0.0000677455  -0.0000083358   0.0001160113   0.0001057740
        0.0000102401  -0.0000527421   0.0000950317  -0.0000327519  -0.0000673727
       -0.0001352387  -0.0000294976   0.0000675859   0.0000367007  -0.0000406303
       -0.0000374153  -0.0000189805   0.0000228333   0.0000203161   0.0000001446
        0.0000142708   0.0000788616   0.0000222821  -0.0000688783  -0.0000536406
        0.0001803204   0.0814569855  -0.1291977357   0.0959707768  -0.0191761407
       -0.0016896599   0.0015514195   0.0025177570   0.0019512234   0.0057271892
       -0.0019688440  -0.0011591530   0.0009360557  -0.0001972236   0.0001033404
        0.0002896863   0.0000437796  -0.0000131610   0.0000579341   0.0000216508
        0.0000186011   0.0000098991  -0.0000091033   0.0000449448   0.0000147671
       -0.0000600635   0.0000063168  -0.0000047511   0.0000275558  -0.0000475479
       -0.0000075086   0.0000060165   0.0000252156   0.0000253973   0.0000205144
        0.0000222333   0.0000145556   0.0000343822   0.0000221111   0.0000057612
       -0.0000283168   0.0000151637  -0.0000208025   0.0000309513  -0.0000122545
       -0.0000227898   0.0000176476  -0.0000273332  -0.0000174158  -0.0000047678
       -0.0000235298  -0.0000165351   0.0000368226   0.0000375665   0.0000578019
        0.0053649001  -0.2790952020   0.3962568774  -0.0218539659   0.0238179512
       -0.0701664472  -0.0160569867  -0.0141793255   0.0155676932   0.0204380975
        0.0048233757  -0.0092625011  -0.0217145145   0.0323695848  -0.0344391759
        0.0996011780   0.1239151683  -0.1679640802  -0.0019395114   0.0016903941
        0.0028824487  -0.0002630696   0.0023188513  -0.0007150009  -0.0000405582
       -0.0002894761   0.0001948947  -0.0000796624   0.0001215894  -0.0003424261
        0.0002240603   0.0000297276  -0.0000166119  -0.0000923620  -0.0002106994
        0.0000561820   0.0004764436  -0.0001597043   0.0001591003  -0.0007973614
        0.0001026238  -0.0001609968   0.0000685299   0.0001807921  -0.0000559388
       -0.0000151510   0.0000243268   0.0000804858  -0.0000237259  -0.0000004377
        0.0000205381   0.0000412457  -0.0000202158  -0.0000374449   0.0000294703
        0.0000368318   0.0000666141   0.0000336286  -0.0001367631  -0.0000667861
       -0.0000088794   0.0000943106  -0.0000547219   0.0000083676   0.0001072760
        0.0001156593   0.0000244201  -0.0000672384  -0.0000535990   0.0000428842
        0.0000202232   0.0000192569  -0.0000329502  -0.0000119394   0.0000110252
       -0.0000986790  -0.0001006554  -0.0000675403  -0.0000233621   0.0000431443
       -0.0001303854  -0.0821884694   0.0959753105  -0.1309973775   0.0193622422
        0.0015488228  -0.0017247406  -0.0025391205   0.0057283986   0.0018432540
        0.0019921450   0.0009380152  -0.0011810141   0.0002002048   0.0002895756
        0.0000983550  -0.0000442452   0.0000582072  -0.0000146026  -0.0000214585
        0.0000091874   0.0000182565   0.0000091141   0.0000143147   0.0000445784
        0.0000615986  -0.0000056709   0.0000060933  -0.0000377618   0.0000591017
        0.0000372149   0.0000051891  -0.0000173978  -0.0000229281  -0.0000178516
       -0.0000179682  -0.0000270417  -0.0000310051  -0.0000238581  -0.0000124865
        0.0000278260  -0.0000204784   0.0000156796  -0.0000349783   0.0000067906
        0.0000225155  -0.0000211469   0.0000152988   0.0000213046  -0.0000059581
        0.0000260431   0.0000246453  -0.0000288106  -0.0000082067  -0.0000488253
       -0.3289987097   0.0217008730  -0.0218539659   0.6548183445   0.0085525921
       -0.0087556921  -0.1606525481   0.0477322262  -0.0481357484   0.0565546014
        0.0235485113  -0.0237806816  -0.0499156260   0.0204777245  -0.0206624812
       -0.0343768694  -0.0598616814   0.0604478472   0.0020985622  -0.0014638897
        0.0014749247  -0.0001425493   0.0005162689  -0.0005223774  -0.0000053217
       -0.0004258932   0.0004299897  -0.0003546872   0.0002210473  -0.0002239958
        0.0004852787   0.0001431579  -0.0001453457  -0.0000173885  -0.0005016947
        0.0005061444   0.0009974234  -0.0002954393   0.0002981591  -0.0008728989
       -0.0026018910   0.0026279646  -0.0004342124  -0.0000484612  -0.0001543351
       -0.0000715623   0.0001405507   0.0001654787  -0.0001211207  -0.0000082323
       -0.0000443115   0.0001308028  -0.0000329231  -0.0000228367  -0.0000005684
        0.0001499915   0.0001268869  -0.0001548597  -0.0002408038   0.0000356147
        0.0000822892   0.0001507552  -0.0001519333  -0.0001532569  -0.0000324915
        0.0002413468  -0.0000002029  -0.0001279784  -0.0001492107   0.0001305480
        0.0000237214   0.0000318990  -0.0001211450   0.0000442948   0.0000063930
       -0.0000717115  -0.0001659086  -0.0001388987  -0.0004341245   0.0001551643
        0.0000465927  -0.0183393906   0.0012454918  -0.0012503125  -0.1009943072
       -0.0752623659   0.0759726246  -0.0197414403   0.0179528014  -0.0181195647
        0.0000819861  -0.0018512823   0.0018702348   0.0005301228   0.0002159730
       -0.0002183511   0.0000788112   0.0000614753  -0.0000628773   0.0000190262
        0.0000121913  -0.0000129660   0.0000135645   0.0000131561  -0.0000144001
        0.0000317176  -0.0000046846   0.0000051360   0.0000231493   0.0000399749
        0.0001151319   0.0000071714  -0.0000496841  -0.0000567406  -0.0000274832
       -0.0000437207  -0.0000359493  -0.0000597014  -0.0000258296  -0.0000182549
        0.0000340236  -0.0000522503   0.0000521363  -0.0000591998   0.0000188939
        0.0000251855  -0.0000272315   0.0000373797   0.0000427056   0.0000074516
        0.0000580537   0.0000482709   0.0000232427  -0.0001151644  -0.0000394365
       -0.0341040466  -0.0697115010   0.0238179512   0.0085525921   0.3871616782
       -0.2793201349   0.1035018469  -0.1545014240   0.1097251543  -0.0172083510
       -0.0334030699   0.0343600159   0.0207980214  -0.0065219836   0.0010381608
       -0.0193347503   0.0108520278  -0.0092116356  -0.0022691423  -0.0017260449
        0.0015864067  -0.0001028062   0.0002626621  -0.0003401680   0.0000856936
        0.0001096539  -0.0001113496   0.0002337254  -0.0000155553   0.0000296563
       -0.0001430742  -0.0001119344   0.0000946881  -0.0001613655  -0.0000025260
       -0.0000772999  -0.0000874884  -0.0006214501   0.0007912140  -0.0018885899
        0.0022219969   0.0044825123   0.0006385398  -0.0000957546   0.0001556795
       -0.0000261224   0.0001286294  -0.0000256625   0.0000063795   0.0000162630
       -0.0000150730   0.0000149546   0.0000109983  -0.0000001460   0.0000199886
        0.0000041994  -0.0000462236   0.0001683752   0.0000881436   0.0001165962
       -0.0000407964   0.0000783755  -0.0001373192   0.0000596760   0.0000365845
        0.0000830620  -0.0000308804  -0.0000256828   0.0000662990  -0.0000114404
        0.0000205725   0.0000129931   0.0000443193  -0.0000410401   0.0000150906
       -0.0001163354   0.0000877891  -0.0000699139  -0.0002635613   0.0004531295
       -0.0005688590   0.0182714292  -0.0000970353   0.0008031736  -0.0752155783
       -0.1367585946   0.1058663270   0.0007924491   0.0004067160   0.0004933909
       -0.0023837759   0.0017769386   0.0061278116   0.0002180226   0.0000472318
       -0.0000172236  -0.0000034565  -0.0000210247   0.0000085055  -0.0000199997
       -0.0000240386   0.0000325100   0.0000085687  -0.0000257303   0.0000477530
       -0.0000285158  -0.0000098199   0.0000228384  -0.0000215227  -0.0001035179
       -0.0000234548  -0.0000182414   0.0000166464   0.0000139044  -0.0000067427
        0.0000189448   0.0000123830   0.0000051436   0.0000115775   0.0000274712
        0.0000047263  -0.0000255064   0.0000360861  -0.0000016234  -0.0000051780
        0.0000088425   0.0000104948   0.0000018970  -0.0000053507   0.0000059709
       -0.0000107087   0.0000084045   0.0000472895   0.0000464653   0.0000849326
        0.0344938320   0.0238065824  -0.0701664472  -0.0087556921  -0.2793201349
        0.3923590038  -0.1044446711   0.1097284493  -0.1564025046   0.0173669705
        0.0343572071  -0.0340702482  -0.0209879842   0.0010396243  -0.0065510242
        0.0195338840  -0.0092069478   0.0110183890   0.0022890013   0.0015857459
       -0.0017580168   0.0001035081  -0.0003406284   0.0002698767  -0.0000860037
       -0.0001103081   0.0001106022  -0.0002358710   0.0000296376  -0.0000165450
        0.0001452534   0.0000946890  -0.0001145204   0.0001628708  -0.0000784782
       -0.0000005482   0.0000885607   0.0007907426  -0.0006375556   0.0019067115
        0.0044847542   0.0021317567   0.0002576426  -0.0005637432   0.0004571324
        0.0001170526  -0.0000697776   0.0000898824  -0.0000442966   0.0000133980
       -0.0000410660   0.0000121392   0.0000119463   0.0000203056   0.0000307710
        0.0000642082  -0.0000273194  -0.0000606636   0.0000826760   0.0000349788
        0.0000427313  -0.0001380027   0.0000805162  -0.0001689520   0.0001166235
        0.0000852820  -0.0000207106  -0.0000445843   0.0000042276  -0.0000153756
        0.0000004376   0.0000103059  -0.0000082035  -0.0000134296   0.0000162727
        0.0000270484  -0.0000257387   0.0001280613  -0.0006364002   0.0001505602
       -0.0000922570  -0.0184426177   0.0008082989  -0.0001079926   0.0759226995
        0.1058710834  -0.1388021460  -0.0007978005   0.0004925320   0.0004006649
        0.0024070376   0.0061279799   0.0016615645  -0.0002194825  -0.0000168252
        0.0000484744   0.0000034914   0.0000091411  -0.0000212705   0.0000205535
        0.0000319336  -0.0000246862  -0.0000087560   0.0000469772  -0.0000270393
        0.0000297241   0.0000219067  -0.0000106034  -0.0000472837   0.0000865426
        0.0000464223  -0.0000045983   0.0000075094  -0.0000100529  -0.0000097228
       -0.0000062511   0.0000021917   0.0000021509   0.0000073212  -0.0000062880
       -0.0000055542   0.0000357347  -0.0000267304  -0.0000056608   0.0000280219
        0.0000107919   0.0000054854   0.0000126831   0.0000174187   0.0000174867
        0.0000146285   0.0000155278   0.0000196940  -0.0000247265  -0.0001047873
       -0.0408153880   0.0159062815  -0.0160569867  -0.1606525481   0.1035018469
       -0.1044446711   0.6655817848  -0.0067515683   0.0066657482  -0.1419019049
       -0.0932030880   0.0941477513  -0.0285400376  -0.0211364715   0.0213576450
        0.0028103832   0.0031135642  -0.0031426437  -0.0060227612   0.0021328556
       -0.0021542326   0.0004752610  -0.0005813391   0.0005870733  -0.0001002503
        0.0001438773  -0.0001450190  -0.0000254302  -0.0000915940   0.0000923639
       -0.0000175640   0.0001613873  -0.0001628833   0.0006305445   0.0003338299
       -0.0003369965  -0.0021341727   0.0018556867  -0.0018746639   0.0077415352
        0.0084202561  -0.0085070110   0.0003336503   0.0006647530  -0.0009938170
        0.0000027216  -0.0000209564  -0.0002831984  -0.0000716916   0.0000270343
        0.0001163391  -0.0000037268  -0.0000987088  -0.0000142927   0.0000117148
       -0.0000936277   0.0001861850   0.0000642178  -0.0000903821  -0.0008690412
       -0.0003946325  -0.0006586244   0.0006662046   0.0000672232   0.0008681458
        0.0000814312   0.0000118959  -0.0001853337   0.0000956167  -0.0000037978
        0.0000151358   0.0000987561  -0.0000715507  -0.0001170418  -0.0000260836
        0.0000027454   0.0002807866   0.0000172364   0.0003372025   0.0009860891
       -0.0006769282  -0.0060423047   0.0000442268  -0.0000420205   0.0065289658
       -0.0080315191   0.0081063395  -0.2971747958  -0.0069102980   0.0070178967
        0.0009529436  -0.0000136243   0.0000138440  -0.0011736536  -0.0009896341
        0.0009997541   0.0001178129   0.0000431018  -0.0000437096   0.0000475821
        0.0000610488  -0.0000613660   0.0000096236   0.0001138078  -0.0001148511
       -0.0000076261   0.0000340994  -0.0000337390  -0.0001662607   0.0000760755
        0.0001510492   0.0000080818  -0.0000089477  -0.0000326819  -0.0000461167
       -0.0000156999  -0.0000519784  -0.0000725369   0.0000405877  -0.0000569638
       -0.0000218384   0.0001826715  -0.0001848922  -0.0000721087   0.0000565057
       -0.0000409792  -0.0000458007   0.0000521189   0.0000155789   0.0000083986
        0.0000325689   0.0000088039  -0.0001657900  -0.0001498842  -0.0000739664
        0.0577384520   0.0152824986  -0.0141793255   0.0477322262  -0.1545014240
        0.1097284493  -0.0067515683   0.3845099840  -0.2716476448  -0.0431412559
       -0.1586509393   0.1143932300  -0.0584779636   0.0077527911  -0.0093435650
       -0.0006624142  -0.0316845307   0.0277647988   0.0041856197   0.0049801964
        0.0003180565   0.0005184437  -0.0003290885   0.0006567110  -0.0001874427
       -0.0003641089   0.0001267847  -0.0004629743   0.0000517082  -0.0002106279
        0.0005017090  -0.0000024314  -0.0000785884  -0.0003335348  -0.0014597456
        0.0006857451   0.0029110644  -0.0010312994   0.0019549975  -0.0025496184
       -0.0163402291   0.0163936493  -0.0013328077  -0.0005201618  -0.0004588836
        0.0000171754   0.0003034622  -0.0001060094  -0.0001388820   0.0001280690
        0.0000699101   0.0000532226  -0.0000675397  -0.0000222950   0.0000317624
        0.0001394457   0.0001469154   0.0001379756  -0.0005661189  -0.0006410576
       -0.0004123485   0.0000391740   0.0002560713  -0.0002851110   0.0000874112
        0.0002829822  -0.0000473070  -0.0000458063  -0.0000553136   0.0000903253
        0.0000804725   0.0000984574  -0.0001654986   0.0000898682   0.0000256456
        0.0002831099  -0.0002452845   0.0001059177  -0.0006463707  -0.0001888884
        0.0015143563  -0.0003263657   0.0044219582   0.0031523663   0.0090040265
       -0.0130956108   0.0132547551  -0.0069139517  -0.0393524908   0.0053049709
        0.0001330235  -0.0004312391   0.0002136877   0.0000055458   0.0007592180
        0.0004171103   0.0000711185   0.0000264415  -0.0000670167   0.0000345285
        0.0000791549  -0.0000504799  -0.0000718894   0.0001133068   0.0000906492
       -0.0001141817   0.0000683432  -0.0000899716  -0.0000835374   0.0001418986
        0.0001907089   0.0000264049  -0.0000217931  -0.0000275793  -0.0000520325
       -0.0000544058  -0.0000258938  -0.0000827394  -0.0000126660  -0.0000339239
        0.0000214331   0.0000131082  -0.0000122703  -0.0000752998   0.0000367565
       -0.0000246912  -0.0000540543   0.0000355144   0.0000311121   0.0000089072
        0.0000453212   0.0000059378  -0.0001369245  -0.0002203003  -0.0001088390
       -0.0582878595  -0.0141723063   0.0155676932  -0.0481357484   0.1097251543
       -0.1564025046   0.0066657482  -0.2716476448   0.3896386170   0.0435904972
        0.1143859828  -0.1609480254   0.0590553802  -0.0093506454   0.0079143155
        0.0006665010   0.0277620645  -0.0322198639  -0.0042259169   0.0003181244
        0.0049786103  -0.0005250325   0.0006577763  -0.0003425717   0.0001894001
        0.0001278846  -0.0003665479   0.0004670217  -0.0002094109   0.0000560946
       -0.0005061418  -0.0000773773  -0.0000004295   0.0003366562   0.0006857457
       -0.0014716792  -0.0029395920   0.0019553190  -0.0010705802   0.0025731112
        0.0163957562  -0.0166642789   0.0006544223   0.0015190976  -0.0002019551
       -0.0002808693   0.0000989760  -0.0002452990   0.0001659068   0.0000258283
        0.0000877696  -0.0000911856   0.0001006710   0.0000788412   0.0000464162
       -0.0000570757  -0.0000476927   0.0002831091   0.0002898080   0.0000901144
        0.0004176813   0.0002566143   0.0000345752  -0.0001361876  -0.0006475599
       -0.0005626481  -0.0000313029   0.0001490419   0.0001403206  -0.0000536263
       -0.0000243550  -0.0000668202   0.0001406132   0.0000697500   0.0001286245
       -0.0000209826  -0.0000989343   0.0003035295   0.0013374157  -0.0004633300
       -0.0005261064   0.0003327899   0.0031486591   0.0043589159  -0.0090882009
        0.0132517963  -0.0133575513   0.0070264367   0.0053100801  -0.0394553230
       -0.0001343663   0.0002130114  -0.0004356347  -0.0000046470   0.0004172477
        0.0007500251  -0.0000719476  -0.0000663065   0.0000274549  -0.0000349706
       -0.0000496912   0.0000810272   0.0000721274   0.0000917088   0.0001128635
        0.0001157897  -0.0000895696   0.0000710260   0.0001379641  -0.0001165227
       -0.0002199797  -0.0000095429   0.0000079151   0.0000444712   0.0000538581
        0.0000334005   0.0000347893   0.0000758161  -0.0000238394   0.0000369096
       -0.0000221494  -0.0000120911   0.0000139150   0.0000837426  -0.0000344280
       -0.0000106017   0.0000529563  -0.0000278796  -0.0000531022  -0.0000257548
       -0.0000294925  -0.0000203797   0.0000846634   0.0002010463   0.0001390718
       -0.0438098248  -0.0202406288   0.0204380975   0.0565546014  -0.0172083510
        0.0173669705  -0.1419019049  -0.0431412559   0.0435904972   0.6370196513
        0.0259288296  -0.0262234524  -0.2942320159  -0.0219346933   0.0221727570
       -0.0337000834   0.0490344457  -0.0495102287  -0.0357361786  -0.0148601140
        0.0150158779  -0.0003132982   0.0021897862  -0.0022110122   0.0006538974
       -0.0000773317   0.0000780835  -0.0001643881   0.0004717010  -0.0004763659
        0.0009973216   0.0000877826  -0.0000889190  -0.0021328392  -0.0029109470
        0.0029394994   0.0079633832  -0.0050336858   0.0050865057  -0.0943025762
        0.0429119288  -0.0433478092  -0.0179392959   0.0034941798  -0.0192113989
        0.0003370452   0.0013374474   0.0006460345  -0.0004338963  -0.0006363247
        0.0002636490   0.0001133231  -0.0000233002   0.0000689207  -0.0004998353
       -0.0007657298   0.0004635802  -0.0005982169  -0.0010425870  -0.0017120881
       -0.0001178218   0.0002473783  -0.0002500092  -0.0005976711   0.0017226985
        0.0010251844  -0.0004997706  -0.0004561058   0.0007698754   0.0001134215
       -0.0000685727   0.0000236519  -0.0004342366  -0.0002574231   0.0006386079
        0.0003337258  -0.0006551321  -0.0013328862  -0.0179377600   0.0191738004
       -0.0036876232  -0.0001881247  -0.0004994280   0.0005027213  -0.0008949302
        0.0023187565  -0.0023399969  -0.0185739136  -0.0188004213   0.0189858034
       -0.0007669886   0.0017528387  -0.0017683064   0.0006680909  -0.0019519682
        0.0019721345   0.0000395478  -0.0000604364   0.0000608849  -0.0001124538
       -0.0001173077   0.0001183487  -0.0000116521  -0.0003181698   0.0003207827
       -0.0000487993  -0.0000319531   0.0000324530   0.0002977892   0.0002575812
       -0.0000284051   0.0000309383   0.0001484463   0.0001849882   0.0000904291
        0.0001841215  -0.0000064875   0.0000681015   0.0000939211  -0.0000815588
        0.0001802668  -0.0001902401   0.0001918344   0.0000681695   0.0000806169
       -0.0000950056   0.0000902832   0.0000049870  -0.0001844982   0.0000308084
       -0.0001861046  -0.0001469230   0.0002976810   0.0000269644  -0.0002547691
       -0.0223959689  -0.0091496900   0.0048233757   0.0235485113  -0.0334030699
        0.0343572071  -0.0932030880  -0.1586509393   0.1143859828   0.0259288296
        0.3759022432  -0.2366536994   0.0256655010  -0.0647683137   0.0166243302
        0.0151408447   0.0125251650  -0.0133211547  -0.0285448598  -0.0052585838
        0.0077373500  -0.0003484353   0.0027447906  -0.0032495106   0.0002840885
       -0.0004095092   0.0003249876   0.0002133261   0.0001563301  -0.0001597926
        0.0002957657  -0.0006214238   0.0007906583  -0.0018555493  -0.0010318867
        0.0019559694   0.0050384675  -0.0134835384   0.0144659343   0.0356778663
       -0.0967838375   0.0451735026  -0.0036911140   0.0103216429  -0.0038736899
       -0.0006768915  -0.0005260433  -0.0015146168   0.0000464974  -0.0000922374
        0.0005687735  -0.0000113390  -0.0001304235  -0.0001803696  -0.0002083858
       -0.0001762836   0.0008063493  -0.0001923648  -0.0020763770  -0.0019671966
       -0.0001279597   0.0011289630   0.0012558440  -0.0002909952  -0.0023158241
       -0.0011013125   0.0004228190   0.0005264413  -0.0005980560   0.0000385901
       -0.0000559667  -0.0000435910   0.0001543780   0.0004570702  -0.0001556888
        0.0009936257  -0.0002014712   0.0004589256   0.0192105232  -0.0155019435
        0.0038715044  -0.0005274559   0.0001938862  -0.0001378179   0.0019739389
        0.0018229082   0.0055206994  -0.0026158844  -0.0006593109   0.0016347980
        0.0024440487   0.0016241077   0.0054637707  -0.0017414152  -0.0015865963
        0.0036438523   0.0001850074   0.0001157144  -0.0001446964   0.0000037258
        0.0000130604  -0.0000253008  -0.0000841614  -0.0001817244   0.0000590991
       -0.0000105093   0.0000435826  -0.0001179771  -0.0001532279   0.0001717662
       -0.0004508773  -0.0000049438  -0.0001479316  -0.0000326860  -0.0000528881
        0.0000346845  -0.0001435606  -0.0001986392  -0.0000417178  -0.0001506670
       -0.0000160541   0.0000238924  -0.0001038024   0.0000050673  -0.0000601876
       -0.0000280180  -0.0000569229  -0.0000339385   0.0001203383  -0.0000478733
        0.0001265565   0.0000834515  -0.0002144954  -0.0005840359   0.0000273778
        0.0226130655   0.0048205171  -0.0092625011  -0.0237806816   0.0343600159
       -0.0340702482   0.0941477513   0.1143932300  -0.1609480254  -0.0262234524
       -0.2366536994   0.3806432197  -0.0258962456   0.0166333798  -0.0650920164
       -0.0152932900  -0.0133260392   0.0127913531   0.0288330123   0.0077376611
       -0.0054199245   0.0003516907  -0.0032508664   0.0028098409  -0.0002868774
        0.0003251865  -0.0004166158  -0.0002156907  -0.0001599187   0.0001592015
       -0.0002984960   0.0007911879  -0.0006374633   0.0018745880   0.0019556450
       -0.0010712785  -0.0050914729   0.0144660199  -0.0137785566  -0.0360379509
        0.0451677360  -0.0977042233  -0.0191757031   0.0036108999  -0.0155024033
       -0.0009864184   0.0004630239  -0.0001895265  -0.0001551136  -0.0001504807
        0.0004530990  -0.0000387587  -0.0000432083  -0.0000536728  -0.0004210216
       -0.0005914061   0.0005238788   0.0002930115  -0.0011038683  -0.0022846129
        0.0001298150   0.0012556297   0.0011038631   0.0001950887  -0.0019649596
       -0.0020456781   0.0002038450   0.0007999807  -0.0001781817   0.0000112715
       -0.0001807777  -0.0001281301  -0.0000484153   0.0005638158  -0.0000958800
        0.0006645965  -0.0015187437  -0.0005199069   0.0034980853  -0.0036136172
        0.0103219554   0.0005326558  -0.0001370914   0.0001966976  -0.0019914313
        0.0055210730   0.0017191121   0.0026447505   0.0016388345  -0.0006933911
       -0.0024678070   0.0054634002   0.0015185194   0.0017585056   0.0036433331
       -0.0016591750  -0.0001869834  -0.0001447210   0.0001182508  -0.0000037486
       -0.0000256216   0.0000133129   0.0000849171   0.0000592100  -0.0001829043
        0.0000108957  -0.0001184068   0.0000458068   0.0002200058   0.0000113026
       -0.0005746189   0.0000479519   0.0000859955   0.0001264617   0.0000573526
        0.0001195760  -0.0000333119  -0.0000030054  -0.0000284566  -0.0000583570
        0.0000159072  -0.0001036886   0.0000261916   0.0001985685  -0.0001501553
       -0.0000398118   0.0000534546  -0.0001427734   0.0000345498   0.0000055483
       -0.0000352927  -0.0001487051   0.0001562293  -0.0004428616   0.0001838060
        0.0584392486   0.0214984089  -0.0217145145  -0.0499156260   0.0207980214
       -0.0209879842  -0.0285400376  -0.0584779636   0.0590553802  -0.2942320159
        0.0256655010  -0.0258962456   0.6597519928  -0.0026298187   0.0025624962
       -0.1588077736   0.0461168783  -0.0465270713  -0.1342913181  -0.0586947118
        0.0592932618   0.0157949805  -0.0002168263   0.0002187576  -0.0022709963
        0.0036095348  -0.0036449866   0.0002478904  -0.0002593041   0.0002626467
       -0.0001424439   0.0001027034  -0.0001033898   0.0004752729  -0.0005182481
        0.0005248302  -0.0003127973   0.0003475901  -0.0003508248  -0.0209492673
        0.0058515106  -0.0059078946  -0.0005973996   0.0001948901   0.0002910357
        0.0000673106  -0.0001360752   0.0002853254  -0.0001532465  -0.0001691161
       -0.0000596873   0.0000801321   0.0000082689   0.0000327603  -0.0000957678
        0.0000705873   0.0000417773  -0.0004391403   0.0000052046  -0.0003973855
        0.0000488801  -0.0004157339   0.0004190775  -0.0004390143   0.0003970901
       -0.0000093774  -0.0000966018  -0.0000435679  -0.0000708908   0.0000786831
       -0.0000336350  -0.0000082908  -0.0001547840   0.0000605686   0.0001683569
        0.0000641859  -0.0002830613   0.0001379897  -0.0005986697  -0.0002928629
       -0.0001928021  -0.0005492246  -0.0021970938   0.0022201269  -0.0002107679
        0.0006481916  -0.0006525476  -0.0000339499  -0.0013977226   0.0014136162
       -0.0218543011   0.0169726621  -0.0171190718  -0.0207377890  -0.0179762088
        0.0181332665   0.0000320658  -0.0000583224   0.0000601610   0.0000413979
        0.0004100348  -0.0004126168  -0.0001370760   0.0001487214  -0.0001501176
       -0.0003791590   0.0001685021  -0.0001699115   0.0002510484   0.0002064859
       -0.0003079648   0.0000238972   0.0000420194   0.0000360249   0.0000553246
        0.0000536572   0.0000218128   0.0000703908   0.0000521544  -0.0000280001
       -0.0000093274   0.0001178270  -0.0001202660   0.0000696668   0.0000262711
       -0.0000533625   0.0000537013  -0.0000233112  -0.0000538676   0.0000222624
       -0.0000368608  -0.0000414550   0.0002801626   0.0002871594  -0.0001981771
       -0.0171160768  -0.0338707547   0.0323695848   0.0204777245  -0.0065219836
        0.0010396243  -0.0211364715   0.0077527911  -0.0093506454  -0.0219346933
       -0.0647683137   0.0166333798  -0.0026298187   0.3928879620  -0.2733019869
        0.0964602071  -0.1394422404   0.0917058149  -0.0655000164  -0.1322885993
        0.1065531199   0.0002249708  -0.0264930597   0.0216760505   0.0009016379
        0.0008428724   0.0005308104  -0.0007420690  -0.0006703313   0.0023189576
       -0.0005163716   0.0002626269  -0.0003405691   0.0005815240  -0.0003291462
        0.0006577151  -0.0021906613   0.0027446020  -0.0032505903   0.0171137599
        0.0000690571   0.0014527376   0.0010256477  -0.0020456165   0.0011014956
        0.0000814667  -0.0005626544  -0.0002830474   0.0002412507   0.0000853744
       -0.0000832304  -0.0003810655   0.0001157234   0.0001351660   0.0000217586
       -0.0002073402  -0.0004750767  -0.0000097430   0.0009498451   0.0008139250
        0.0000897374  -0.0006193144   0.0001558161   0.0003975858  -0.0004467285
       -0.0008138527   0.0000153992   0.0004167710   0.0000189578  -0.0003288150
       -0.0000668472  -0.0001056610  -0.0000355460   0.0000348118  -0.0001165673
        0.0008689776   0.0000902116   0.0006411177   0.0017123913  -0.0022845811
        0.0019670869  -0.0019533460   0.0025918280   0.0057496256   0.0006187041
        0.0006448697  -0.0002647389  -0.0018822004   0.0021834168   0.0062270628