$hessian                                                                        
        1.1971644607  -0.2006764190  -0.1737369739  -1.1370043599   0.1879228023
        0.1624737028  -0.0689514149   0.0139719690   0.0123696803   0.0101491544
        0.0049439504  -0.0129719162  -0.0080500951   0.0042476027  -0.0003013459
        0.0098606892  -0.0016682385  -0.0013655727  -0.0054495545   0.0010097592
        0.0008223603   0.0001480872  -0.0008375349  -0.0013027865   0.0006937575
        0.0025376269  -0.0005431564  -0.0037506073  -0.0014047964   0.0014554547
        0.0032977497  -0.0035584860  -0.0005346071   0.0004002914   0.0040941958
       -0.0006063368  -0.0001861088  -0.0033108458   0.0003958520  -0.0020614163
        0.0003620592   0.0003224814   0.0018672587  -0.0002241388  -0.0002076314
       -0.0008411486   0.0001856069   0.0001614033   0.0005278585  -0.0000322797
       -0.0001454377  -0.0005615836  -0.0000089015  -0.0000085108   0.0005236607
       -0.0000716818   0.0000581123  -0.0009751254   0.0000578096   0.0000483049
       -0.0000541469  -0.0001572659  -0.0001344945   0.0000110100  -0.0000709618
        0.0002942665   0.0000038779   0.0000420516  -0.0001444773   0.0000080230
        0.0000266759  -0.0000019686  -0.0000189374  -0.0000351441   0.0000124328
       -0.0000581160  -0.0000484430  -0.0000033153  -0.0000605047   0.0000219419
       -0.0000931615  -0.0000302230   0.0002943111  -0.0000761157  -0.0000997450
       -0.0001281582   0.0000619308  -0.0000590742   0.0000159214   0.0000544135
       -0.0000164485   0.0000459710  -0.0000259639   0.0000389625   0.0000207386
       -0.0000607412   0.0000271115  -0.0001405487  -0.0000348078  -0.0003592762
        0.0000277171   0.0000207627   0.0002901705   0.0000971823  -0.0000009090
       -0.0001459277   0.0001457595   0.0001468191  -0.0000154415  -0.0001785916
       -0.0001661824  -0.0001827733  -0.0001117680  -0.0000768243   0.0005027599
       -0.0000368793  -0.0000213454   0.0007797223   0.0032098066  -0.0005068609
       -0.0007963861  -0.0039528668   0.0006530206   0.0043244089   0.0023052097
       -0.0005768367  -0.0034346889   0.0025739493  -0.0004017520  -0.0000190759
       -0.0026390154   0.0004546962   0.0007465799   0.0006463386   0.0011793243
       -0.0085953882  -0.0020045380   0.0024812160   0.0115155678  -0.0079750480
        0.0100458556  -0.0000259642  -0.0004875688   0.0001492034  -0.0006662254
        0.0000688900  -0.0000178659   0.0000744414  -0.0000395285  -0.0001465423
        0.0000186752  -0.0002210374   0.0001057664  -0.0001267670  -0.0001555764
        0.0000097732  -0.0001313295   0.0000112207   0.0000009766   0.0000903441
        0.0000399263  -0.0000474477  -0.0000720187   0.0000888552   0.0001056773
        0.0001099988  -0.0000655931   0.0000136999   0.0000074098  -0.0000078551
        0.0000485156  -0.0000166990  -0.0000159581  -0.0000110247  -0.0000018495
        0.0000048147  -0.0000170910   0.0000271051   0.0000245283   0.0000139694
        0.0000459354  -0.0000407353   0.0000858021   0.0000341598   0.0000468641
        0.0000090477   0.0000354291  -0.0000025953  -0.0000035959   0.0000155418
       -0.0000191799   0.0000094570  -0.0000063821  -0.0000041163   0.0000328615
        0.0000107838   0.0000598654  -0.0000142321  -0.0000298451  -0.0000416647
       -0.0000486197  -0.0000535934  -0.0000191505   0.0000063358  -0.0000543934
        0.0000294658   0.0000248608   0.0000644695   0.0000290890   0.0000250465
       -0.0001266959   0.0000278583   0.0000590824  -0.0000769534   0.0001900262
        0.0000101300   0.0000550809   0.0002213529  -0.0001108771   0.0001106630
        0.0000284505   0.0001156136  -0.0005953241   0.0001091449   0.0001881996
        0.0001804089   0.0006058019  -0.0000587808
       -0.2006764190   0.0509322283   0.0298274894   0.1879763828  -0.0649760138
       -0.0265837600   0.0139742739   0.0127320607  -0.0037866173  -0.0000502772
       -0.0001116790   0.0032428168   0.0012285276  -0.0015814431  -0.0010779857
       -0.0016426044   0.0003661378   0.0002009741   0.0010049484   0.0000976990
        0.0000422461   0.0000082774   0.0001283611   0.0002093096  -0.0000913313
       -0.0004239025   0.0000775678   0.0006239108   0.0002116405  -0.0002357147
       -0.0005645931   0.0005749593   0.0000901867  -0.0000667841  -0.0006555877
        0.0000957146   0.0000403408   0.0005810492  -0.0000810621   0.0003506032
       -0.0000431782  -0.0000473683  -0.0003127070   0.0000361994   0.0000161436
        0.0001391425  -0.0000342351  -0.0000335318  -0.0000809845   0.0000052387
        0.0000249436   0.0000964863   0.0000007885   0.0000016652  -0.0000888068
        0.0000130439  -0.0000088145   0.0001675499  -0.0000067093  -0.0000063833
        0.0000105912   0.0000296379   0.0000234666  -0.0000035677   0.0000121552
       -0.0000494236  -0.0000036725  -0.0000055762   0.0000235354  -0.0000029234
       -0.0000020977   0.0000016762   0.0000035813   0.0000063681   0.0000000665
        0.0000099501   0.0000056175  -0.0000001752   0.0000110887  -0.0000045895
        0.0000129378   0.0000049783  -0.0000535486   0.0000142692   0.0000129532
        0.0000193871  -0.0000096277   0.0000123419  -0.0000036370  -0.0000119007
        0.0000039714  -0.0000040734   0.0000103930  -0.0000095312  -0.0000055938
        0.0000079415  -0.0000062723   0.0000231962   0.0000078091   0.0000574347
       -0.0000045286  -0.0000044262  -0.0000534566  -0.0000141543   0.0000030614
        0.0000274114  -0.0000235641  -0.0000240686   0.0000043296   0.0000327678
        0.0000269047   0.0000267125   0.0000192887   0.0000148927  -0.0000830975
        0.0000112162   0.0000046180  -0.0001209173  -0.0005502069   0.0000805475
        0.0001233341   0.0006885029  -0.0001156373  -0.0007274224  -0.0003904005
        0.0000863314   0.0005883729  -0.0004407741   0.0000731452  -0.0000040820
        0.0004342848  -0.0000815888  -0.0001908815  -0.0001268473  -0.0001945823
        0.0009587697  -0.0004881192  -0.0014424945  -0.0029714099   0.0025519394
       -0.0002983938   0.0002376830   0.0003994618  -0.0000103739   0.0002605935
       -0.0001469726  -0.0000798307   0.0000063181  -0.0000272093   0.0000205810
        0.0000087282   0.0000572990  -0.0000223824   0.0000224164   0.0000312263
       -0.0000061090   0.0000255913   0.0000032284   0.0000098605  -0.0000137857
       -0.0000037404   0.0000101557   0.0000108616  -0.0000153838  -0.0000156669
       -0.0000172571   0.0000137892  -0.0000038726   0.0000014931   0.0000021610
       -0.0000092912   0.0000025136   0.0000052120   0.0000036762  -0.0000007223
       -0.0000007915   0.0000031941  -0.0000048943  -0.0000024153  -0.0000005838
       -0.0000072954   0.0000066135  -0.0000129302  -0.0000051370  -0.0000106826
       -0.0000010259  -0.0000058629   0.0000024261   0.0000024685  -0.0000019082
        0.0000055746  -0.0000014691   0.0000024687   0.0000041055  -0.0000067970
       -0.0000023556  -0.0000088707   0.0000036873   0.0000080815   0.0000081818
        0.0000103286   0.0000092359   0.0000062347  -0.0000002500   0.0000102096
       -0.0000048184  -0.0000037087  -0.0000094144  -0.0000035570  -0.0000041945
        0.0000251160   0.0000036193   0.0000007946   0.0000129061  -0.0000300392
       -0.0000044935  -0.0000184080  -0.0000146515   0.0000158642  -0.0000461397
       -0.0000304229  -0.0000197895  -0.0000983495  -0.0000888399  -0.0000741370
       -0.0001272092   0.0002759531   0.0000691980
       -0.1737369739   0.0298274894   0.0407160573   0.1625978657  -0.0265973444
       -0.0569302131   0.0123408616  -0.0038699364   0.0156505277  -0.0036492615
        0.0009352044   0.0015098118   0.0004774106  -0.0015118051   0.0005534751
       -0.0014198283   0.0000471676   0.0006072474   0.0008503742  -0.0000048754
       -0.0000120398   0.0000062462   0.0001273400   0.0001790823  -0.0001062166
       -0.0003753688   0.0000941922   0.0005503900   0.0002011780  -0.0001990406
       -0.0004869004   0.0005048135   0.0000806765  -0.0000553691  -0.0005795340
        0.0000867269   0.0000337398   0.0004947311  -0.0000546674   0.0003099191
       -0.0000432426  -0.0000470252  -0.0002712082   0.0000278725   0.0000161445
        0.0001171744  -0.0000302240  -0.0000282881  -0.0000755249   0.0000042168
        0.0000254631   0.0000830080   0.0000026464  -0.0000012350  -0.0000757071
        0.0000113529  -0.0000103559   0.0001467220  -0.0000096860  -0.0000063870
        0.0000074791   0.0000231343   0.0000208456   0.0000010780   0.0000107037
       -0.0000563322  -0.0000018820  -0.0000066933   0.0000172840   0.0000043128
       -0.0000052826  -0.0000023533   0.0000027789   0.0000067750  -0.0000031783
        0.0000132286   0.0000064015  -0.0000023190   0.0000060651  -0.0000016627
        0.0000140153   0.0000045664  -0.0000449927   0.0000108718   0.0000164609
        0.0000197882  -0.0000141420   0.0000106106  -0.0000053860  -0.0000081168
        0.0000013270  -0.0000014918   0.0000051129  -0.0000129516  -0.0000051176
        0.0000030229  -0.0000050123   0.0000211310   0.0000048438   0.0000527753
       -0.0000065913  -0.0000042694  -0.0000448769  -0.0000144491  -0.0000052877
        0.0000187217  -0.0000198576  -0.0000262952   0.0000034280   0.0000274901
        0.0000165794   0.0000214036   0.0000197091   0.0000100782  -0.0000763494
        0.0000076420   0.0000015837  -0.0000979930  -0.0004938237   0.0000871061
        0.0000998657   0.0005840602  -0.0000902291  -0.0006354396  -0.0003377776
        0.0000761878   0.0005078564  -0.0003610080   0.0000705808   0.0000178059
        0.0003638564  -0.0000526666  -0.0001735958  -0.0000966623  -0.0001833589
        0.0017354091  -0.0008088930   0.0000096474   0.0006501420   0.0020846595
       -0.0025638882  -0.0003089245   0.0001843332   0.0003113286  -0.0002139407
       -0.0000397951   0.0000579293  -0.0000177025   0.0000060078   0.0000001837
       -0.0000062888   0.0000301201  -0.0000154171   0.0000163034   0.0000214897
       -0.0000016259   0.0000193079   0.0000004195   0.0000105383  -0.0000125895
        0.0000010082   0.0000059009   0.0000071497  -0.0000108582  -0.0000192989
       -0.0000169601   0.0000106628  -0.0000053849  -0.0000000457   0.0000019592
       -0.0000081301   0.0000062680   0.0000016950  -0.0000013159   0.0000063295
       -0.0000028068   0.0000011519   0.0000006640  -0.0000072597  -0.0000055668
       -0.0000043586   0.0000056054  -0.0000177134  -0.0000044351  -0.0000081154
       -0.0000017836  -0.0000026341   0.0000022183   0.0000040900  -0.0000042982
        0.0000043506  -0.0000027848  -0.0000013972   0.0000006007  -0.0000045747
       -0.0000046581  -0.0000077771  -0.0000014631   0.0000077673   0.0000092788
        0.0000060561   0.0000087268   0.0000040512  -0.0000088029   0.0000069543
       -0.0000036622  -0.0000102254  -0.0000111444  -0.0000022674  -0.0000087210
        0.0000213780  -0.0000001016  -0.0000064656   0.0000126839  -0.0000300824
       -0.0000034656  -0.0000089101  -0.0000365498   0.0000141071  -0.0000169104
       -0.0000036247  -0.0000382316   0.0003883332  -0.0001504002  -0.0000667979
        0.0003693962  -0.0001081580   0.0002510073
       -1.1370043599   0.1879763828   0.1625978657   1.4626707756  -0.2361655988
       -0.2024736103  -0.2476174606   0.0336813173   0.0283831917  -0.0474283338
       -0.0075602306   0.0349167466   0.0144618123  -0.0084708960   0.0052316291
       -0.0171263225   0.0028867385   0.0022405165   0.0096047441  -0.0019504428
       -0.0015359650  -0.0003715497   0.0009975481   0.0023369004  -0.0011039548
       -0.0037324371   0.0007896821   0.0056896975   0.0020983774  -0.0022199212
       -0.0050744019   0.0054858249   0.0008224781  -0.0006238696  -0.0063501563
        0.0009225810   0.0003635670   0.0050994631  -0.0006264028   0.0031216696
       -0.0005539446  -0.0004947704  -0.0028404884   0.0003418147   0.0003198187
        0.0012659830  -0.0002477097  -0.0002348534  -0.0008092312   0.0000567184
        0.0002166255   0.0008398795   0.0000232774   0.0000214561  -0.0007927721
        0.0001001045  -0.0000920078   0.0014990453  -0.0001132689  -0.0000790336
        0.0000808349   0.0002463395   0.0002029801  -0.0000161725   0.0001078540
       -0.0004612117  -0.0000109092  -0.0000677562   0.0002245409  -0.0000118900
       -0.0000432241   0.0000027755   0.0000287375   0.0000504269  -0.0000197239
        0.0000895817   0.0000712216   0.0000030424   0.0000964147  -0.0000287972
        0.0001469474   0.0000506870  -0.0004589138   0.0001197064   0.0001523091
        0.0001979123  -0.0000955919   0.0000894562  -0.0000245436  -0.0000792795
        0.0000238528  -0.0000659714   0.0000468145  -0.0000623137  -0.0000285556
        0.0000944927  -0.0000437276   0.0002212120   0.0000594958   0.0005509436
       -0.0000500406  -0.0000389535  -0.0004517432  -0.0001548761  -0.0000025038
        0.0002271097  -0.0002248538  -0.0002302444   0.0000287162   0.0002876974
        0.0002612056   0.0002767679   0.0001836271   0.0001235622  -0.0007475907
        0.0000616575   0.0000323438  -0.0011151369  -0.0049805694   0.0007847024
        0.0012382643   0.0060876362  -0.0009901528  -0.0066503793  -0.0035536392
        0.0008823133   0.0052607116  -0.0038759873   0.0006055009  -0.0000304679
        0.0039239568  -0.0006317499  -0.0011760691  -0.0006810016  -0.0021072245
        0.0145533061   0.0064722823  -0.0082068670  -0.0526527613   0.0240111437
       -0.0206230568   0.0009167100   0.0007197731  -0.0016019991   0.0000775934
        0.0000080751   0.0001711253  -0.0001218442   0.0000984860   0.0002612617
       -0.0000235019   0.0003451409  -0.0001706291   0.0002126454   0.0002493818
       -0.0000118086   0.0002290476  -0.0000122624  -0.0000103451  -0.0001400367
       -0.0000773933   0.0000528650   0.0001136366  -0.0001380292  -0.0001623460
       -0.0001588892   0.0001146342  -0.0000062687  -0.0000089787   0.0000135084
       -0.0000734831   0.0000261247   0.0000234243   0.0000174859   0.0000048938
       -0.0000099986   0.0000242280  -0.0000366611  -0.0000397427  -0.0000230836
       -0.0000642098   0.0000593039  -0.0001359115  -0.0000489160  -0.0000743681
       -0.0000121553  -0.0000534221   0.0000036039   0.0000079337  -0.0000225457
        0.0000298477  -0.0000116519   0.0000121979   0.0000099798  -0.0000481070
       -0.0000120460  -0.0000905397   0.0000215361   0.0000508398   0.0000678129
        0.0000793831   0.0000827799   0.0000340129  -0.0000102555   0.0000863032
       -0.0000412648  -0.0000406004  -0.0000950628  -0.0000418387  -0.0000427956
        0.0002225263  -0.0000535619  -0.0001108581   0.0001357624  -0.0003091300
       -0.0000222404  -0.0000809720  -0.0003508560   0.0001707393  -0.0002130529
       -0.0000973131  -0.0002197381  -0.0001134850   0.0000745998  -0.0001341226
        0.0005196016  -0.0018024057   0.0008950504
        0.1879228023  -0.0649760138  -0.0265973444  -0.2361655988   0.1227377289
        0.0212796846   0.0336682984  -0.0570775859  -0.0004034426  -0.0046226421
        0.0025151115  -0.0044663881  -0.0024360872   0.0061465442   0.0046296167
        0.0028262697  -0.0007687275  -0.0005060135  -0.0019503885  -0.0009757350
       -0.0004847373  -0.0001796475  -0.0001429421  -0.0003073743   0.0001261991
        0.0006583501  -0.0001165656  -0.0009481485  -0.0003074188   0.0003218364
        0.0008506852  -0.0008415126  -0.0001240262   0.0000736296   0.0009758357
       -0.0001346869  -0.0000484837  -0.0009327966   0.0001483062  -0.0005343950
        0.0000472106   0.0000599104   0.0004640414  -0.0000390758   0.0000133521
       -0.0002166164   0.0000521741   0.0000507253   0.0001178294  -0.0000097072
       -0.0000460807  -0.0001432590  -0.0000001349   0.0000048595   0.0001345699
       -0.0000133014   0.0000157324  -0.0002626075   0.0000105317   0.0000035077
       -0.0000142804  -0.0000417162  -0.0000370017   0.0000024906  -0.0000151497
        0.0000861653   0.0000017853   0.0000156549  -0.0000373784  -0.0000005380
        0.0000110774  -0.0000015380  -0.0000048450  -0.0000042973   0.0000036424
       -0.0000119138  -0.0000083078   0.0000019190  -0.0000149899   0.0000047329
       -0.0000249973  -0.0000084283   0.0000921950  -0.0000223058  -0.0000294384
       -0.0000392546   0.0000170297  -0.0000158822   0.0000106520   0.0000111839
       -0.0000011204   0.0000141985  -0.0000084623   0.0000070970   0.0000038687
       -0.0000208505   0.0000078510  -0.0000412673  -0.0000130139  -0.0000839866
        0.0000130562   0.0000116812   0.0000850658   0.0000242227   0.0000023125
       -0.0000417578   0.0000357989   0.0000405184  -0.0000053117  -0.0000433665
       -0.0000381650  -0.0000392360  -0.0000376735  -0.0000203017   0.0001351616
       -0.0000160923  -0.0000049143   0.0001563020   0.0008564379  -0.0000985672
       -0.0001710670  -0.0010856490   0.0001782515   0.0011556258   0.0006236055
       -0.0001254876  -0.0009033928   0.0006421027  -0.0001342884   0.0000411738
       -0.0005999919   0.0000990992   0.0005017646   0.0001013158   0.0003535103
        0.0006139049   0.0031396590   0.0064068305   0.0208861821  -0.0071486228
        0.0012424770  -0.0012837042  -0.0020518646  -0.0005067930  -0.0006863373
        0.0003362601   0.0002891319   0.0000414576   0.0000241760  -0.0000248593
       -0.0000034555  -0.0000864094   0.0000261391  -0.0000381629  -0.0000483908
        0.0000120872  -0.0000485866  -0.0000215273  -0.0000376055   0.0000266441
        0.0000068085  -0.0000066356  -0.0000157297   0.0000211420   0.0000287142
        0.0000295273  -0.0000178984   0.0000046058   0.0000001473  -0.0000025892
        0.0000118055  -0.0000080984   0.0000005673  -0.0000029825  -0.0000036738
        0.0000064182  -0.0000031154   0.0000042780   0.0000107920   0.0000083609
        0.0000098276  -0.0000088728   0.0000258621   0.0000070582   0.0000138561
        0.0000005080   0.0000090898  -0.0000027789  -0.0000063385   0.0000028530
       -0.0000095993   0.0000004013  -0.0000013301  -0.0000030967   0.0000061561
        0.0000024500   0.0000141074  -0.0000035308  -0.0000110637  -0.0000123600
       -0.0000133620  -0.0000159976  -0.0000035070   0.0000043673  -0.0000145455
        0.0000048600   0.0000102999   0.0000170480   0.0000075845   0.0000119367
       -0.0000444103  -0.0000213703  -0.0000153881  -0.0000246484   0.0000486510
        0.0000208310   0.0000164808   0.0000351051  -0.0000260444   0.0000418779
        0.0000530219   0.0000630416   0.0008262984   0.0000734918   0.0001364240
        0.0002400389  -0.0019323018  -0.0012222382
        0.1624737028  -0.0265837600  -0.0569302131  -0.2024736103   0.0212796846
        0.1274058429   0.0284232726  -0.0000613409  -0.0619041184   0.0289921860
       -0.0030796671  -0.0082884776   0.0019238331   0.0056342216  -0.0031945968
        0.0024046522   0.0001001872  -0.0017162737  -0.0015610505  -0.0003648081
       -0.0000952346  -0.0000840855  -0.0001268751  -0.0002821501   0.0001762113
        0.0005645234  -0.0000883358  -0.0008272530  -0.0003001626   0.0002965075
        0.0007649560  -0.0007544949  -0.0001103928   0.0000680190   0.0008713901
       -0.0001221711  -0.0000685786  -0.0007838923   0.0001143111  -0.0004578039
        0.0000285232   0.0000564292   0.0003942577  -0.0000308874   0.0000013756
       -0.0001912749   0.0000499266   0.0000461466   0.0001029211  -0.0000117985
       -0.0000364271  -0.0001240688  -0.0000016430   0.0000038343   0.0001147218
       -0.0000091198   0.0000157436  -0.0002314497   0.0000068706   0.0000037054
       -0.0000100324  -0.0000352305  -0.0000309931   0.0000031977  -0.0000154760
        0.0000823161  -0.0000022022   0.0000112850  -0.0000325746  -0.0000000638
        0.0000055130   0.0000036810  -0.0000100545  -0.0000027133   0.0000059298
       -0.0000140093  -0.0000109795   0.0000073060  -0.0000207435   0.0000057370
       -0.0000180791  -0.0000075182   0.0000733369  -0.0000148237  -0.0000246898
       -0.0000313915   0.0000170706  -0.0000132622   0.0000036447   0.0000125867
       -0.0000018907   0.0000099129  -0.0000074070   0.0000039187   0.0000010409
       -0.0000172650   0.0000085705  -0.0000332967  -0.0000088381  -0.0000712247
        0.0000111609   0.0000138395   0.0000764558   0.0000194387   0.0000023341
       -0.0000378056   0.0000302639   0.0000392553  -0.0000012898  -0.0000393947
       -0.0000305914  -0.0000342218  -0.0000314692  -0.0000144332   0.0001196785
       -0.0000163909  -0.0000019245   0.0001788354   0.0007653167  -0.0001083762
       -0.0001478961  -0.0009192090   0.0001533600   0.0009731628   0.0005201478
       -0.0001041456  -0.0007912202   0.0005217662  -0.0001001850  -0.0000249862
       -0.0004975578   0.0001147850   0.0003430969   0.0001266995   0.0003027589
       -0.0050272028   0.0046390867  -0.0002683040  -0.0146493758  -0.0002249311
        0.0062661637   0.0007064863  -0.0012147709  -0.0006114170   0.0013021110
        0.0000224195  -0.0003292281   0.0000220507  -0.0000317583  -0.0000449937
        0.0000053642  -0.0000533806   0.0000174852  -0.0000291016  -0.0000358952
        0.0000020194  -0.0000353768  -0.0000074025  -0.0000229525   0.0000248065
        0.0000085341  -0.0000079127  -0.0000116949   0.0000183247   0.0000252693
        0.0000243491  -0.0000179292   0.0000017584  -0.0000003295   0.0000007967
        0.0000151199  -0.0000085964  -0.0000005370  -0.0000005407  -0.0000058128
        0.0000055866  -0.0000018755   0.0000032879   0.0000114213   0.0000043875
        0.0000089826  -0.0000065559   0.0000229740   0.0000067194   0.0000143480
       -0.0000013976   0.0000099852  -0.0000016245  -0.0000003634   0.0000044397
       -0.0000038226  -0.0000003568   0.0000024735  -0.0000045298   0.0000077580
        0.0000036571   0.0000109646  -0.0000020129  -0.0000097315  -0.0000107821
       -0.0000055349  -0.0000126848  -0.0000063932   0.0000073592  -0.0000118428
        0.0000027399   0.0000136563   0.0000154542   0.0000055786   0.0000140615
       -0.0000366612  -0.0000076509  -0.0000108569  -0.0000239831   0.0000498257
        0.0000095589   0.0000136979   0.0000512866  -0.0000268003   0.0000224430
       -0.0000065119   0.0000347367  -0.0012384167   0.0004470164   0.0001008872
       -0.0013888611  -0.0005524862  -0.0006497397
       -0.0689514149   0.0139742739   0.0123408616  -0.2476174606   0.0336682984
        0.0284232726   0.6190712982  -0.0959547948  -0.0543424449  -0.1036855483
       -0.0343205671   0.0907705428  -0.0424659390   0.0017635447   0.0257330579
        0.0220308734  -0.0039942102  -0.0057192888  -0.0118302857   0.0020150831
        0.0016545578   0.0008453350  -0.0001051280  -0.0028343941   0.0009907164
        0.0028808932  -0.0006093709  -0.0046925945  -0.0018502170   0.0018737802
        0.0043707906  -0.0048227066  -0.0006790816   0.0005071409   0.0056407927
       -0.0007593709  -0.0004390729  -0.0042724595   0.0004407106  -0.0028534338
        0.0004692557   0.0004409873   0.0025886234  -0.0003410210  -0.0003062139
       -0.0011228163   0.0004418180   0.0002662229   0.0007976842   0.0000322023
       -0.0001259207  -0.0009156917   0.0000096569   0.0000246337   0.0007354739
       -0.0002105256  -0.0000360088  -0.0013137455  -0.0000925012   0.0000452524
       -0.0000567210  -0.0001696590  -0.0001718428   0.0000114719  -0.0000741365
        0.0003111488   0.0000091252   0.0000514117  -0.0001567315   0.0000064415
        0.0000290783  -0.0000032511  -0.0000171210  -0.0000305408   0.0000092920
       -0.0000550709  -0.0000445711   0.0000000553  -0.0000633041   0.0000208501
       -0.0001016595  -0.0000325622   0.0003226266  -0.0000854730  -0.0000991293
       -0.0001386663   0.0000627403  -0.0000588528   0.0000211903   0.0000517803
       -0.0000154651   0.0000440900  -0.0000316887   0.0000410655   0.0000234104
       -0.0000656434   0.0000386080  -0.0001519730  -0.0000447957  -0.0004294556
       -0.0000283293  -0.0000259387   0.0003736093   0.0000858627  -0.0000167566
       -0.0001858049   0.0001499819   0.0001529217   0.0000323552  -0.0001534725
       -0.0001458299  -0.0002659946  -0.0000861911  -0.0000502732   0.0007767856
       -0.0000262345  -0.0000236230   0.0008987373   0.0042067735  -0.0005370874
       -0.0011527307  -0.0054992557   0.0008449152   0.0057256008   0.0031614403
       -0.0007760658  -0.0042204184   0.0032797258  -0.0005708018   0.0000981689
       -0.0029647735   0.0004794272   0.0016279923  -0.0002820257   0.0025083662
       -0.0526274611   0.0142323037  -0.0101776205  -0.1183102268   0.0645349024
       -0.0880090354   0.0062055716   0.0039744530  -0.0118377913  -0.0052941863
        0.0022545603   0.0014297930  -0.0000997882  -0.0002286699  -0.0001226023
       -0.0000014945  -0.0002681393   0.0001279819  -0.0001464416  -0.0002004111
       -0.0000283700  -0.0001400073   0.0000017494  -0.0000170234   0.0001034323
        0.0000363865  -0.0000389576  -0.0000769874   0.0000965561   0.0001438545
        0.0001041325  -0.0000624997   0.0000108971   0.0000037767  -0.0000078803
        0.0000504656  -0.0000200459  -0.0000130167  -0.0000123928  -0.0000029073
        0.0000073941  -0.0000158587   0.0000276452   0.0000267617   0.0000152998
        0.0000526922  -0.0000439700   0.0000943526   0.0000326374   0.0000543669
        0.0000125882   0.0000318829  -0.0000045009  -0.0000033197   0.0000133373
       -0.0000211754   0.0000103326  -0.0000080084  -0.0000040628   0.0000372242
        0.0000116322   0.0000680840  -0.0000086092  -0.0000380978  -0.0000473123
       -0.0000503969  -0.0000658174  -0.0000170197   0.0000092237  -0.0000581947
        0.0000335449   0.0000300006   0.0000674876   0.0000432110   0.0000395347
       -0.0001370170   0.0000233316   0.0000690219  -0.0000725881   0.0002342436
        0.0000422031   0.0000482450   0.0002619235  -0.0001292107  -0.0000350805
        0.0002926268   0.0001590239  -0.0051468027   0.0025547841   0.0018684691
        0.0065414164  -0.0044908259   0.0080859521
        0.0139719690   0.0127320607  -0.0038699364   0.0336813173  -0.0570775859
       -0.0000613409  -0.0959547948   0.2382530799  -0.1915746916  -0.0150040567
       -0.0805693132   0.0720037948  -0.0262554263   0.0107115294  -0.0054017821
       -0.0038780374  -0.0150145648   0.0181938592   0.0018302061  -0.0006617570
       -0.0009999578  -0.0001899751  -0.0001570960   0.0004974912  -0.0003955880
       -0.0005346539   0.0003586066   0.0008431256   0.0003492591  -0.0003539793
       -0.0008254270   0.0007618917   0.0000202605  -0.0000575701  -0.0009066160
        0.0001064814   0.0001103598   0.0006700184  -0.0001032033   0.0005005206
        0.0000346884  -0.0000577517  -0.0004187613   0.0000439683  -0.0000213913
        0.0002019023  -0.0000843521  -0.0000447172  -0.0001169147  -0.0000093529
        0.0000362988   0.0001571146  -0.0000122261  -0.0000106343  -0.0001332223
        0.0000325248   0.0000122524   0.0002282855   0.0000259586   0.0000023277
        0.0000081092   0.0000274271   0.0000298273  -0.0000044117   0.0000147941
       -0.0000532974  -0.0000035453  -0.0000051914   0.0000236761  -0.0000021146
        0.0000012786   0.0000002357   0.0000031518   0.0000108666  -0.0000011752
        0.0000106909   0.0000113173   0.0000001935   0.0000133370  -0.0000000524
        0.0000170225   0.0000049345  -0.0000602449   0.0000113920   0.0000145008
        0.0000221173  -0.0000139587   0.0000113050  -0.0000032379  -0.0000140389
        0.0000042977  -0.0000066625   0.0000023361  -0.0000094683  -0.0000103141
        0.0000046291  -0.0000095937   0.0000235026   0.0000068405   0.0000628886
        0.0000041258   0.0000036430  -0.0000677616  -0.0000136498   0.0000026458
        0.0000294320  -0.0000247420  -0.0000233663  -0.0000075571   0.0000237138
        0.0000252066   0.0000432141   0.0000158952   0.0000165603  -0.0001393718
        0.0000077195   0.0000045810  -0.0002079730  -0.0008162817   0.0000934385
        0.0001536344   0.0009525166  -0.0001432179  -0.0009260465  -0.0005627357
        0.0000160762   0.0006812712  -0.0004630207   0.0000791118   0.0002649265
        0.0003250866   0.0001161784  -0.0002899048  -0.0002025762  -0.0003969335
        0.0423669581  -0.0027940836  -0.0090488562   0.0455148583  -0.1075577081
        0.0933275643  -0.0054290146  -0.0050901295   0.0135152700   0.0024126560
        0.0064262971   0.0024950701   0.0000301631   0.0001004403   0.0000305369
       -0.0000038438   0.0000432280  -0.0000022248   0.0000260866   0.0000341634
        0.0000069179   0.0000310699   0.0000092730   0.0000457305  -0.0000171882
       -0.0000079398   0.0000083545   0.0000136840  -0.0000222058  -0.0000198450
       -0.0000206050   0.0000118063  -0.0000077481   0.0000007563   0.0000056435
       -0.0000120633   0.0000030476   0.0000115659   0.0000003457   0.0000004196
        0.0000080107   0.0000031186  -0.0000039286   0.0000043672   0.0000016154
       -0.0000076477   0.0000113235  -0.0000119919  -0.0000063366  -0.0000064365
       -0.0000065302  -0.0000062279   0.0000026143  -0.0000065847  -0.0000039176
        0.0000029019  -0.0000093539   0.0000010597   0.0000001443  -0.0000137706
       -0.0000026446  -0.0000129108  -0.0000013439   0.0000087674   0.0000106209
        0.0000087925   0.0000127748   0.0000043811  -0.0000005067   0.0000126127
       -0.0000095914  -0.0000028089  -0.0000100019  -0.0000120839  -0.0000048372
        0.0000280004   0.0000161439   0.0000379926   0.0000144792  -0.0000331940
        0.0000079195   0.0000005865  -0.0000421944   0.0000515758   0.0000228004
        0.0000197451  -0.0000105592   0.0024472851   0.0063683573   0.0024072431
        0.0046303183  -0.0053616631   0.0086713839
        0.0123696803  -0.0037866173   0.0156505277   0.0283831917  -0.0004034426
       -0.0619041184  -0.0543424449  -0.1915746916   0.4913376923   0.0523002988
        0.0806208177  -0.2200238702   0.0697900135  -0.0175066850   0.0000811698
       -0.0058745417   0.0174688387  -0.0368253395   0.0018345961  -0.0000828149