76
 energy: -116.228644518233 gnorm: 0.000029089605 xtb: 6.7.1 (edcfbbe)
N           10.80345170731597       -0.29066338177508        1.32075157951294
C            9.68696474873195       -0.22933524538211        1.05916646085721
C            8.31479358836774       -0.15472532987879        0.73766732785556
C            7.91321668097318       -0.08282997678759       -0.59828975866285
C            6.56991897915697       -0.01062634321857       -0.90551855251576
C            5.60783531823369       -0.01260286347834        0.10345899933229
C            4.17004928533469        0.06390186053030       -0.23537958671613
C            3.62805248959017        1.27303508209584       -0.69371666623569
C            4.41605583332012        2.44885720061553       -0.81250446070155
C            3.87380413899416        3.62346476967029       -1.23503519280635
C            2.50259156422662        3.69933920729770       -1.55202699728530
C            1.71159804362227        2.59685996478490       -1.44527160764068
C            2.23903953651434        1.34676518429083       -1.02559215095259
C            1.42976877106271        0.20740256580740       -0.90204853396380
C           -0.00070022952019        0.27182740099327       -1.26676340288255
C           -0.37859222427333        0.45469156045091       -2.59617971846481
C           -1.71258939838471        0.48796477978182       -2.96420476143378
C           -2.68004907156386        0.33469981421370       -1.98380929291681
C           -2.30552273584951        0.15876076418008       -0.64389967821773
C           -0.97813754163179        0.12509551001182       -0.28143995067968
C           -3.52620298507309       -0.03546839670993        0.23565533657578
C           -3.40047132822670       -1.41482077902756        0.85582723961569
C           -3.90869285390743       -2.53583896309947        0.21207532510355
C           -3.72054182822594       -3.79905031253585        0.74621280465715
C           -3.01332848010994       -3.96030624217763        1.92513465944602
C           -2.49292932527634       -2.84873825516960        2.56651693462536
C           -2.68244127737149       -1.58604265972015        2.03449912359172
C           -3.72186264904955        1.05870223757281        1.26635445086420
C           -4.55700023641845        0.84719137503902        2.35805496831193
C           -4.79370565887080        1.85995249332824        3.27000557443636
C           -4.20270474166839        3.10111040832683        3.10211831939511
C           -3.37696744913271        3.32201599846816        2.01348223109530
C           -3.14219150251662        2.30972986498365        1.09897299642409
C           -4.64686517259063        0.07682615677166       -0.78188661036703
C           -6.00841629681840        0.00754909648314       -0.57655440640773
C           -6.85638373135586        0.15949474154729       -1.66596634677981
C           -6.34811594741178        0.38229041022251       -2.93697037504998
C           -4.98097976644390        0.45785959103406       -3.14969286673348
C           -4.13074523858361        0.30555143265687       -2.06622762126275
C            1.97251099569001       -1.00065508845587       -0.43661211491725
C            1.18811794603530       -2.17891927650545       -0.31793367051707
C            1.72664189013921       -3.34612798564185        0.12936902738539
C            3.09269127577262       -3.41459548570479        0.46904006381271
C            3.88464692442204       -2.31399475647876        0.35069643694700
C            3.35967208238222       -1.07196380142790       -0.09568198431963
C            6.01766140862261       -0.08547826016917        1.43401272194903
C            7.35793784175896       -0.15387829904942        1.75534707090063
H            8.65791302184684       -0.08437029085696       -1.38089065629077
H            6.25529288407208        0.04405402157023       -1.93732765475707
H            5.46289154321549        2.39845569757546       -0.55156764860101
H            4.48730065500387        4.50869607128075       -1.31991279752270
H            2.08456213941182        4.64278412282642       -1.87191163466459
H            0.65821415522907        2.66047533447736       -1.67348668646175
H            0.39029964811022        0.55742190817893       -3.34883904435079
H           -1.99026450851567        0.62272642089006       -3.99909301783968
H           -0.68415773463865       -0.01004588863788        0.74901358482984
H           -4.45581155572177       -2.42222582046496       -0.71270111211591
H           -4.12705626050698       -4.66054009001701        0.23586013069966
H           -2.86650218012985       -4.94652850942900        2.34095766106359
H           -1.93464062100567       -2.96450347341596        3.48449669325689
H           -2.27599451297158       -0.72448308009096        2.54455246083883
H           -5.01644179329507       -0.12041016315117        2.50148366609133
H           -5.44335763471566        1.67908661175430        4.11448254105663
H           -4.38624087514393        3.89181245237768        3.81508565826032
H           -2.91377832991845        4.28807181182579        1.87188193386745
H           -2.50105627229726        2.49513878238706        0.24944674437979
H           -6.41271402663379       -0.16456952063506        0.40984771217142
H           -7.92551345735038        0.10458336435722       -1.52023529132823
H           -7.02696849798513        0.49898872901231       -3.76956942916780
H           -4.58744272163816        0.63326938880908       -4.14005281766266
H            0.14572352848237       -2.13704666085129       -0.59569302787437
H            1.11198508622533       -4.23015508607611        0.21739467529296
H            3.50737725752957       -4.35091092750429        0.81342406779661
H            4.93534989134285       -2.37395417618743        0.59347025461620
H            5.27475986392726       -0.08307999403022        2.21802723300086
H            7.67538392809347       -0.20701780471260        2.78664345715638
