66
 energy: -107.620762429897 gnorm: 0.000043950992 xtb: 6.7.1 (edcfbbe)
C            0.60326413363859        0.00255090599277       -0.00360143457338
C           -0.60519814212911        0.00212863859321       -0.00402473502409
C           -2.01572468306814        0.00148340435921       -0.00368218551520
C           -2.72047394879204       -0.28657243543953        1.16834580593398
C           -4.09989466125056       -0.29174722630527        1.16595519163290
C           -4.79927065276665        0.00001480017171       -0.00238263523554
N           -6.21462319231378       -0.00079128382078       -0.00125190095583
C           -6.92279167042490        0.94629638439036        0.73956008969339
C           -6.28810458355485        1.95222580515029        1.45828628079209
C           -7.02159492392033        2.87914139871614        2.18396709829774
C           -8.40044449265056        2.82288423188803        2.19696719241488
C           -9.05096525922820        1.84075192446002        1.46273619234062
C           -8.32415891766263        0.91654196827078        0.73632422770251
O           -9.04096319290157       -0.00888287233062        0.01131680107898
C           -8.32525584595017       -0.92882937031018       -0.72175546428922
C           -9.05334959043295       -1.85590933406138       -1.44319857731184
C           -8.40399378895188       -2.83301557046168       -2.18511391389637
C           -7.02479064483041       -2.88124400588678       -2.18491304718872
C           -6.29000932748761       -1.95141658247407       -1.46425944595581
C           -6.92378804787119       -0.95068717419353       -0.73752848719849
C           -4.10134993591749        0.29267061514353       -1.17133282609162
C           -2.72186631797698        0.28890471653205       -1.17499364827200
C            2.01388841701490        0.00278863763560       -0.00298989138302
C            2.71930220624295        0.10445040528212        1.19929825623207
C            4.09869376191809        0.11027528068297        1.19776985321051
C            4.79890460897538        0.00270875149299       -0.00147470267780
N            6.21364879138615        0.00241251920213       -0.00068508129125
C            6.92258582627393       -1.03553638326922        0.60661566898076
C            6.28895445824287       -2.12617577992721        1.19012711554086
C            7.02277572615093       -3.14019466299799        1.78752815245270
C            8.40175427397517       -3.08782186590025        1.80364848937087
C            9.05139294912538       -2.02031500640820        1.19956990221646
C            8.32405298875617       -1.00843058457782        0.60173899397958
O            9.04089507583252        0.00097642776094       -0.00059826779833
C            8.32512325733517        1.01111530757452       -0.60297303200593
C            9.05350457536320        2.02228018563356       -1.20075237671103
C            8.40495510349777        3.09045318686806       -1.80482553316439
C            7.02602789459431        3.14423007218648       -1.78874095985371
C            6.29116467429742        2.13091852280335       -1.19142180093856
C            6.92368808565204        1.03961565263956       -0.60794847395051
C            4.09997782958122       -0.10467824977235       -1.20148928821349
C            2.72058660657903       -0.09877846238080       -1.20452330881020
H           -2.17676418224471       -0.51418019751076        2.07331448583557
H           -4.64728378757083       -0.52231085323894        2.06833201527974
H           -5.21136456409261        2.01469256067433        1.44650253560665
H           -6.50122705466241        3.64676046092614        2.73624376045962
H           -8.97673659992344        3.53805124064235        2.76269980313959
H          -10.12774307896962        1.77807067165839        1.43719687133696
H          -10.13019223734216       -1.79948688396354       -1.40761556903318
H           -8.98132346808471       -3.55056431150727       -2.74675389400120
H           -6.50506351925153       -3.64476463868439       -2.74343818659295
H           -5.21289066824426       -2.00790319383681       -1.46244756092231
H           -4.64976852894658        0.52307184682112       -2.07311845273993
H           -2.17926982091414        0.51716374788236       -2.08046926291063
H            2.17637144082411        0.18827378243984        2.12910392686542
H            4.64517718925833        0.19879037706005        2.12547037423968
H            5.21227913244713       -2.18659398397607        1.17268836384192
H            6.50248639256484       -3.97180547081555        2.23780696617956
H            8.97854935116497       -3.87078068106986        2.27044066209642
H           10.12818239121735       -1.95675227448268        1.17799085949396
H           10.13022867900581        1.95762841372974       -1.17915465273722
H            8.98255644985890        3.87284039654565       -2.27157904690851
H            6.50660981276795        3.97640558098715       -2.23898562982098
H            5.21454556104071        2.19238144933966       -1.17400925892854
H            4.64745790537503       -0.19320339684661       -2.12860176630116
H            2.17865178034821       -0.18258153570106       -2.13491263700800
