118
 energy: -187.390088433432 gnorm: 0.000122211169 xtb: 6.7.1 (edcfbbe)
C            6.82745879870729       -4.42151293196060        1.69723800905834
C            6.52594682839555       -4.05278201887174        0.39679993293003
C            6.92924341663984       -2.82233655820869       -0.08939179640527
C            7.63669024820287       -1.95526402129413        0.73504870158972
N            8.01060394226957       -0.68591473589141        0.25186208585569
C            7.13297236768218        0.30595880923771       -0.13621543546546
C            5.68963711307726        0.21400404711550       -0.08011191918228
C            4.99943730037979       -0.52087361327130        0.88732086722190
C            3.62410179631812       -0.57448736419909        0.87381593321245
C            2.87712433718562        0.12012641488540       -0.08563481664204
C            1.42357299059162        0.05114011787751       -0.09235715839867
C            0.64993610340749        1.25450488065864       -0.06421554282913
C            1.24938961971860        2.51162522985588        0.05337681170133
C            0.49978113261874        3.68255173995383       -0.00458445135668
C           -0.86508205293435        3.61423321074156       -0.18691533530117
C           -1.49458455965119        2.37435161927685       -0.24055045341967
C           -0.77297474757153        1.18324207670105       -0.12175451802331
C           -1.42387168201757       -0.09093230618126       -0.08671255430583
C           -2.87748519031511       -0.15850565645618       -0.07415805895591
C           -3.61950523423666        0.54039159884852        0.88603795241932
C           -4.99498752374893        0.49326160705010        0.90210917959938
C           -5.69037458868478       -0.23865337650666       -0.06389395194144
C           -7.13434521212627       -0.31797255231708       -0.12196077917269
N           -7.77338468152366       -1.37861691242561       -0.55730531401235
C           -9.09376736007114       -1.09221871084775       -0.45678542151247
C          -10.19628064467525       -1.93435870203598       -0.77967126122187
C          -10.04000718455513       -3.23201796331594       -1.25266884747825
C          -11.15118475279060       -4.00821916246468       -1.53519526701988
C          -12.42127237051623       -3.49917025588123       -1.35221522915914
C          -12.61463925252873       -2.19638267079621       -0.88289135285078
C          -13.92016783949836       -1.65563751155997       -0.70156482247149
C          -14.09405966969094       -0.38589004554285       -0.27182976838343
C          -12.98202892647543        0.45714330538797        0.02073518496514
C          -13.17031985728794        1.77819307147461        0.43664526832487
C          -12.08866821740309        2.59429619715954        0.69014157075603
C          -10.79723400479099        2.11116334367442        0.56550461304094
C          -10.56130666355390        0.79096594171899        0.18452951965784
C          -11.66857053324968       -0.05376364992376       -0.12311837363434
C          -11.48932381440449       -1.38837387881829       -0.58591870769191
C           -9.27266995983550        0.20062218294639        0.04410121222785
N           -8.00318580107219        0.68235873908816        0.26436927300743
C           -7.61853147208124        1.94773035354823        0.74971762166805
C           -7.91797149616468        2.31542418769651        2.05822110406997
C           -7.50378607034401        3.54557391848984        2.53459392450586
C           -6.78849798958004        4.40531670162462        1.71629855739358
C           -6.49008300536324        4.03634999861777        0.41520106395076
C           -6.90377099993181        2.81024624210623       -0.07318167214338
C           -4.95492340066389       -0.96167636810202       -1.00979129650949
C           -3.58068303539240       -0.92635136877630       -1.01255948824141
C           -0.65020447799781       -1.29412195365109       -0.05742203554996
C           -1.24950730470555       -2.55073166590964        0.06628201632387
C           -0.50012920961339       -3.72190711790621        0.01021490780484
C            0.86417660499305       -3.65433898569596       -0.17664840154853
C            1.49363586418034       -2.41469961052264       -0.23704699962733
C            0.77251599527291       -1.22312284751943       -0.12022819365702
C            3.57526013334657        0.88796366614408       -1.02789107280441
C            4.94925518097732        0.93031638332493       -1.02722778269230
N            7.76253790292430        1.37363651525888       -0.56810748489339
C            9.08543028106486        1.10081003394862       -0.46299229676519
C           10.18022009398727        1.95553575265010       -0.77898316841689
C           10.01206510743477        3.25243745334402       -1.24997595792658
C           11.11604648471667        4.04172299826230       -1.52431246865302
C           12.39071057930281        3.54651813919494       -1.33523794103346
C           12.59602014131793        2.24478532489827       -0.86805584771861
C           13.90646244039944        1.71813703613089       -0.68078058562131
C           14.09208329856975        0.44919929100797       -0.25357315349434
C           12.98790720629729       -0.40691151878178        0.03069060633020
C           13.18855453833219       -1.72698191722257        0.44392720805143
C           12.11464341433364       -2.55563422881881        0.68950827111973
C           10.81862681350933       -2.08626904411059        0.55985819761124
C           10.57017693450664       -0.76762263666349        0.18149089791762
C           11.66966158463700        0.08988890160107       -0.11867206445028
C           11.47817065257300        1.42354281459265       -0.57932010294646
C            9.27589018416338       -0.19078469378532        0.03684330285218
C            7.93903649466974       -2.32265281839456        2.04296180885027
C            7.53530301747639       -3.55713460115835        2.51712513784255
H            6.51046531625114       -5.38226999584278        2.07354257055156
H            5.97577453439792       -4.72567633066565       -0.24342834280240
H            6.69708591498257       -2.52291719734939       -1.10065315238461
H            5.53587972279260       -1.02925510602851        1.67379720810296
H            3.10449237001646       -1.12746504749368        1.64309663985168
H            2.31629650539727        2.58054730371885        0.19895510208167
H            0.99618417426009        4.63772013896496        0.07977609876139
H           -1.45369532690276        4.51548499358569       -0.27376573575565
H           -2.56404215267176        2.33613364242976       -0.38136120415948
H           -3.09584314548621        1.09256351545536        1.65315866550086
H           -5.52755529093322        1.00524191246475        1.68885413598002
H           -9.03967062396732       -3.61258598192015       -1.38735749603010
H          -11.02337679907195       -5.01694925836396       -1.90046209890694
H          -13.28720757433426       -4.10655889718978       -1.57500787708357
H          -14.76923060308452       -2.28660610047577       -0.92387240563030
H          -15.08598508367335        0.02416077041850       -0.14341493229386
H          -14.17658973680607        2.15661985490247        0.54494839237449
H          -12.24355655969986        3.62080502846297        0.98951543692904
H           -9.96891239633343        2.77457281012830        0.75662201358658
H           -8.47172882468430        1.63457531567973        2.68835814429083
H           -7.73602633648055        3.83080590481079        3.54968882016115
H           -6.46333454979765        5.36265502640520        2.09432679791292
H           -5.93423203096698        4.70573378785014       -0.22381395575549
H           -6.67413640453240        2.51062733294937       -1.08496694796240
H           -5.49476031851562       -1.53874671699613       -1.74420657939321
H           -3.02944048599181       -1.46061090362019       -1.77271330885006
H           -2.31600447484919       -2.61885450205026        0.21516955806866
H           -0.99626251740584       -4.67674627295486        0.09962442456972
H            1.45243311690813       -4.55594772412455       -0.26195282651423
H            2.56259915957136       -2.37707370149181       -0.38164212859827
H            3.02018416871959        1.41759412946888       -1.78850051197509
H            5.48502019673832        1.50873376121084       -1.76357209451118
H            9.00828903220896        3.62209736890948       -1.38941334451328
H           10.97900534601150        5.04986241427278       -1.88787291928730
H           13.25101934353732        4.16417562454094       -1.55149919650885
H           14.74967004232786        2.35914250497252       -0.89659491741717
H           15.08778839411663        0.04982578966643       -0.12082956804871
H           14.19835477229674       -2.09464455404316        0.55639111410910
H           12.27927090046643       -3.58127398032927        0.98666098193900
H            9.99664608062569       -2.75924167465706        0.74486938457498
H            8.48690027428554       -1.63824894321392        2.67438227135453
H            7.76990378733823       -3.84215686401794        3.53172969689595
