$hessian                                                                        
        0.4708655182   0.0116387100   0.0445426292  -0.1203288830   0.0160635926
        0.0577899235   0.0030576239  -0.0003673740  -0.0014266795  -0.0196280761
       -0.0094398069   0.0124946114  -0.0010377481   0.0020752180  -0.0001753947
       -0.0006176672  -0.0008152294  -0.0006508000   0.0002803080  -0.0000823314
        0.0000372803  -0.0003500385  -0.0004061781  -0.0007398953   0.0009181945
       -0.0017876208   0.0017063911  -0.0005835150  -0.0000123380  -0.0000164168
        0.0002242077   0.0000158855   0.0000227019   0.0000427294   0.0000172875
        0.0000563216  -0.0001113380  -0.0000199703  -0.0000260076   0.0001018099
        0.0000175355   0.0000620293  -0.0000206399  -0.0000253056  -0.0001207478
        0.0000040309   0.0000140568   0.0001111484  -0.0000794474  -0.0000278308
        0.0000277502   0.0000663811   0.0000515035  -0.0000094566   0.0000086441
       -0.0000062121  -0.0000054792   0.0000120523  -0.0000192572  -0.0000138984
       -0.0000481005  -0.0000010988   0.0000152191   0.0000900281   0.0000053360
       -0.0000402418  -0.0000392863  -0.0000140420   0.0000253094   0.0000064457
       -0.0000072745  -0.0000070417  -0.0000154497   0.0000351328  -0.0000082854
        0.0000138194   0.0000217782   0.0000201671   0.0000063299   0.0000107199
        0.0000761692   0.0000438765  -0.0000060434  -0.0000018986   0.0001078916
       -0.0000706359  -0.0000447670  -0.0000754224   0.0001855932  -0.0001041419
       -0.0000631863  -0.0000520652   0.0000765171  -0.0000950807   0.0000578847
       -0.0000077576   0.0000423050  -0.0000156703  -0.0000118832   0.0000282824
       -0.0000070792  -0.0000257353   0.0001376603  -0.0000324065  -0.0000544626
       -0.0000684803   0.0000432338   0.0000188655  -0.0000052012   0.0000200055
        0.0000072191  -0.0000162436  -0.0000217332  -0.0000167848   0.0001334148
       -0.0000857275   0.0000051068   0.0000218337  -0.0000186839  -0.0000008509
        0.0000312141  -0.0000174844   0.0000070615  -0.0001005260   0.0000309311
        0.0000353272  -0.0000386195   0.0000897871  -0.0000756824  -0.0001304045
       -0.0000691756   0.0001653323  -0.0000143982   0.0000008354  -0.0000452310
       -0.0000038270  -0.0000222664  -0.0000370444  -0.0000997140  -0.0000284346
       -0.0000622285   0.0000568725   0.0000059489   0.0000124398   0.0001996048
        0.0028486822   0.0000819669  -0.0005110333  -0.0001776109  -0.0008958488
        0.0002209249   0.0001581351  -0.0000755087  -0.0007264904   0.0001283870
       -0.0009589561  -0.0008061893  -0.0017138720   0.0010993672  -0.0229821210
        0.0131932960   0.0063431554  -0.1317196168   0.1030890850  -0.0590857983
       -0.0714286477  -0.0267440849  -0.0738940725  -0.1058839658  -0.1070915217
        0.0157792056   0.0005883665  -0.0002322249  -0.0004961155   0.0005504565
       -0.0000871732  -0.0005182375   0.0002860499  -0.0005737164  -0.0016493201
       -0.0001110502   0.0003857072   0.0000430538  -0.0000160416   0.0000387184
        0.0000563058  -0.0000180581   0.0000240880   0.0001263542  -0.0000792228
       -0.0001246464   0.0000121913  -0.0000216645   0.0000062101   0.0000215073
       -0.0000182883  -0.0000048730  -0.0000194911  -0.0000060276  -0.0000022155
        0.0000083961   0.0000090678  -0.0000038214  -0.0000084106   0.0000011281
       -0.0000080038  -0.0000020243   0.0000007881  -0.0000042024  -0.0000034456
        0.0000151355  -0.0000026824  -0.0000036510   0.0000037014   0.0000095172
       -0.0000054233   0.0000054745  -0.0000011472   0.0000039015   0.0000056022
        0.0000022492  -0.0000043349   0.0000037986   0.0000011512  -0.0000023200
       -0.0000040747   0.0000032201   0.0000009156   0.0000106541   0.0000064140
        0.0000153482   0.0000014036   0.0000034136  -0.0000061860   0.0000040773
       -0.0000123200  -0.0000005548   0.0000001817   0.0000061636  -0.0000031485
        0.0000052643  -0.0000031602  -0.0000023919   0.0000007622  -0.0000012106
        0.0000059974   0.0000002492  -0.0000134112   0.0000059466   0.0000009504
       -0.0000017711  -0.0000049448   0.0000026041  -0.0000084095   0.0000094788
        0.0000103055   0.0000027390   0.0000021419  -0.0000099722  -0.0000047975
       -0.0000020106   0.0000040908  -0.0000068099  -0.0000039881  -0.0000076613
        0.0000002344   0.0000060770   0.0000152544  -0.0000004376  -0.0000515729
       -0.0001064821   0.0001446441  -0.0000475628  -0.0000202629   0.0000500476
        0.0001176752  -0.0000108974   0.0000101991   0.0000704615  -0.0001883092
       -0.0002098786   0.0003491630
        0.0116387100   0.5256484072  -0.0128740045   0.0128854065  -0.0633245075
       -0.0088857763   0.0066661004  -0.0012254369  -0.0090430798  -0.0194860213
        0.0005124137   0.0127573995  -0.0004625647  -0.0016628005   0.0010045352
        0.0007355352   0.0008713748  -0.0006816347  -0.0006848887   0.0000340991
       -0.0002333529  -0.0003434759  -0.0005699545  -0.0008240489  -0.0004813479
       -0.0033161630   0.0012665019  -0.0001685983   0.0011414844  -0.0004185219
        0.0000292231   0.0000479100   0.0001250916   0.0000009462   0.0000462848
       -0.0000296342   0.0000321839   0.0000144657   0.0000250961   0.0000034570
        0.0000011318  -0.0000434218  -0.0000479010  -0.0000189804   0.0000208157
        0.0000070921   0.0000145314  -0.0000222035   0.0000714241   0.0000406835
       -0.0000274678  -0.0000401576  -0.0000420213   0.0000051773   0.0000136934
        0.0000195183  -0.0000017171  -0.0000159889  -0.0000161134   0.0000034283
        0.0000158703   0.0000224598  -0.0000011544  -0.0000488186  -0.0000569482
        0.0000146497   0.0001303211   0.0001080283   0.0000196680  -0.0001127124
       -0.0000849949  -0.0000215012  -0.0000336781   0.0000015595  -0.0000001022
        0.0000222984  -0.0000212554  -0.0000183737  -0.0000083254  -0.0000099827
       -0.0000005213   0.0000624667  -0.0000111321   0.0000065444   0.0000122925
       -0.0000297027  -0.0000125638  -0.0000384541   0.0000862471  -0.0000440159
        0.0000087567  -0.0000202115   0.0000072157  -0.0000020910   0.0000135720
       -0.0000137270   0.0000138336   0.0000065881  -0.0000193732  -0.0000171481
        0.0000100827  -0.0000029247   0.0000340093  -0.0000057133  -0.0000345692
        0.0000023366   0.0000470178   0.0000351204   0.0000285243   0.0000468809
        0.0000009827   0.0000002893   0.0000101151   0.0000001745   0.0000291736
       -0.0000216618  -0.0000036754   0.0000069708  -0.0000024400   0.0000044967
        0.0000146613  -0.0000216547   0.0000203223  -0.0000004789  -0.0000193551
        0.0000179987   0.0000018331   0.0000121583  -0.0000264157  -0.0000450023
       -0.0000218597   0.0000626842   0.0000058749   0.0000094573   0.0000106011
        0.0000235721  -0.0000039455   0.0000114982   0.0000467128   0.0000140539
        0.0000224320  -0.0000664098  -0.0000119366   0.0000058101   0.0007353163
       -0.0027066565   0.0002122983   0.0004294134  -0.0000753107   0.0008866407
        0.0006096378   0.0001818084   0.0001485156  -0.0005593540   0.0009026882
        0.0001269698   0.0001965825  -0.0013664516   0.0003633481   0.0185468070
       -0.0052681769  -0.0089763233   0.1028698536  -0.1603022125   0.0658890216
       -0.0266918237  -0.0691349082  -0.0675197119  -0.1071111691  -0.2189655302
        0.0279727146  -0.0001550301   0.0002672266   0.0005771757   0.0007836591
        0.0003621427  -0.0000927423  -0.0002767092  -0.0002365839  -0.0022047610
       -0.0009443864  -0.0005330880   0.0008405138  -0.0000209582   0.0000240835
        0.0000550932  -0.0001167106   0.0000198478   0.0001050126  -0.0001166450
       -0.0002195817  -0.0000657310  -0.0000079682  -0.0000185991  -0.0000176054
       -0.0000038939  -0.0000068686   0.0000029721   0.0000040675   0.0000034879
       -0.0000017959  -0.0000084299   0.0000044569   0.0000085222  -0.0000050707
        0.0000052617   0.0000068431  -0.0000056463   0.0000007045   0.0000025930
       -0.0000086834   0.0000035928   0.0000034456   0.0000127720   0.0000022826
       -0.0000109336  -0.0000092003   0.0000021964   0.0000028505  -0.0000070961
       -0.0000043357   0.0000060592  -0.0000041032  -0.0000067280   0.0000064748
        0.0000043937  -0.0000021856   0.0000022574  -0.0000290168  -0.0000101108
       -0.0000048372  -0.0000057349  -0.0000138385   0.0000029253  -0.0000126038
       -0.0000020149  -0.0000058787  -0.0000005474  -0.0000075940  -0.0000000192
       -0.0000098414  -0.0000113538  -0.0000079174   0.0000003275   0.0000016141
       -0.0000024007  -0.0000034695   0.0000090671   0.0000083803   0.0000001268
        0.0000024197  -0.0000020573  -0.0000177175   0.0000140048  -0.0000076026
       -0.0000101910   0.0000005787   0.0000069493   0.0000010285  -0.0000017321
       -0.0000048313  -0.0000085799   0.0000026742  -0.0000006311  -0.0000105416
       -0.0000046228  -0.0000010417   0.0000096459  -0.0000120183   0.0000038573
        0.0001083350  -0.0001244825   0.0001065536   0.0001051155  -0.0000275208
       -0.0000963378   0.0000348494  -0.0000089718  -0.0000925516   0.0012696844
       -0.0010004145  -0.0003967397
        0.0445426292  -0.0128740045   0.4837247057   0.0489586772  -0.0096843777
       -0.0984526926   0.0193346739  -0.0076915638  -0.0249439904   0.0090176205
        0.0044100400  -0.0039075856  -0.0000472110  -0.0002735292   0.0003304846
        0.0002627639   0.0000713188   0.0002524577  -0.0000501330   0.0000889420
        0.0000609437   0.0000657996   0.0002452273   0.0002581650  -0.0007990206
        0.0002016289  -0.0013709619   0.0004596887  -0.0003410561   0.0000969209
       -0.0001313697   0.0000474787   0.0002782312   0.0001237737   0.0000141120
       -0.0000056654   0.0000132218   0.0000091042   0.0001538941   0.0001635573
        0.0000570603  -0.0000463480  -0.0002246112  -0.0001527563  -0.0002331008
        0.0000866694   0.0001437832   0.0002246331   0.0001578644   0.0001180296
       -0.0000356381  -0.0000519983  -0.0000968435  -0.0000150262   0.0000251604
        0.0000633446   0.0000026515  -0.0000427800  -0.0000639037  -0.0000072160
       -0.0000254644   0.0000845192   0.0000302071  -0.0000702162  -0.0002035386
        0.0000088069   0.0005262070   0.0004582764   0.0001127582  -0.0004619880
       -0.0003834627  -0.0000976096  -0.0001216094   0.0000374691   0.0000068259
        0.0000804424  -0.0000280900   0.0000060806  -0.0000479590   0.0000275760
       -0.0000569949   0.0000315512  -0.0000261133  -0.0000160342  -0.0000889335
        0.0000412743   0.0000631662   0.0000467147  -0.0001234788   0.0000545784
        0.0000908114   0.0000456420  -0.0000820786   0.0001102703  -0.0000501249
       -0.0000091081  -0.0000509132   0.0000250537   0.0000060599  -0.0000577409
        0.0000273414   0.0000148089  -0.0001357804   0.0000249663   0.0000643072
        0.0000459491  -0.0000373704  -0.0000296834  -0.0000164693   0.0000128925
       -0.0000318645   0.0000157237   0.0000456338   0.0000222402  -0.0001271948
        0.0000834866  -0.0000116940  -0.0000116625   0.0000209387   0.0000065345
       -0.0000273850   0.0000445153   0.0000174639   0.0001135058  -0.0000158016
       -0.0000394174   0.0000412212  -0.0000699614   0.0000621071   0.0001124669
        0.0000422778  -0.0001311099  -0.0000209906   0.0000029073   0.0000507139
        0.0000654628  -0.0000400917  -0.0000084623  -0.0000003674  -0.0000246592
       -0.0000592514  -0.0000068897  -0.0000067271  -0.0001016180  -0.0013320966
        0.0009265364  -0.0012939949  -0.0002117024  -0.0000233292  -0.0002629210
       -0.0004352821  -0.0001758370   0.0000244772   0.0007417605  -0.0005078490
        0.0001279666  -0.0003797019   0.0014673843  -0.0000600715  -0.0036772300
       -0.0011642837   0.0059545302  -0.0593522214   0.0659503305  -0.0796622058
       -0.0738241230  -0.0675075989  -0.2297884594   0.0154245374   0.0278009658
       -0.0471188727   0.0010341353  -0.0000212496   0.0009817852   0.0006943167
        0.0006604182   0.0009811963  -0.0007800454  -0.0021660911  -0.0056767135
        0.0005677073   0.0002709985  -0.0004200601   0.0000297667  -0.0000418599
       -0.0000511300   0.0000366412  -0.0000118710  -0.0000428818   0.0000024886
        0.0000172964  -0.0000249331  -0.0000263850   0.0000010257  -0.0000147861
       -0.0000045467  -0.0000080899   0.0000105450   0.0000086476   0.0000088923
       -0.0000089865  -0.0000160095   0.0000078385   0.0000115332  -0.0000083477
        0.0000096462   0.0000109619  -0.0000119544   0.0000000928   0.0000016170
       -0.0000227533   0.0000074325   0.0000061315   0.0000010173  -0.0000114659
        0.0000089282  -0.0000134712   0.0000011567  -0.0000031359  -0.0000086746
       -0.0000105822   0.0000112603  -0.0000039552  -0.0000093562   0.0000095547
        0.0000121284  -0.0000114115   0.0000038136   0.0000044357  -0.0000184124
        0.0000093622   0.0000123275   0.0000041100   0.0000098780   0.0000045941
       -0.0000081666   0.0000067173  -0.0000000152  -0.0000191826  -0.0000008903
       -0.0000091831  -0.0000022113   0.0000074632   0.0000049770  -0.0000048414
       -0.0000106337   0.0000135256  -0.0000114782   0.0000037561  -0.0000053616
       -0.0000058201  -0.0000083904  -0.0000166952   0.0000119414  -0.0000049978
       -0.0000203616  -0.0000107501   0.0000039686   0.0000114311   0.0000007387
       -0.0000055940  -0.0000139080   0.0000080878  -0.0000006778  -0.0000247470
       -0.0000130553   0.0000054377  -0.0000140729   0.0000076200   0.0000441452
       -0.0000764664   0.0000604487  -0.0000986065  -0.0000380618   0.0000122219
        0.0000274893   0.0000074368   0.0000045288  -0.0000100827  -0.0001582404
        0.0002176954   0.0000899118
       -0.1203288830   0.0128854065   0.0489586772   0.4460839504  -0.0002158700
        0.0104028927  -0.0655301258  -0.0096115281  -0.0274436597  -0.0907842975
       -0.0480601291   0.0034566987   0.0088633834   0.0034365050   0.0020438072
        0.0014121950   0.0041214376  -0.0028922971  -0.0015786454  -0.0001430461
       -0.0003220475  -0.0037378459  -0.0000939203  -0.0028035546  -0.0186062181
       -0.0232468425   0.0000172240   0.0046583531   0.0012284743   0.0019624672
       -0.0005519505   0.0000842402   0.0002554034   0.0001228833  -0.0000129581
       -0.0002602510   0.0004771919   0.0000903894   0.0001049974  -0.0003222304
       -0.0000555933  -0.0002184737  -0.0000118693  -0.0000086609   0.0001068907
        0.0000383486   0.0000829363  -0.0001776290   0.0002225271   0.0001147709
       -0.0000513988  -0.0001750802  -0.0001944732  -0.0000133864  -0.0000126800
        0.0000291890   0.0000130405  -0.0000333324   0.0000646260   0.0000438717
        0.0001915307   0.0000357410  -0.0000425323  -0.0002756934  -0.0000454532
        0.0001333476   0.0002677077   0.0001600886  -0.0000422989  -0.0002143883
       -0.0001284662  -0.0000139337   0.0000352862  -0.0001023128   0.0000243799
       -0.0000523990  -0.0000784653  -0.0000957194   0.0000363559   0.0000105175
       -0.0002243523  -0.0000886143   0.0000141117   0.0000118349  -0.0003422859
        0.0002582804   0.0001438262   0.0002573331  -0.0005191232   0.0002627968
        0.0003176013   0.0001689482  -0.0002853537   0.0004072489  -0.0002096838
       -0.0000000504  -0.0002057861   0.0000778410   0.0000406822  -0.0001686301
        0.0000879561   0.0000647025  -0.0005543954   0.0000898828   0.0003019876
        0.0002360966  -0.0001503866  -0.0000932516  -0.0000325902   0.0000434472
        0.0000608059   0.0000445009   0.0001479488   0.0001191995  -0.0005321411
        0.0003841227  -0.0000426676  -0.0001386293   0.0001250702   0.0000382049
       -0.0001996047   0.0001078821   0.0000667346   0.0004294142  -0.0000936370
       -0.0001279704   0.0001856190  -0.0003214445   0.0002715012   0.0004071431
        0.0001735569  -0.0004751777   0.0000953501   0.0000333169   0.0002029089
       -0.0000053304   0.0000934617   0.0001593490   0.0003896462   0.0001001500
        0.0002834973  -0.0001758827  -0.0000121996   0.0001311328  -0.0231719192
        0.0162093757  -0.0125529051  -0.0037033576  -0.0020884872  -0.0018845679
       -0.0015309881  -0.0002025229  -0.0001733556   0.0022937481  -0.0043869585
        0.0000513232   0.0077902746   0.0028756210   0.0012248859  -0.1036668860
        0.0460623161  -0.0295724077  -0.0183684101   0.0058817031   0.0109075145
        0.0050331460  -0.0004769966  -0.0023158148  -0.0157564173  -0.0002227133
        0.0111678510  -0.0076142417  -0.0039392759  -0.0172777517  -0.0062818683
       -0.0070595006  -0.0132877561   0.0062026113   0.0065983136   0.0182994022
       -0.0003901092   0.0006978622   0.0005637833   0.0003271815   0.0008471759
       -0.0002206246  -0.0001232192   0.0002485254   0.0002527815  -0.0005847817
       -0.0010592180  -0.0000034883  -0.0000514910  -0.0000286850  -0.0000469123
        0.0000142282  -0.0000120441   0.0000466592   0.0000294105   0.0000334714
       -0.0000083331  -0.0000425674  -0.0000281668   0.0000350803  -0.0000268641
        0.0000332058   0.0000383344  -0.0000263874  -0.0000128185   0.0000201894
       -0.0000657574   0.0000058308   0.0000153343  -0.0000009695  -0.0000596853
       -0.0000329771   0.0000115892  -0.0000171224  -0.0000320558   0.0000149225
       -0.0000322926   0.0000033403  -0.0000636077   0.0000158449  -0.0000172002
        0.0000501901  -0.0000379503   0.0000112065  -0.0000242222  -0.0000414549
       -0.0001074166   0.0000111559  -0.0000034605  -0.0000212772   0.0000105395
       -0.0000322875  -0.0000195761  -0.0000167478  -0.0000275255  -0.0000083744
       -0.0000175284   0.0000159254   0.0000319302  -0.0000078525  -0.0000444034
       -0.0000381295   0.0000570882  -0.0000076677  -0.0000305845  -0.0000284990
       -0.0000282071  -0.0000066047   0.0000754365   0.0000361413  -0.0000499202
        0.0000429588  -0.0000663388  -0.0000211343   0.0000500146   0.0000137977
       -0.0000147170  -0.0000374630   0.0000246195  -0.0000215226  -0.0000397759
       -0.0000123245  -0.0000311774  -0.0001269231  -0.0000216010   0.0000387730
       -0.0006644716   0.0007602473  -0.0004935512  -0.0000533169  -0.0001001704
        0.0004054714   0.0003626717  -0.0008353456   0.0002713304  -0.0004106611
       -0.0004208576   0.0008480884
        0.0160635926  -0.0633245075  -0.0096843777  -0.0002158700   0.4921611715
       -0.0235246691  -0.0126517620  -0.0722484451  -0.0302136229  -0.0541716727
       -0.1565553226   0.0164748019  -0.0067633509  -0.0301971200   0.0073947309
        0.0029248248  -0.0005208257   0.0033797997  -0.0004736275  -0.0004844114
       -0.0002182513  -0.0000651184   0.0015519131   0.0013939280  -0.0122750663
       -0.0033741360  -0.0015989126   0.0011662578  -0.0025915141  -0.0001303855
       -0.0000012723  -0.0001827020  -0.0002653721  -0.0000813833  -0.0000950272
        0.0000012556   0.0000660456   0.0000326131  -0.0000406397  -0.0000631158
       -0.0000230254  -0.0000031635   0.0000358744  -0.0000018223   0.0000303531
       -0.0000151059   0.0000081096  -0.0000472156   0.0000267552   0.0000170269
       -0.0000105230  -0.0000290856  -0.0000282079   0.0000007257  -0.0000006510
       -0.0000005790   0.0000028407  -0.0000058740   0.0000086696   0.0000092066
        0.0000401842  -0.0000011108  -0.0000126864  -0.0000478745   0.0000124342
        0.0000191433  -0.0000189958  -0.0000404043  -0.0000273654   0.0000201959
        0.0000320030   0.0000120864   0.0000205642  -0.0000267897   0.0000001112
       -0.0000148937  -0.0000124597  -0.0000142380   0.0000292296   0.0000021426
       -0.0000233787  -0.0000084058  -0.0000027062  -0.0000030949  -0.0000359489
        0.0000358270   0.0000255628   0.0000160591  -0.0000485140   0.0000190827
        0.0000275655   0.0000136057  -0.0000207002   0.0000349776  -0.0000142702
       -0.0000010517  -0.0000159903   0.0000101286  -0.0000023858  -0.0000120909
        0.0000075750   0.0000042091  -0.0000446588   0.0000054277   0.0000328265
        0.0000261507  -0.0000149152  -0.0000004896   0.0000000314   0.0000399165
        0.0000017533   0.0000026805   0.0000223186   0.0000129556  -0.0000520001
        0.0000242604   0.0000045030   0.0000024181   0.0000140486   0.0000079391
       -0.0000110020   0.0000177941   0.0000033718   0.0000404154  -0.0000026944
       -0.0000178287   0.0000069745  -0.0000185917   0.0000350482   0.0000244725
        0.0000002003  -0.0000379158   0.0000225144   0.0000045986   0.0000212622
       -0.0000093742   0.0000217631   0.0000296506   0.0000577720   0.0000325761
       -0.0000068726   0.0000592446  -0.0000448836   0.0000792301   0.0052265989
        0.0052592151   0.0010400328  -0.0021703372   0.0008572765   0.0010517754
        0.0002604978  -0.0002957539  -0.0000275022  -0.0035060866  -0.0027332026
        0.0021158191   0.0131017168  -0.0276042012   0.0122326300   0.0522948942
       -0.1260818141   0.0385462320   0.0172472372  -0.0049959610  -0.0119061048
        0.0070957709  -0.0018796851  -0.0067984941  -0.0188453427   0.0020798502
        0.0148701789   0.0061546479   0.0050178654   0.0166310299  -0.0099522359
       -0.0111837478  -0.0227624722  -0.0009746130  -0.0020336590  -0.0057870670
       -0.0006823761   0.0003579194  -0.0012471653  -0.0004143919  -0.0008180569
        0.0001049038   0.0001877632   0.0000418730  -0.0004158912   0.0001725738
        0.0000584136   0.0001668057  -0.0000063710   0.0000072465  -0.0000130466
       -0.0000141418   0.0000088629   0.0000026146   0.0000069840   0.0000094305
       -0.0000006326  -0.0000036204  -0.0000006007   0.0000044248  -0.0000034494
        0.0000072238   0.0000041900  -0.0000025602   0.0000006069   0.0000033942
       -0.0000093531   0.0000002775  -0.0000006150  -0.0000124595  -0.0000087164
       -0.0000051957   0.0000018273  -0.0000057862  -0.0000018972   0.0000017031
       -0.0000048909   0.0000008565  -0.0000092314   0.0000005567  -0.0000017346
        0.0000028889  -0.0000046667   0.0000037843  -0.0000002289  -0.0000285139
        0.0000231686  -0.0000025729   0.0000159743  -0.0000054011   0.0000026424
       -0.0000227806  -0.0000091261  -0.0000026665  -0.0000021036  -0.0000011269
       -0.0000030724  -0.0000023336   0.0000027839  -0.0000007492  -0.0000095179
       -0.0000053197   0.0000072539  -0.0000058927  -0.0000053010  -0.0000036104
       -0.0000006019  -0.0000065919   0.0000081702   0.0000072755  -0.0000092072
        0.0000068998  -0.0000089201  -0.0000070013   0.0000011733   0.0000007961
       -0.0000015294  -0.0000071737   0.0000029027  -0.0000018052   0.0000048114
        0.0000170788  -0.0000027554  -0.0000211794   0.0000101748  -0.0000080629
       -0.0004487329   0.0002174557  -0.0000693769   0.0000354458  -0.0000175740
       -0.0004406431   0.0006332463  -0.0009136323   0.0004258010   0.0010111993
        0.0004631996  -0.0007805963
        0.0577899235  -0.0088857763  -0.0984526926   0.0104028927  -0.0235246691
        0.4215746988  -0.0362311783  -0.0304769681  -0.1446145268   0.0061648164
        0.0182539881  -0.0562695244   0.0048527056   0.0110282872  -0.0022342370
       -0.0029240362   0.0032300599   0.0047474938   0.0001193978  -0.0002808925
       -0.0004094691  -0.0030230386   0.0013470328   0.0042080002  -0.0041656302
       -0.0051506342   0.0041137782   0.0019457596  -0.0002972288  -0.0027835567
        0.0000932529  -0.0002029934  -0.0010690983  -0.0002345571  -0.0000493267
        0.0000640701   0.0000205422   0.0000550234  -0.0000954495   0.0000392229
       -0.0000241714   0.0000108133  -0.0000416905  -0.0001079838  -0.0000898451
        0.0000129152   0.0000671930   0.0000640123   0.0000720589   0.0000694097
       -0.0000227318  -0.0000270636  -0.0000401717  -0.0000121255   0.0000053931
        0.0000184973   0.0000099866  -0.0000181818  -0.0000049274   0.0000064145
        0.0000218063   0.0000284447   0.0000106541  -0.0000567425  -0.0000600282
        0.0000016224   0.0001726704   0.0001465760   0.0000236643  -0.0001579289
       -0.0001280303  -0.0000264541  -0.0000210529  -0.0000100754  -0.0000015112
        0.0000151086  -0.0000207917  -0.0000166322  -0.0000085548  -0.0000015966
       -0.0000335560   0.0000135951  -0.0000036960   0.0000064418  -0.0000531213
        0.0000204149   0.0000237863   0.0000205906  -0.0000406880   0.0000193244
        0.0000585068   0.0000184605  -0.0000421816   0.0000631067  -0.0000252280
       -0.0000052319  -0.0000243782   0.0000147895  -0.0000009122  -0.0000356866
        0.0000203407   0.0000061742  -0.0000752754   0.0000133824   0.0000363578
        0.0000282821  -0.0000020400   0.0000042066   0.0000171212   0.0000223760
       -0.0000000411   0.0000137804   0.0000322705   0.0000164034  -0.0000751010
        0.0000490160  -0.0000008233  -0.0000048424   0.0000168171   0.0000082739
       -0.0000132114   0.0000265435   0.0000115595   0.0000758569  -0.0000113223
       -0.0000165579   0.0000220199  -0.0000419394   0.0000381471   0.0000422465
        0.0000124233  -0.0000427368   0.0000126544   0.0000080146   0.0000319957
        0.0000171843   0.0000004399   0.0000207483   0.0000798831   0.0000516101
       -0.0001572248   0.0002748022   0.0000505720   0.0001602756  -0.0084343611
        0.0044936333   0.0000338199  -0.0016831289   0.0007737077   0.0047634273
       -0.0004251243  -0.0002121085  -0.0005891676  -0.0000144418   0.0015577035
        0.0061750327  -0.0017992797   0.0094793952  -0.0038516936  -0.0321063797
        0.0369122041  -0.0732253261  -0.0056580616   0.0012730400   0.0052608464
        0.0200450154  -0.0054775999  -0.0196433962   0.0065515166   0.0003845916
       -0.0043601860  -0.0075263065  -0.0029009130  -0.0154452100  -0.0017813713
       -0.0018392613  -0.0005517617  -0.0040922433  -0.0072888544  -0.0206325012
        0.0010060862  -0.0008060871  -0.0022983500   0.0001919518   0.0005104796
       -0.0000311250   0.0004108791  -0.0003689256  -0.0011723917  -0.0002456592
       -0.0002769739   0.0001786469  -0.0000527701  -0.0000370298  -0.0000239113
       -0.0000446956  -0.0000013577   0.0000042513   0.0000006286   0.0000048168
        0.0000018494  -0.0000074030  -0.0000090745   0.0000059472  -0.0000036161
        0.0000082653   0.0000049962  -0.0000015410  -0.0000013147   0.0000045917
       -0.0000072781   0.0000021525   0.0000052156   0.0000016673  -0.0000031625
       -0.0000059601  -0.0000012647  -0.0000030042  -0.0000029623   0.0000018971
       -0.0000063031   0.0000014162  -0.0000148288   0.0000038738   0.0000001522
        0.0000094487  -0.0000087747   0.0000045932  -0.0000310815  -0.0000205548
       -0.0000180354  -0.0000002732  -0.0000010322  -0.0000020778  -0.0000008590
       -0.0000125842  -0.0000054099  -0.0000054827  -0.0000067673  -0.0000000224
       -0.0000056217   0.0000005229   0.0000101485  -0.0000016379  -0.0000070778
       -0.0000047206   0.0000106290   0.0000000109  -0.0000036945  -0.0000047679
       -0.0000092363  -0.0000005203   0.0000020558   0.0000111255  -0.0000088061
       -0.0000005235  -0.0000109293   0.0000028288   0.0000086481   0.0000033469
       -0.0000014305  -0.0000076109   0.0000051357  -0.0000000909   0.0000263870
        0.0000283623   0.0000142501   0.0000236401  -0.0000204917   0.0000077826
       -0.0001558857   0.0001881861   0.0001358431   0.0003190293  -0.0004356719
       -0.0011609953  -0.0001155423   0.0000634697   0.0000118472   0.0003427369
       -0.0011497369  -0.0024095235
        0.0030576239   0.0066661004   0.0193346739  -0.0655301258  -0.0126517620
       -0.0362311783   0.5140987383  -0.0089775362  -0.0227533286  -0.0084201047
       -0.0127757687  -0.0117758827  -0.0005386452   0.0008771324  -0.0013380632
       -0.0006784864  -0.0002776164   0.0004330840   0.0001619526  -0.0000505883
        0.0000990675  -0.0006707867   0.0000425116   0.0003693608   0.0001027992
       -0.0021245485   0.0004221808  -0.0002627553  -0.0002107730  -0.0000679537
        0.0002038853   0.0000050712  -0.0000778998  -0.0000151946   0.0000110222
        0.0000476485  -0.0000589018   0.0000053869  -0.0000047559   0.0000904993
        0.0000124476   0.0000725052  -0.0000502288  -0.0000668326  -0.0001372556
        0.0000146267   0.0000469294   0.0001222565  -0.0000233654   0.0000095506
        0.0000091335   0.0000272612   0.0000110378  -0.0000023366   0.0000198768
        0.0000065505  -0.0000041101  -0.0000001212  -0.0000220864  -0.0000069082
       -0.0000168879   0.0000185490   0.0000123304   0.0000332953  -0.0000343879
       -0.0000199609   0.0000443907   0.0000498303   0.0000253242  -0.0000541611
       -0.0000494086  -0.0000139102  -0.0000279128   0.0000287747   0.0000016840
        0.0000218340   0.0000009754   0.0000028618  -0.0000065870   0.0000117777
        0.0000336056   0.0000330777  -0.0000064693   0.0000018251   0.0000483256
       -0.0000315405  -0.0000124874  -0.0000315227   0.0000862947  -0.0000541592
       -0.0000128606  -0.0000199304   0.0000254391  -0.0000254747   0.0000211285
       -0.0000092867   0.0000067661  -0.0000017914  -0.0000050929  -0.0000004716
        0.0000043475  -0.0000111303   0.0000458132  -0.0000130405  -0.0000148615
       -0.0000273037   0.0000190160   0.0000070864  -0.0000014210   0.0000092199
        0.0000000050  -0.0000030423  -0.0000049636  -0.0000032970   0.0000439556
       -0.0000217516  -0.0000029833   0.0000008085  -0.0000071606   0.0000038645
        0.0000046832  -0.0000065875   0.0000044353  -0.0000363886   0.0000046631
        0.0000162999  -0.0000032261   0.0000299317  -0.0000314089  -0.0000500350
       -0.0000314057   0.0000670884  -0.0000112650   0.0000031320  -0.0000083195
        0.0000087904  -0.0000119260  -0.0000099063  -0.0000462333  -0.0000087047
       -0.0000620367   0.0001097542   0.0000079705   0.0000015691   0.0000758469
        0.0023379887  -0.0010760971  -0.0007238704   0.0002172861   0.0004473616