 Entering Gaussian System
 *********************************************
 Gaussian 98:
 frequency output generated by the xtb code
 *********************************************
                         Standard orientation:
 --------------------------------------------------------------------
  Center     Atomic     Atomic              Coordinates (Angstroms)
  Number     Number      Type              X           Y           Z
 --------------------------------------------------------------------
    1          6             0        2.732365   -3.792172    0.784263
    2          6             0        1.398846   -3.801752    0.490814
    3          6             0        0.682260   -2.587141    0.166834
    4          6             0       -0.683763   -2.587763   -0.165995
    5          6             0       -1.399003   -3.802584   -0.492039
    6          6             0       -2.732466   -3.793923   -0.785873
    7          6             0       -3.472795   -2.610279   -0.774028
    8          6             0       -2.802378   -1.402601   -0.438087
    9          7             0       -3.538985   -0.211640   -0.411129
   10          6             0       -4.751885   -0.034557    0.219952
   11          6             0       -5.482486   -0.925841    0.994807
   12          6             0       -6.674855   -0.483141    1.535832
   13          6             0       -7.127832    0.817778    1.330070
   14          6             0       -6.389445    1.719706    0.586070
   15          6             0       -5.191551    1.297374    0.029654
   16          6             0       -4.180418    1.949386   -0.757419
   17          6             0       -4.049199    3.231873   -1.268848
   18          6             0       -2.930028    3.532234   -2.022865
   19          6             0       -1.961424    2.566010   -2.284171
   20          6             0       -2.070691    1.281591   -1.785657
   21          6             0       -3.177515    0.980973   -1.002882
   22          6             0       -1.463043   -1.391993   -0.164928
   23          6             0        1.460312   -1.390483    0.166867
   24          6             0        2.799892   -1.400310    0.438692
   25          7             0        3.536810   -0.209550    0.410542
   26          6             0        4.749310   -0.034683   -0.221934
   27          6             0        5.476825   -0.927160   -0.998337
   28          6             0        6.669482   -0.486869   -1.540649
   29          6             0        7.125690    0.812892   -1.334666
   30          6             0        6.390242    1.716102   -0.589294
   31          6             0        5.192067    1.296180   -0.031644
   32          6             0        4.183126    1.950017    0.756708
   33          6             0        4.055340    3.232629    1.268653
   34          6             0        2.937465    3.535379    2.023624
   35          6             0        1.966731    2.571370    2.285193
   36          6             0        2.072648    1.286791    1.786296
   37          6             0        3.178288    0.983706    1.002819
   38          6             0        3.471461   -2.607776    0.773452
   39          1             0        3.231248   -4.715678    1.042376
   40          1             0        0.857865   -4.732031    0.541931
   41          1             0       -0.857088   -4.732250   -0.544522
   42          1             0       -3.230278   -4.717610   -1.045413
   43          1             0       -4.508678   -2.590637   -1.068905
   44          1             0       -5.125511   -1.927431    1.179518
   45          1             0       -7.264420   -1.158659    2.137692
   46          1             0       -8.064439    1.126391    1.769912
   47          1             0       -6.732984    2.733081    0.443110
   48          1             0       -4.809413    3.975606   -1.083651
   49          1             0       -2.806423    4.526277   -2.425939
   50          1             0       -1.107029    2.825084   -2.891641
   51          1             0       -1.325831    0.533850   -2.010813
   52          1             0       -1.009082   -0.459749    0.131574
   53          1             0        1.005244   -0.458338   -0.128262
   54          1             0        5.117211   -1.927765   -1.183270
   55          1             0        7.256654   -1.163346   -2.143758
   56          1             0        8.062455    1.119603   -1.775482
   57          1             0        6.736273    2.728605   -0.446231
   58          1             0        4.817173    3.974613    1.083059
   59          1             0        2.816540    4.529577    2.427143
   60          1             0        1.113312    2.832356    2.893213
   61          1             0        1.326082    0.540829    2.011681
   62          1             0        4.507393   -2.587348    1.068114
 --------------------------------------------------------------------
     1 basis functions        1 primitive gaussians
     1 alpha electrons        1 beta electrons
 
 Harmonic frequencies (cm**-1), IR intensities (km*mol⁻¹),
 Raman scattering activities (A**4/amu), Raman depolarization ratios,
 reduced masses (AMU), force constants (mDyne/A) and normal coordinates:
                      1                      2                      3
                        a                      a                      a 
 Frequencies --    10.0227                14.6379                17.8731
 Red. masses --    10.8587                10.8813                11.0638
 Frc consts  --     0.0000                 0.0000                 0.0000
 IR Inten    --     0.0313                 0.0214                 0.0637
 Raman Activ --     0.0000                 0.0000                 0.0000
 Depolar     --     0.0000                 0.0000                 0.0000
 Atom AN      X      Y      Z        X      Y      Z        X      Y      Z
   1   6     0.03  -0.01  -0.11    -0.02  -0.01  -0.05     0.03  -0.05  -0.05
   2   6     0.02  -0.01  -0.06    -0.01  -0.01  -0.11     0.03  -0.07  -0.04
   3   6     0.00  -0.00  -0.01     0.00  -0.00  -0.13     0.00  -0.08  -0.02
   4   6    -0.00  -0.00   0.02     0.00   0.00  -0.13    -0.00  -0.08   0.02
   5   6    -0.02  -0.01   0.06    -0.01   0.01  -0.11    -0.03  -0.07   0.04
   6   6    -0.03  -0.01   0.11    -0.02   0.01  -0.05    -0.03  -0.05   0.05
   7   6    -0.03  -0.01   0.10    -0.02   0.01  -0.01    -0.01  -0.04   0.03
   8   6    -0.01  -0.00   0.04    -0.01   0.01  -0.05     0.01  -0.05   0.02
   9   7    -0.00   0.00  -0.00    -0.00   0.01  -0.02     0.05  -0.03   0.00
  10   6     0.02   0.04   0.03     0.05   0.02   0.08     0.06   0.04   0.01
  11   6     0.05   0.10   0.11     0.11   0.03   0.15     0.01   0.07  -0.01
  12   6     0.07   0.13   0.13     0.16   0.04   0.24     0.03   0.13   0.00
  13   6     0.06   0.12   0.06     0.14   0.04   0.26     0.11   0.16   0.02
  14   6     0.04   0.07  -0.03     0.08   0.03   0.19     0.16   0.13   0.03
  15   6     0.01   0.03  -0.05     0.03   0.02   0.09     0.14   0.07   0.02
  16   6    -0.02  -0.02  -0.13    -0.03   0.00   0.00     0.18   0.02   0.03
  17   6    -0.04  -0.06  -0.23    -0.07  -0.01  -0.03     0.26   0.02   0.06
  18   6    -0.07  -0.11  -0.29    -0.13  -0.02  -0.13     0.27  -0.03   0.06
  19   6    -0.07  -0.13  -0.26    -0.15  -0.02  -0.18     0.22  -0.09   0.05
  20   6    -0.05  -0.09  -0.16    -0.11  -0.02  -0.15     0.14  -0.09   0.02
  21   6    -0.02  -0.04  -0.10    -0.05  -0.00  -0.06     0.12  -0.04   0.02
  22   6    -0.00   0.00  -0.00     0.01   0.01  -0.12     0.01  -0.07   0.02
  23   6     0.00   0.00   0.01     0.01  -0.01  -0.12    -0.01  -0.07  -0.02
  24   6     0.01  -0.00  -0.03    -0.00  -0.01  -0.05    -0.01  -0.05  -0.02
  25   7     0.00   0.00   0.00    -0.00  -0.01  -0.02    -0.05  -0.03  -0.00
  26   6    -0.02   0.05  -0.03     0.05  -0.02   0.08    -0.06   0.04  -0.00
  27   6    -0.05   0.10  -0.12     0.11  -0.03   0.14    -0.01   0.07   0.01
  28   6    -0.07   0.13  -0.13     0.16  -0.04   0.24    -0.03   0.13   0.00
  29   6    -0.07   0.12  -0.06     0.14  -0.04   0.26    -0.11   0.16  -0.02
  30   6    -0.04   0.07   0.03     0.08  -0.03   0.19    -0.16   0.13  -0.03
  31   6    -0.02   0.03   0.04     0.04  -0.02   0.09    -0.14   0.07  -0.02
  32   6     0.02  -0.02   0.13    -0.03  -0.00   0.00    -0.18   0.02  -0.03
  33   6     0.04  -0.06   0.23    -0.06   0.01  -0.03    -0.26   0.02  -0.06
  34   6     0.07  -0.11   0.29    -0.12   0.02  -0.12    -0.28  -0.03  -0.07
  35   6     0.08  -0.13   0.26    -0.14   0.02  -0.18    -0.22  -0.09  -0.05
  36   6     0.05  -0.09   0.16    -0.11   0.02  -0.15    -0.14  -0.09  -0.03
  37   6     0.02  -0.04   0.10    -0.05   0.00  -0.06    -0.12  -0.04  -0.02
  38   6     0.03  -0.01  -0.10    -0.02  -0.01  -0.01     0.01  -0.04  -0.03
  39   1     0.01  -0.01  -0.04    -0.01  -0.00  -0.01     0.01  -0.01  -0.02
  40   1     0.01  -0.00  -0.02    -0.00  -0.00  -0.04     0.01  -0.02  -0.02
  41   1    -0.01  -0.00   0.02    -0.00   0.00  -0.04    -0.01  -0.02   0.02
  42   1    -0.01  -0.01   0.04    -0.01   0.00  -0.01    -0.01  -0.01   0.02
  43   1    -0.01  -0.01   0.04    -0.01   0.00   0.02    -0.00  -0.01   0.01
  44   1     0.02   0.03   0.05     0.04   0.01   0.04    -0.02   0.01  -0.01
  45   1     0.03   0.05   0.06     0.06   0.01   0.09    -0.00   0.05  -0.00
  46   1     0.02   0.04   0.02     0.05   0.01   0.10     0.04   0.06   0.01
  47   1     0.01   0.02  -0.02     0.02   0.01   0.06     0.07   0.04   0.01
  48   1    -0.01  -0.01  -0.07    -0.02  -0.00   0.00     0.09   0.02   0.02
  49   1    -0.02  -0.04  -0.11    -0.05  -0.01  -0.04     0.10  -0.01   0.02
  50   1    -0.03  -0.05  -0.09    -0.06  -0.01  -0.07     0.07  -0.04   0.01
  51   1    -0.02  -0.03  -0.04    -0.04  -0.01  -0.06     0.03  -0.04   0.00
  52   1     0.00   0.00  -0.02     0.01   0.00  -0.04     0.01  -0.02   0.01
  53   1    -0.00   0.00   0.02     0.01  -0.00  -0.04    -0.01  -0.02  -0.01
  54   1    -0.02   0.03  -0.05     0.03  -0.01   0.04     0.02   0.01   0.01
  55   1    -0.03   0.05  -0.06     0.06  -0.01   0.09     0.00   0.05   0.00
  56   1    -0.02   0.04  -0.02     0.05  -0.01   0.10    -0.04   0.06  -0.01
  57   1    -0.01   0.02   0.02     0.02  -0.01   0.06    -0.06   0.04  -0.01
  58   1     0.01  -0.01   0.07    -0.01   0.00   0.01    -0.09   0.02  -0.02
  59   1     0.02  -0.04   0.11    -0.04   0.01  -0.04    -0.10  -0.01  -0.02
  60   1     0.03  -0.05   0.09    -0.05   0.01  -0.07    -0.07  -0.04  -0.02
  61   1     0.02  -0.03   0.04    -0.04   0.01  -0.06    -0.03  -0.04  -0.00
  62   1     0.01  -0.01  -0.04    -0.01  -0.00   0.01     0.00  -0.01  -0.01
                      4                      5                      6
                        a                      a                      a 
 Frequencies --    34.7281                42.4129                60.5430
 Red. masses --    10.9960                10.8817                10.6430
 Frc consts  --     0.0000                 0.0000                 0.0000
 IR Inten    --     0.0092                 1.3852                 0.1956
 Raman Activ --     0.0000                 0.0000                 0.0000
 Depolar     --     0.0000                 0.0000                 0.0000
 Atom AN      X      Y      Z        X      Y      Z        X      Y      Z
   1   6    -0.07   0.00   0.22    -0.01   0.12   0.00     0.06  -0.03  -0.24
   2   6    -0.05   0.01   0.14    -0.01   0.07   0.01     0.07  -0.04  -0.31
   3   6    -0.02   0.01   0.07    -0.05   0.04  -0.03     0.03  -0.00  -0.09
   4   6     0.02   0.01  -0.07    -0.05  -0.04  -0.02     0.03   0.00  -0.09
   5   6     0.05   0.01  -0.14    -0.01  -0.07   0.01     0.07   0.04  -0.31
   6   6     0.07   0.00  -0.22    -0.01  -0.12   0.01     0.06   0.03  -0.24
   7   6     0.05  -0.01  -0.22    -0.05  -0.15  -0.04     0.01  -0.00  -0.00
   8   6     0.03  -0.01  -0.17    -0.10  -0.12  -0.07    -0.02  -0.03   0.12
   9   7     0.01  -0.02  -0.16    -0.11  -0.14  -0.11    -0.00  -0.02   0.19
  10   6     0.06  -0.02  -0.06    -0.07  -0.06  -0.05    -0.03   0.02   0.11
  11   6     0.10  -0.05  -0.05    -0.13  -0.04  -0.09    -0.07   0.06   0.12
  12   6     0.16  -0.05   0.07    -0.06   0.03  -0.02    -0.09   0.09   0.05
  13   6     0.18  -0.03   0.19     0.05   0.09   0.09    -0.07   0.08  -0.04
  14   6     0.14  -0.00   0.17     0.11   0.07   0.12    -0.04   0.04  -0.05
  15   6     0.08  -0.00   0.05     0.05  -0.01   0.04    -0.01   0.01   0.02
  16   6     0.04   0.01   0.00     0.07  -0.05   0.05     0.01  -0.04   0.01
  17   6     0.03   0.04   0.05     0.18  -0.03   0.13     0.02  -0.08  -0.09
  18   6    -0.01   0.05  -0.01     0.18  -0.08   0.11     0.04  -0.15  -0.09
  19   6    -0.05   0.04  -0.11     0.08  -0.16   0.00     0.05  -0.16   0.01
  20   6    -0.04   0.02  -0.16    -0.03  -0.18  -0.08     0.04  -0.12   0.11
  21   6    -0.00   0.01  -0.11    -0.02  -0.12  -0.05     0.02  -0.06   0.11
  22   6     0.01   0.00  -0.12    -0.10  -0.07  -0.06    -0.01  -0.03   0.11
  23   6    -0.02   0.00   0.12    -0.10   0.07  -0.06    -0.01   0.03   0.11
  24   6    -0.03  -0.01   0.17    -0.10   0.12  -0.07    -0.02   0.03   0.12
  25   7    -0.02  -0.02   0.16    -0.11   0.14  -0.11    -0.00   0.02   0.19
  26   6    -0.06  -0.02   0.06    -0.07   0.06  -0.05    -0.03  -0.02   0.11
  27   6    -0.10  -0.05   0.05    -0.13   0.04  -0.09    -0.07  -0.05   0.12
  28   6    -0.16  -0.05  -0.07    -0.06  -0.03  -0.02    -0.09  -0.09   0.05
  29   6    -0.18  -0.03  -0.19     0.05  -0.09   0.09    -0.07  -0.08  -0.04
  30   6    -0.14  -0.01  -0.17     0.11  -0.07   0.12    -0.04  -0.04  -0.05
  31   6    -0.08  -0.00  -0.05     0.05   0.01   0.04    -0.01  -0.01   0.02
  32   6    -0.03   0.01  -0.00     0.08   0.05   0.05     0.01   0.04   0.01
  33   6    -0.03   0.04  -0.05     0.18   0.02   0.13     0.02   0.08  -0.09
  34   6     0.02   0.05   0.01     0.18   0.08   0.11     0.04   0.15  -0.09
  35   6     0.05   0.04   0.11     0.08   0.16   0.00     0.05   0.16   0.01
  36   6     0.04   0.02   0.16    -0.03   0.18  -0.08     0.04   0.12   0.11
  37   6     0.00   0.01   0.11    -0.02   0.12  -0.05     0.02   0.06   0.11
  38   6    -0.05  -0.01   0.22    -0.05   0.15  -0.04     0.01   0.00  -0.00
  39   1    -0.03   0.00   0.08     0.01   0.04   0.01     0.02  -0.02  -0.11
  40   1    -0.02   0.01   0.04     0.01   0.02   0.01     0.03  -0.02  -0.15
  41   1     0.02   0.01  -0.04     0.01  -0.02   0.01     0.03   0.02  -0.15
  42   1     0.03   0.00  -0.08     0.01  -0.04   0.01     0.02   0.02  -0.11
  43   1     0.02  -0.00  -0.07    -0.02  -0.06  -0.01    -0.00   0.00   0.02
  44   1     0.03  -0.02  -0.04    -0.06  -0.03  -0.05    -0.02   0.02   0.05
  45   1     0.06  -0.02   0.02    -0.03   0.01  -0.01    -0.03   0.04   0.02
  46   1     0.07  -0.01   0.08     0.03   0.04   0.04    -0.03   0.03  -0.03
  47   1     0.04   0.00   0.07     0.06   0.03   0.06    -0.01   0.01  -0.04
  48   1     0.02   0.01   0.04     0.08   0.01   0.06     0.01  -0.02  -0.05
  49   1    -0.01   0.02   0.01     0.08  -0.02   0.05     0.01  -0.05  -0.05
  50   1    -0.02   0.02  -0.04     0.02  -0.06  -0.00     0.02  -0.06   0.00
  51   1    -0.02   0.00  -0.07    -0.03  -0.07  -0.05     0.01  -0.04   0.05
  52   1    -0.00   0.00  -0.03    -0.04  -0.01  -0.02    -0.01  -0.01   0.06
  53   1     0.00   0.00   0.03    -0.04   0.01  -0.02    -0.01   0.01   0.06
  54   1    -0.03  -0.02   0.04    -0.06   0.03  -0.05    -0.02  -0.02   0.05
  55   1    -0.06  -0.02  -0.02    -0.03  -0.01  -0.01    -0.04  -0.04   0.01
  56   1    -0.07  -0.01  -0.08     0.03  -0.04   0.04    -0.03  -0.03  -0.03
  57   1    -0.04   0.00  -0.07     0.06  -0.03   0.06    -0.01  -0.01  -0.04
  58   1    -0.02   0.01  -0.04     0.08  -0.01   0.06     0.01   0.02  -0.05
  59   1     0.01   0.02  -0.01     0.08   0.02   0.05     0.01   0.05  -0.05
  60   1     0.02   0.02   0.04     0.02   0.06  -0.01     0.02   0.06   0.00
  61   1     0.02   0.01   0.07    -0.03   0.07  -0.05     0.01   0.04   0.05
  62   1    -0.02  -0.00   0.07    -0.02   0.06  -0.01    -0.00  -0.00   0.02
                      7                      8                      9
                        a                      a                      a 
 Frequencies --    81.4583                86.3102                96.8996
 Red. masses --    10.5642                10.3801                10.3069
 Frc consts  --     0.0000                 0.0000                 0.0000
 IR Inten    --     0.1527                 0.2379                11.1770
 Raman Activ --     0.0000                 0.0000                 0.0000
 Depolar     --     0.0000                 0.0000                 0.0000
 Atom AN      X      Y      Z        X      Y      Z        X      Y      Z
   1   6     0.10  -0.03  -0.24    -0.03   0.05   0.25     0.08  -0.06  -0.20
   2   6     0.10  -0.08  -0.24    -0.02  -0.01   0.19     0.01  -0.03   0.12
   3   6     0.01  -0.08  -0.04    -0.01  -0.05   0.02    -0.04  -0.01   0.29
   4   6    -0.01  -0.08   0.04     0.01  -0.05  -0.02    -0.04   0.01   0.29
   5   6    -0.10  -0.08   0.24     0.02  -0.01  -0.18     0.01   0.03   0.12
   6   6    -0.10  -0.03   0.24     0.03   0.05  -0.25     0.08   0.06  -0.19
   7   6    -0.01   0.02   0.05     0.04   0.06  -0.12     0.09   0.07  -0.28
   8   6     0.06   0.01  -0.06     0.05   0.01   0.05     0.01   0.02   0.00
   9   7     0.10   0.04  -0.09     0.10   0.04   0.14    -0.01   0.02  -0.02
  10   6     0.10  -0.01  -0.07     0.07   0.02   0.08    -0.01   0.01  -0.02
  11   6     0.20  -0.02   0.01     0.14   0.04   0.16    -0.05  -0.04  -0.12
  12   6     0.19  -0.08   0.04     0.12   0.03   0.14    -0.02  -0.04  -0.07
  13   6     0.10  -0.12  -0.00     0.03  -0.03  -0.00     0.05   0.01   0.08
  14   6     0.02  -0.10  -0.06    -0.03  -0.05  -0.10     0.06   0.04   0.14
  15   6     0.03  -0.04  -0.08     0.00  -0.02  -0.05     0.02   0.03   0.05
  16   6     0.00   0.01  -0.08    -0.00  -0.03  -0.06     0.01   0.03   0.03
  17   6    -0.04   0.03  -0.04    -0.05  -0.06  -0.17    -0.02   0.01  -0.03
  18   6    -0.02   0.11   0.03     0.00  -0.05  -0.08    -0.06  -0.03  -0.11
  19   6     0.05   0.17   0.06     0.11   0.01   0.11    -0.05  -0.03  -0.09
  20   6     0.08   0.15   0.00     0.14   0.04   0.19    -0.02  -0.00  -0.02
  21   6     0.06   0.06  -0.07     0.08   0.02   0.08    -0.01   0.02   0.00
  22   6     0.05  -0.04  -0.04     0.03  -0.04   0.10    -0.05   0.00   0.29
  23   6    -0.05  -0.04   0.04    -0.04  -0.04  -0.09    -0.05  -0.00   0.29
  24   6    -0.06   0.01   0.05    -0.05   0.01  -0.05     0.01  -0.02   0.00
  25   7    -0.10   0.04   0.09    -0.10   0.04  -0.14    -0.01  -0.02  -0.02
  26   6    -0.10  -0.01   0.07    -0.07   0.02  -0.08    -0.01  -0.01  -0.02
  27   6    -0.20  -0.02  -0.01    -0.14   0.04  -0.16    -0.04   0.04  -0.12
  28   6    -0.19  -0.08  -0.04    -0.12   0.03  -0.14    -0.02   0.04  -0.06
  29   6    -0.10  -0.12   0.00    -0.03  -0.03   0.00     0.05  -0.00   0.08
  30   6    -0.02  -0.10   0.06     0.03  -0.05   0.10     0.06  -0.04   0.13
  31   6    -0.03  -0.04   0.08    -0.00  -0.02   0.05     0.02  -0.03   0.05
  32   6    -0.00   0.01   0.08     0.00  -0.03   0.06     0.01  -0.03   0.03
  33   6     0.04   0.03   0.04     0.05  -0.06   0.17    -0.02  -0.01  -0.03
  34   6     0.02   0.11  -0.03    -0.00  -0.05   0.08    -0.06   0.03  -0.11
  35   6    -0.05   0.17  -0.06    -0.11   0.01  -0.11    -0.05   0.02  -0.09
  36   6    -0.08   0.15  -0.00    -0.14   0.04  -0.19    -0.02  -0.00  -0.02
  37   6    -0.06   0.06   0.07    -0.08   0.02  -0.08    -0.00  -0.02   0.00
  38   6     0.01   0.02  -0.05    -0.04   0.06   0.11     0.09  -0.07  -0.28
  39   1     0.05  -0.01  -0.11    -0.01   0.03   0.11     0.04  -0.02  -0.10
  40   1     0.05  -0.04  -0.12    -0.01   0.00   0.08     0.00  -0.01   0.06
  41   1    -0.05  -0.04   0.12     0.01   0.00  -0.08     0.00   0.01   0.06
  42   1    -0.05  -0.01   0.11     0.01   0.03  -0.11     0.04   0.02  -0.10
  43   1    -0.00   0.02   0.00     0.01   0.03  -0.03     0.04   0.03  -0.14
  44   1     0.08   0.00   0.01     0.06   0.02   0.07    -0.03  -0.02  -0.07
  45   1     0.08  -0.03   0.03     0.05   0.02   0.06    -0.02  -0.02  -0.04
  46   1     0.03  -0.05   0.01     0.00  -0.01  -0.01     0.02   0.00   0.04
  47   1    -0.02  -0.04  -0.02    -0.03  -0.03  -0.06     0.03   0.02   0.07
  48   1    -0.03  -0.01  -0.02    -0.04  -0.03  -0.09    -0.00   0.00  -0.01
  49   1    -0.01   0.04   0.02    -0.01  -0.02  -0.05    -0.03  -0.01  -0.05
  50   1     0.02   0.07   0.04     0.05   0.01   0.06    -0.02  -0.01  -0.04
  51   1     0.04   0.06   0.01     0.06   0.02   0.09    -0.00  -0.00   0.00
  52   1     0.02  -0.01  -0.03     0.01  -0.03   0.07    -0.03  -0.00   0.13
  53   1    -0.02  -0.01   0.03    -0.01  -0.02  -0.07    -0.03   0.00   0.13
  54   1    -0.08   0.00  -0.01    -0.06   0.02  -0.07    -0.03   0.02  -0.07
  55   1    -0.08  -0.02  -0.03    -0.05   0.02  -0.06    -0.01   0.02  -0.04
  56   1    -0.03  -0.05  -0.01    -0.00  -0.01   0.01     0.02  -0.00   0.04
  57   1     0.02  -0.04   0.02     0.03  -0.03   0.06     0.03  -0.02   0.07
  58   1     0.03  -0.01   0.02     0.04  -0.03   0.09    -0.00  -0.00  -0.01
  59   1     0.01   0.04  -0.02     0.01  -0.02   0.05    -0.03   0.01  -0.05
  60   1    -0.02   0.07  -0.04    -0.05   0.01  -0.06    -0.02   0.01  -0.04
  61   1    -0.04   0.06  -0.01    -0.06   0.02  -0.09    -0.00   0.00   0.01
  62   1     0.00   0.02  -0.00    -0.01   0.03   0.03     0.04  -0.03  -0.14
                     10                     11                     12
                        a                      a                      a 
 Frequencies --   103.9603               112.5634               136.6443
 Red. masses --    10.4386                10.7864                 9.7948
 Frc consts  --     0.0000                 0.0000                 0.0000
 IR Inten    --     0.1916                 0.0071                 0.0201
 Raman Activ --     0.0000                 0.0000                 0.0000
 Depolar     --     0.0000                 0.0000                 0.0000
 Atom AN      X      Y      Z        X      Y      Z        X      Y      Z
   1   6     0.01  -0.02   0.08    -0.05  -0.04  -0.02     0.02  -0.02  -0.01
   2   6     0.03  -0.01  -0.02    -0.07   0.05   0.06     0.04  -0.04  -0.12
   3   6     0.06  -0.01  -0.07    -0.01   0.08   0.04     0.02  -0.03  -0.06
   4   6     0.06   0.01  -0.07     0.01   0.08  -0.04    -0.02  -0.03   0.06
   5   6     0.03   0.01  -0.02     0.07   0.05  -0.06    -0.04  -0.04   0.12
   6   6     0.01   0.02   0.08     0.05  -0.04   0.02    -0.02  -0.02   0.01
   7   6     0.02   0.03   0.12    -0.02  -0.09   0.06     0.01   0.00  -0.11
   8   6     0.05   0.04   0.05    -0.06  -0.04  -0.04    -0.01  -0.01  -0.01
   9   7     0.06   0.04   0.11    -0.14  -0.08  -0.14    -0.04  -0.02  -0.03
  10   6     0.05   0.03   0.09    -0.12  -0.04  -0.11    -0.08  -0.04  -0.10
  11   6    -0.06  -0.02  -0.07    -0.04   0.04   0.06    -0.17  -0.06  -0.20
  12   6    -0.15  -0.06  -0.22     0.04   0.12   0.19    -0.08   0.02  -0.06
  13   6    -0.09  -0.03  -0.14     0.02   0.10   0.11     0.09   0.12   0.19
  14   6     0.04   0.03   0.07    -0.07   0.01  -0.09     0.10   0.09   0.18
  15   6     0.09   0.06   0.17    -0.13  -0.05  -0.17    -0.03  -0.00  -0.02
  16   6     0.09   0.06   0.18    -0.12  -0.07  -0.16    -0.04  -0.02  -0.04
  17   6     0.06   0.05   0.13    -0.03  -0.02  -0.02    -0.13  -0.06  -0.17
  18   6    -0.07  -0.01  -0.08     0.09   0.03   0.18    -0.11  -0.04  -0.12
  19   6    -0.15  -0.06  -0.22     0.09   0.03   0.19     0.04   0.04   0.11
  20   6    -0.08  -0.03  -0.12    -0.03  -0.03   0.01     0.09   0.06   0.18
  21   6     0.04   0.04   0.08    -0.11  -0.07  -0.12     0.00   0.01   0.04
  22   6     0.08   0.03  -0.07    -0.05   0.04  -0.08    -0.03  -0.03   0.09
  23   6     0.08  -0.03  -0.07     0.05   0.04   0.08     0.03  -0.03  -0.09
  24   6     0.05  -0.04   0.05     0.06  -0.04   0.04     0.01  -0.01   0.01
  25   7     0.06  -0.04   0.11     0.14  -0.08   0.14     0.04  -0.02   0.03
  26   6     0.05  -0.03   0.09     0.12  -0.04   0.11     0.08  -0.04   0.10
  27   6    -0.07   0.02  -0.07     0.04   0.04  -0.06     0.17  -0.06   0.20
  28   6    -0.15   0.06  -0.22    -0.04   0.12  -0.19     0.08   0.02   0.06
  29   6    -0.10   0.03  -0.14    -0.02   0.10  -0.11    -0.09   0.12  -0.19
  30   6     0.04  -0.03   0.07     0.07   0.01   0.09    -0.10   0.09  -0.18
  31   6     0.09  -0.06   0.17     0.13  -0.05   0.17     0.03  -0.00   0.02
  32   6     0.09  -0.06   0.18     0.12  -0.07   0.16     0.04  -0.02   0.04
  33   6     0.06  -0.05   0.13     0.03  -0.02   0.02     0.13  -0.06   0.17
  34   6    -0.07   0.02  -0.08    -0.09   0.03  -0.18     0.11  -0.04   0.12
  35   6    -0.15   0.06  -0.22    -0.09   0.03  -0.19    -0.04   0.04  -0.11
  36   6    -0.08   0.03  -0.12     0.03  -0.03  -0.01    -0.09   0.07  -0.18
  37   6     0.04  -0.04   0.08     0.11  -0.07   0.12    -0.00   0.01  -0.04
  38   6     0.02  -0.03   0.12     0.02  -0.09  -0.07    -0.01   0.00   0.11
  39   1    -0.01  -0.01   0.04    -0.03  -0.02  -0.01     0.01  -0.01  -0.01
  40   1     0.01  -0.00  -0.01    -0.04   0.03   0.04     0.02  -0.02  -0.07
  41   1     0.01   0.00  -0.01     0.04   0.03  -0.04    -0.02  -0.02   0.07
  42   1    -0.01   0.01   0.04     0.03  -0.02   0.01    -0.01  -0.01   0.01
  43   1     0.00   0.01   0.05    -0.01  -0.05   0.04     0.01   0.00  -0.06
  44   1    -0.03  -0.01  -0.03    -0.01   0.02   0.04    -0.08  -0.03  -0.10
  45   1    -0.07  -0.04  -0.11     0.04   0.06   0.11    -0.03   0.00  -0.03
  46   1    -0.05  -0.02  -0.07     0.03   0.05   0.06     0.06   0.06   0.11
  47   1     0.02   0.02   0.04    -0.02  -0.00  -0.04     0.06   0.04   0.09
  48   1     0.03   0.02   0.07    -0.01  -0.01  -0.01    -0.06  -0.03  -0.09
  49   1    -0.03  -0.01  -0.04     0.06   0.02   0.10    -0.05  -0.02  -0.07
  50   1    -0.08  -0.03  -0.12     0.05   0.02   0.10     0.03   0.02   0.06
  51   1    -0.04  -0.02  -0.06    -0.01  -0.01   0.00     0.05   0.03   0.09
  52   1     0.03   0.01  -0.04    -0.02   0.02  -0.04    -0.01  -0.01   0.05
  53   1     0.03  -0.01  -0.04     0.02   0.02   0.04     0.01  -0.01  -0.05
  54   1    -0.03   0.01  -0.03     0.01   0.02  -0.04     0.08  -0.03   0.10
  55   1    -0.07   0.04  -0.11    -0.04   0.06  -0.10     0.03   0.00   0.03
  56   1    -0.05   0.02  -0.07    -0.03   0.05  -0.06    -0.06   0.06  -0.11
  57   1     0.02  -0.02   0.04     0.02  -0.00   0.04    -0.06   0.04  -0.09
  58   1     0.03  -0.02   0.07     0.01  -0.01   0.01     0.06  -0.03   0.09
  59   1    -0.03   0.01  -0.04    -0.06   0.02  -0.09     0.05  -0.02   0.07
  60   1    -0.08   0.03  -0.12    -0.05   0.02  -0.10    -0.03   0.02  -0.06
  61   1    -0.04   0.02  -0.06     0.01  -0.01  -0.00    -0.05   0.03  -0.09
  62   1     0.00  -0.01   0.05     0.01  -0.05  -0.04    -0.01   0.00   0.06
                     13                     14                     15
                        a                      a                      a 
 Frequencies --   145.5552               167.5770               175.0467
 Red. masses --     9.8858                10.7379                10.0281
 Frc consts  --     0.0000                 0.0000                 0.0000
 IR Inten    --     0.9048                11.7495                 0.0112
 Raman Activ --     0.0000                 0.0000                 0.0000
 Depolar     --     0.0000                 0.0000                 0.0000
 Atom AN      X      Y      Z        X      Y      Z        X      Y      Z
   1   6    -0.01  -0.04  -0.09     0.21   0.03  -0.02    -0.03  -0.08  -0.06
   2   6    -0.03  -0.03   0.03     0.21  -0.01  -0.04    -0.10  -0.03   0.26
   3   6    -0.04  -0.01   0.11     0.13  -0.02   0.06    -0.04  -0.02   0.15
   4   6    -0.04   0.01   0.11     0.13   0.02   0.06     0.04  -0.02  -0.15
   5   6    -0.03   0.03   0.03     0.21   0.01  -0.04     0.10  -0.03  -0.26
   6   6    -0.01   0.04  -0.09     0.21  -0.03  -0.02     0.03  -0.08   0.06
   7   6    -0.00   0.04  -0.09     0.16  -0.06   0.08    -0.04  -0.12   0.30
   8   6    -0.01   0.01   0.01     0.08  -0.01   0.05     0.01  -0.05  -0.00
   9   7    -0.01   0.02  -0.01    -0.03  -0.04  -0.05     0.06  -0.03  -0.00
  10   6     0.04   0.04   0.07    -0.05  -0.02  -0.05     0.05  -0.02   0.00
  11   6     0.15   0.05   0.19    -0.12   0.07  -0.01    -0.01   0.00  -0.03
  12   6     0.09  -0.01   0.10    -0.08   0.18   0.02    -0.03   0.03  -0.09
  13   6    -0.08  -0.11  -0.14    -0.02   0.20   0.01     0.03   0.05  -0.04
  14   6    -0.12  -0.09  -0.17     0.00   0.10  -0.07     0.10   0.04   0.02
  15   6    -0.01   0.01  -0.01    -0.05  -0.02  -0.07     0.08  -0.01   0.03
  16   6     0.00   0.02   0.01    -0.06  -0.03  -0.06     0.06  -0.01   0.03
  17   6     0.14   0.07   0.17    -0.08   0.03   0.10    -0.08  -0.03  -0.03
  18   6     0.13   0.03   0.14    -0.09   0.12   0.14    -0.12   0.04  -0.06
  19   6    -0.03  -0.07  -0.11    -0.13   0.11   0.01    -0.03   0.12   0.03
  20   6    -0.12  -0.10  -0.20    -0.11   0.05  -0.12     0.08   0.11   0.07
  21   6    -0.05  -0.02  -0.08    -0.07  -0.03  -0.09     0.08   0.01   0.04
  22   6    -0.04   0.01   0.10     0.09   0.02   0.07     0.05  -0.03  -0.24
  23   6    -0.04  -0.01   0.10     0.09  -0.02   0.07    -0.06  -0.03   0.24
  24   6    -0.01  -0.01   0.01     0.08   0.01   0.05    -0.01  -0.05   0.00
  25   7    -0.01  -0.02  -0.01    -0.03   0.04  -0.05    -0.06  -0.03   0.00
  26   6     0.04  -0.04   0.07    -0.05   0.02  -0.05    -0.05  -0.02  -0.00
  27   6     0.15  -0.05   0.19    -0.12  -0.07  -0.01     0.01   0.00   0.03
  28   6     0.09   0.01   0.10    -0.07  -0.18   0.03     0.03   0.03   0.09
  29   6    -0.08   0.11  -0.14    -0.02  -0.20   0.01    -0.03   0.05   0.04
  30   6    -0.12   0.09  -0.17     0.00  -0.10  -0.07    -0.10   0.05  -0.02
  31   6    -0.02  -0.01  -0.01    -0.05   0.02  -0.07    -0.08  -0.01  -0.03
  32   6    -0.00  -0.02   0.00    -0.06   0.03  -0.06    -0.06  -0.01  -0.03
  33   6     0.14  -0.07   0.17    -0.08  -0.03   0.10     0.08  -0.03   0.03
  34   6     0.13  -0.03   0.14    -0.09  -0.12   0.14     0.12   0.05   0.06
  35   6    -0.03   0.07  -0.11    -0.13  -0.11   0.01     0.03   0.12  -0.03
  36   6    -0.12   0.10  -0.20    -0.11  -0.05  -0.12    -0.08   0.12  -0.06
  37   6    -0.05   0.02  -0.08    -0.07   0.03  -0.09    -0.08   0.01  -0.04
  38   6    -0.00  -0.04  -0.09     0.16   0.06   0.08     0.04  -0.12  -0.30
  39   1     0.00  -0.02  -0.05     0.07   0.01  -0.02    -0.01  -0.02  -0.03
  40   1    -0.01  -0.01   0.01     0.08  -0.02  -0.04    -0.05   0.01   0.15
  41   1    -0.01   0.01   0.01     0.08   0.02  -0.04     0.05   0.01  -0.15
  42   1     0.00   0.02  -0.05     0.07  -0.01  -0.02     0.01  -0.02   0.03
  43   1     0.00   0.02  -0.03     0.04  -0.04   0.04    -0.03  -0.06   0.15
  44   1     0.08   0.03   0.08    -0.06   0.01   0.01    -0.02  -0.00  -0.00
  45   1     0.04   0.00   0.05    -0.03   0.07   0.02    -0.02   0.01  -0.04
  46   1    -0.05  -0.05  -0.08     0.01   0.08   0.02     0.01   0.02  -0.02
  47   1    -0.07  -0.04  -0.09     0.02   0.03  -0.03     0.05   0.02   0.01
  48   1     0.07   0.04   0.09    -0.02   0.00   0.06    -0.05  -0.03  -0.02
  49   1     0.07   0.02   0.08    -0.02   0.05   0.08    -0.06   0.01  -0.04
  50   1    -0.02  -0.03  -0.05    -0.04   0.05   0.00    -0.01   0.05   0.01
  51   1    -0.06  -0.05  -0.09    -0.03   0.03  -0.06     0.04   0.06   0.02
  52   1    -0.02   0.00   0.04     0.02   0.01   0.01     0.02   0.00  -0.11
  53   1    -0.02  -0.00   0.04     0.02  -0.01   0.01    -0.02   0.00   0.11
  54   1     0.08  -0.03   0.08    -0.06  -0.01   0.01     0.02  -0.00   0.00
  55   1     0.04  -0.00   0.05    -0.03  -0.07   0.02     0.02   0.01   0.04
  56   1    -0.05   0.05  -0.08     0.00  -0.08   0.02    -0.01   0.02   0.02
  57   1    -0.07   0.04  -0.09     0.02  -0.03  -0.03    -0.05   0.02  -0.01
  58   1     0.07  -0.04   0.09    -0.02  -0.00   0.06     0.05  -0.03   0.02
  59   1     0.07  -0.02   0.08    -0.02  -0.05   0.08     0.06   0.01   0.04
  60   1    -0.02   0.03  -0.05    -0.04  -0.04   0.00     0.01   0.05  -0.01
  61   1    -0.06   0.05  -0.09    -0.03  -0.03  -0.06    -0.04   0.06  -0.02
  62   1     0.00  -0.02  -0.03     0.04   0.04   0.04     0.03  -0.06  -0.15
                     16                     17                     18
                        a                      a                      a 
 Frequencies --   182.1003               208.3629               231.9767
 Red. masses --    10.6828                10.4847                10.7422
 Frc consts  --     0.0000                 0.0000                 0.0000
 IR Inten    --     0.7166                 1.9219                 9.0941
 Raman Activ --     0.0000                 0.0000                 0.0000
 Depolar     --     0.0000                 0.0000                 0.0000
 Atom AN      X      Y      Z        X      Y      Z        X      Y      Z
   1   6     0.06  -0.09   0.11     0.04   0.09  -0.04    -0.05   0.12  -0.03
   2   6     0.08  -0.19  -0.03    -0.01   0.11   0.19    -0.01   0.07  -0.15
   3   6     0.01  -0.22  -0.02     0.00   0.05  -0.05    -0.10   0.07   0.11
   4   6    -0.01  -0.22   0.02     0.01  -0.05  -0.05    -0.10  -0.07   0.11
   5   6    -0.08  -0.19   0.03    -0.01  -0.10   0.18    -0.01  -0.07  -0.15
   6   6    -0.06  -0.09  -0.11     0.04  -0.09  -0.04    -0.05  -0.12  -0.03
   7   6    -0.00  -0.05  -0.17     0.05  -0.07  -0.30    -0.14  -0.17   0.14
   8   6     0.00  -0.08  -0.05    -0.01  -0.08  -0.17    -0.13  -0.14   0.06
   9   7     0.02  -0.04   0.01     0.02  -0.06   0.03     0.02  -0.05  -0.09
  10   6     0.01  -0.01   0.04     0.05  -0.01   0.11     0.07   0.00  -0.01
  11   6    -0.06   0.10   0.09    -0.00   0.07   0.16     0.10   0.01   0.02
  12   6    -0.06   0.20   0.04    -0.03   0.14   0.05     0.08   0.01  -0.05
  13   6    -0.06   0.18  -0.08    -0.07   0.10  -0.12     0.05  -0.01  -0.12
  14   6    -0.00   0.09  -0.12     0.01   0.05  -0.10     0.09   0.01  -0.04
  15   6     0.01  -0.01  -0.00     0.07  -0.01   0.09     0.11   0.01   0.02
  16   6    -0.00  -0.02   0.02     0.07  -0.02   0.11     0.11  -0.01   0.04
  17   6    -0.09   0.02   0.12    -0.05  -0.04   0.05    -0.03   0.00   0.06
  18   6    -0.14   0.10   0.08    -0.12  -0.02  -0.03    -0.12   0.08  -0.05
  19   6    -0.15   0.11  -0.01    -0.06   0.03   0.03    -0.06   0.14  -0.03
  20   6    -0.07   0.08  -0.06     0.04   0.04   0.09     0.08   0.12  -0.01
  21   6    -0.01  -0.02  -0.01     0.06  -0.02   0.09     0.10  -0.02  -0.02
  22   6     0.00  -0.19   0.01    -0.01  -0.07  -0.17    -0.17  -0.14   0.19
  23   6     0.00  -0.19  -0.01    -0.01   0.07  -0.17    -0.17   0.14   0.19
  24   6    -0.00  -0.08   0.05    -0.01   0.08  -0.17    -0.13   0.14   0.06
  25   7    -0.02  -0.04  -0.01     0.02   0.06   0.03     0.02   0.05  -0.09
  26   6    -0.01  -0.01  -0.03     0.05   0.01   0.11     0.07  -0.00  -0.01
  27   6     0.06   0.10  -0.09    -0.00  -0.07   0.16     0.11  -0.01   0.02
  28   6     0.06   0.20  -0.04    -0.03  -0.14   0.05     0.08  -0.01  -0.05
  29   6     0.06   0.18   0.08    -0.07  -0.10  -0.12     0.05   0.01  -0.12
  30   6     0.00   0.09   0.12     0.01  -0.05  -0.10     0.09  -0.01  -0.04
  31   6    -0.01  -0.01   0.00     0.07   0.01   0.09     0.11  -0.01   0.02
  32   6     0.00  -0.02  -0.02     0.07   0.02   0.10     0.11   0.01   0.04
  33   6     0.09   0.02  -0.12    -0.06   0.04   0.05    -0.03  -0.00   0.06
  34   6     0.14   0.10  -0.08    -0.12   0.02  -0.03    -0.12  -0.08  -0.05
  35   6     0.15   0.11   0.01    -0.06  -0.03   0.03    -0.06  -0.14  -0.03
  36   6     0.07   0.08   0.06     0.04  -0.04   0.09     0.08  -0.12  -0.01
  37   6     0.01  -0.02   0.01     0.06   0.02   0.09     0.10   0.02  -0.02
  38   6     0.00  -0.05   0.16     0.05   0.07  -0.30    -0.14   0.17   0.15
  39   1     0.03  -0.02   0.04     0.01   0.04   0.01     0.00   0.04  -0.04
  40   1     0.05  -0.07  -0.04    -0.02   0.04   0.14     0.02   0.00  -0.12
  41   1    -0.05  -0.07   0.04    -0.02  -0.04   0.14     0.02  -0.00  -0.12
  42   1    -0.03  -0.02  -0.04     0.01  -0.04   0.01     0.00  -0.04  -0.04
  43   1     0.00  -0.00  -0.06     0.02  -0.03  -0.10    -0.04  -0.06   0.05
  44   1    -0.04   0.02   0.05    -0.02   0.02   0.06     0.04   0.01   0.02
  45   1    -0.02   0.08   0.02    -0.02   0.05   0.02     0.02   0.01  -0.01
  46   1    -0.02   0.07  -0.04    -0.04   0.03  -0.08     0.00  -0.01  -0.06
  47   1     0.02   0.03  -0.07     0.01   0.01  -0.07     0.03   0.00  -0.02
  48   1    -0.03  -0.01   0.06    -0.03  -0.03   0.01    -0.02  -0.02   0.04
  49   1    -0.05   0.04   0.04    -0.06  -0.01  -0.04    -0.07   0.02  -0.03
  50   1    -0.05   0.05  -0.01    -0.02   0.01   0.00    -0.03   0.06  -0.02
  51   1    -0.01   0.04  -0.03     0.03   0.03   0.02     0.05   0.06  -0.01
  52   1     0.01  -0.06   0.01    -0.01  -0.02  -0.04    -0.06  -0.03   0.06
  53   1    -0.01  -0.06  -0.01    -0.01   0.02  -0.04    -0.06   0.03   0.06
  54   1     0.04   0.02  -0.05    -0.02  -0.02   0.06     0.04  -0.01   0.02
  55   1     0.02   0.07  -0.02    -0.02  -0.06   0.02     0.02  -0.01  -0.01
  56   1     0.02   0.06   0.04    -0.04  -0.03  -0.08     0.00   0.01  -0.06
  57   1    -0.02   0.03   0.07     0.01  -0.01  -0.07     0.03  -0.00  -0.02
  58   1     0.03  -0.01  -0.06    -0.03   0.03   0.01    -0.02   0.02   0.04
  59   1     0.05   0.04  -0.04    -0.06   0.01  -0.04    -0.07  -0.02  -0.03
  60   1     0.05   0.05   0.01    -0.03  -0.01   0.00    -0.03  -0.06  -0.02
  61   1     0.01   0.04   0.03     0.03  -0.03   0.02     0.05  -0.06  -0.01
  62   1    -0.00  -0.00   0.06     0.02   0.03  -0.10    -0.04   0.06   0.06
                     19                     20                     21
                        a                      a                      a 
 Frequencies --   236.1885               266.4208               270.3744
 Red. masses --    10.6482                10.4968                10.2449
 Frc consts  --     0.0000                 0.0000                 0.0000
 IR Inten    --     0.2628                 0.0160                 8.5823
 Raman Activ --     0.0000                 0.0000                 0.0000
 Depolar     --     0.0000                 0.0000                 0.0000
 Atom AN      X      Y      Z        X      Y      Z        X      Y      Z
   1   6    -0.01   0.01   0.05     0.18   0.05   0.06    -0.03  -0.01   0.02
   2   6    -0.02  -0.03   0.13     0.15  -0.09   0.11    -0.02  -0.01  -0.01
   3   6     0.03  -0.08  -0.13     0.00  -0.17   0.07    -0.00  -0.01  -0.02
   4   6    -0.03  -0.08   0.13    -0.00  -0.17  -0.07    -0.00   0.01  -0.02
   5   6     0.02  -0.03  -0.13    -0.15  -0.09  -0.11    -0.02   0.01  -0.01
   6   6     0.01   0.01  -0.05    -0.18   0.05  -0.06    -0.03   0.01   0.02
   7   6     0.00   0.01   0.22    -0.12   0.09   0.04    -0.01   0.02   0.01
   8   6     0.02  -0.01   0.25    -0.01   0.04  -0.00     0.01   0.02   0.01
   9   7     0.05   0.02   0.01     0.01   0.08   0.07     0.02  -0.00   0.02
  10   6    -0.00  -0.01  -0.09     0.02   0.09   0.10    -0.10  -0.08  -0.19
  11   6     0.01  -0.04  -0.12     0.01   0.04   0.03    -0.09  -0.06  -0.15
  12   6     0.04  -0.03  -0.06    -0.09  -0.08  -0.10     0.10   0.06   0.15
  13   6     0.09   0.00   0.05    -0.05  -0.05   0.05     0.06   0.03   0.09
  14   6     0.04  -0.00  -0.00    -0.01   0.03   0.17    -0.10  -0.07  -0.20
  15   6    -0.02  -0.02  -0.11    -0.05   0.07   0.04    -0.08  -0.06  -0.15
  16   6    -0.02  -0.02  -0.10    -0.13   0.03  -0.13     0.08   0.03   0.12
  17   6     0.00   0.03   0.04    -0.04   0.02  -0.17     0.11   0.05   0.20
  18   6     0.00   0.09   0.07     0.12   0.02   0.06    -0.05  -0.03  -0.06
  19   6    -0.05   0.07  -0.06     0.10  -0.01   0.08    -0.10  -0.06  -0.16
  20   6    -0.04   0.04  -0.13    -0.11  -0.05  -0.10     0.08   0.04   0.13
  21   6     0.00  -0.01  -0.09    -0.13   0.02  -0.11     0.11   0.05   0.19
  22   6    -0.01  -0.07   0.39     0.03  -0.11  -0.13     0.01   0.01   0.01
  23   6     0.01  -0.07  -0.39    -0.03  -0.11   0.13     0.01  -0.01   0.01
  24   6    -0.02  -0.01  -0.25     0.01   0.04   0.00     0.01  -0.02   0.01
  25   7    -0.05   0.02  -0.01    -0.01   0.08  -0.07     0.02   0.00   0.02
  26   6     0.00  -0.00   0.09    -0.02   0.09  -0.10    -0.10   0.08  -0.19
  27   6    -0.01  -0.04   0.12    -0.01   0.04  -0.03    -0.08   0.06  -0.15
  28   6    -0.04  -0.03   0.06     0.09  -0.08   0.10     0.10  -0.06   0.15
  29   6    -0.09   0.00  -0.05     0.05  -0.05  -0.05     0.06  -0.03   0.09
  30   6    -0.04  -0.00   0.00     0.01   0.03  -0.17    -0.10   0.07  -0.20
  31   6     0.02  -0.02   0.11     0.05   0.07  -0.04    -0.08   0.06  -0.15
  32   6     0.02  -0.02   0.10     0.13   0.03   0.13     0.07  -0.03   0.12
  33   6    -0.00   0.03  -0.04     0.04   0.02   0.17     0.11  -0.05   0.20
  34   6    -0.00   0.09  -0.07    -0.12   0.02  -0.06    -0.05   0.03  -0.06
  35   6     0.05   0.07   0.06    -0.10  -0.01  -0.08    -0.10   0.06  -0.16
  36   6     0.04   0.04   0.13     0.11  -0.05   0.10     0.08  -0.04   0.13
  37   6    -0.00  -0.01   0.09     0.13   0.02   0.11     0.11  -0.05   0.18
  38   6    -0.00   0.01  -0.22     0.12   0.09  -0.04    -0.01  -0.02   0.01
  39   1     0.00   0.02   0.07     0.08   0.03   0.02    -0.01  -0.01   0.01
  40   1    -0.03   0.01   0.13     0.07  -0.04   0.03    -0.01  -0.00  -0.00
  41   1     0.03   0.01  -0.13    -0.07  -0.04  -0.03    -0.01   0.00  -0.00
  42   1    -0.00   0.02  -0.07    -0.08   0.03  -0.02    -0.01   0.00   0.01
  43   1     0.00   0.01   0.06    -0.04   0.05   0.03    -0.00   0.01  -0.01
  44   1     0.00  -0.01  -0.04     0.01   0.01   0.00    -0.03  -0.02  -0.05
  45   1     0.02  -0.01  -0.02    -0.04  -0.05  -0.07     0.07   0.04   0.11
  46   1     0.04   0.01   0.05    -0.02  -0.02   0.01     0.05   0.03   0.08
  47   1     0.02   0.00   0.02    -0.01   0.01   0.08    -0.04  -0.03  -0.08
  48   1     0.00   0.01   0.04    -0.01   0.02  -0.08     0.04   0.02   0.08
  49   1     0.01   0.04   0.06     0.07   0.02   0.06    -0.04  -0.02  -0.06
  50   1    -0.02   0.03  -0.02     0.06  -0.00   0.07    -0.07  -0.04  -0.12
  51   1    -0.01   0.02  -0.04    -0.05  -0.03  -0.03     0.03   0.01   0.04
  52   1     0.01  -0.03   0.13     0.03  -0.04  -0.06     0.01  -0.00   0.01
  53   1    -0.01  -0.03  -0.13    -0.03  -0.04   0.06     0.01   0.00   0.01
  54   1    -0.00  -0.01   0.04    -0.01   0.01  -0.00    -0.03   0.02  -0.05
  55   1    -0.02  -0.01   0.02     0.04  -0.05   0.08     0.07  -0.04   0.11
  56   1    -0.04   0.01  -0.05     0.02  -0.02  -0.01     0.05  -0.03   0.08
  57   1    -0.02   0.00  -0.02     0.01   0.01  -0.08    -0.04   0.03  -0.08
  58   1    -0.00   0.01  -0.04     0.01   0.02   0.08     0.04  -0.02   0.08
  59   1    -0.01   0.04  -0.06    -0.07   0.02  -0.06    -0.04   0.02  -0.06
  60   1     0.02   0.03   0.02    -0.06  -0.00  -0.07    -0.07   0.04  -0.12
  61   1     0.01   0.02   0.04     0.05  -0.04   0.03     0.03  -0.01   0.04
  62   1    -0.00   0.01  -0.06     0.04   0.05  -0.03    -0.00  -0.01  -0.01
                     22                     23                     24
                        a                      a                      a 
 Frequencies --   274.2207               294.8341               296.9361
 Red. masses --    10.4647                10.8501                11.0734
 Frc consts  --     0.0000                 0.0000                 0.0000
 IR Inten    --     0.1456                 3.9764                 0.0370
 Raman Activ --     0.0000                 0.0000                 0.0000
 Depolar     --     0.0000                 0.0000                 0.0000
 Atom AN      X      Y      Z        X      Y      Z        X      Y      Z
   1   6    -0.15  -0.05  -0.02     0.18   0.11   0.05     0.01   0.12  -0.01
   2   6    -0.11   0.05  -0.10     0.19   0.05  -0.02     0.03   0.07  -0.05
   3   6    -0.00   0.11  -0.07     0.04   0.00   0.01    -0.03   0.05   0.06
   4   6     0.00   0.11   0.07     0.04   0.00   0.00     0.03   0.05  -0.06
   5   6     0.11   0.05   0.10     0.18  -0.05  -0.02    -0.04   0.07   0.05
   6   6     0.15  -0.05   0.02     0.18  -0.11   0.05    -0.03   0.13   0.00
   7   6     0.10  -0.07  -0.05     0.09  -0.13   0.02     0.09   0.18  -0.01
   8   6     0.00  -0.04   0.01    -0.06  -0.01  -0.07     0.17   0.09   0.04
   9   7    -0.01  -0.06  -0.06    -0.13   0.03  -0.13     0.16   0.01   0.20
  10   6     0.12   0.02   0.16    -0.07   0.12  -0.03     0.06  -0.12   0.04
  11   6     0.09   0.04   0.16     0.03   0.08   0.01    -0.07  -0.09  -0.03
  12   6    -0.05  -0.01  -0.12     0.01  -0.04   0.07    -0.04   0.05  -0.05
  13   6    -0.02   0.00  -0.14    -0.11  -0.10   0.02     0.10   0.11   0.04
  14   6     0.15   0.07   0.11    -0.15  -0.00   0.08     0.10  -0.01  -0.08
  15   6     0.13   0.01   0.14    -0.07   0.16   0.07     0.02  -0.16  -0.09
  16   6     0.00  -0.08  -0.07    -0.02   0.18   0.08    -0.01  -0.16  -0.08
  17   6    -0.11  -0.09  -0.11     0.09   0.14  -0.05    -0.07  -0.13   0.03
  18   6    -0.03   0.02   0.06     0.06   0.02  -0.16    -0.02  -0.04   0.17
  19   6     0.04   0.08   0.14     0.07  -0.01  -0.02    -0.05  -0.04   0.01
  20   6    -0.02  -0.01  -0.11    -0.01   0.06   0.11    -0.01  -0.08  -0.09
  21   6    -0.04  -0.09  -0.16    -0.08   0.11   0.03     0.06  -0.07   0.01
  22   6    -0.04   0.07   0.14    -0.05  -0.02  -0.03     0.18   0.12  -0.12
  23   6     0.04   0.07  -0.14    -0.06   0.03  -0.02    -0.18   0.12   0.12
  24   6    -0.00  -0.04  -0.01    -0.07   0.02  -0.08    -0.17   0.09  -0.04
  25   7     0.01  -0.06   0.06    -0.14  -0.03  -0.15    -0.15   0.01  -0.19
  26   6    -0.12   0.02  -0.16    -0.08  -0.13  -0.04    -0.06  -0.11  -0.04
  27   6    -0.09   0.04  -0.16     0.03  -0.09   0.01     0.07  -0.08   0.03
  28   6     0.05  -0.01   0.12     0.02   0.05   0.07     0.04   0.05   0.04
  29   6     0.02   0.00   0.14    -0.12   0.11   0.01    -0.09   0.10  -0.04
  30   6    -0.15   0.07  -0.11    -0.15   0.00   0.08    -0.09  -0.01   0.08
  31   6    -0.13   0.01  -0.14    -0.07  -0.17   0.07    -0.02  -0.15   0.08
  32   6    -0.00  -0.08   0.07    -0.02  -0.19   0.08     0.01  -0.14   0.07
  33   6     0.11  -0.09   0.11     0.09  -0.15  -0.05     0.07  -0.12  -0.03
  34   6     0.03   0.02  -0.06     0.06  -0.02  -0.17     0.01  -0.04  -0.16
  35   6    -0.04   0.08  -0.14     0.07   0.00  -0.02     0.05  -0.04  -0.01
  36   6     0.02  -0.01   0.11    -0.01  -0.06   0.11     0.01  -0.08   0.09
  37   6     0.04  -0.09   0.16    -0.08  -0.11   0.03    -0.06  -0.06  -0.01
  38   6    -0.10  -0.07   0.05     0.08   0.15   0.02    -0.09   0.17   0.01
  39   1    -0.06  -0.02  -0.00     0.06   0.04   0.02     0.02   0.04  -0.01
  40   1    -0.05   0.03  -0.03     0.08   0.00  -0.02     0.02   0.01  -0.05
  41   1     0.05   0.03   0.03     0.08   0.00  -0.01    -0.03   0.01   0.05
  42   1     0.06  -0.02   0.00     0.06  -0.04   0.02    -0.02   0.05   0.01
  43   1     0.03  -0.04  -0.03     0.02  -0.09   0.02     0.03   0.09  -0.00
  44   1     0.02   0.01   0.06     0.04   0.03  -0.01    -0.06  -0.04  -0.01
  45   1    -0.05  -0.01  -0.09     0.03  -0.03   0.03    -0.03   0.03  -0.02
  46   1    -0.04  -0.01  -0.10    -0.05  -0.05  -0.01     0.05   0.06   0.04
  47   1     0.06   0.03   0.04    -0.07  -0.01   0.04     0.06   0.00  -0.04
  48   1    -0.05  -0.04  -0.04     0.04   0.06  -0.03    -0.03  -0.05   0.01
  49   1    -0.00   0.02   0.04     0.01  -0.01  -0.09     0.01   0.00   0.09
  50   1     0.04   0.05   0.09     0.03  -0.03  -0.00    -0.03   0.01  -0.00
  51   1     0.00   0.01  -0.04    -0.01  -0.00   0.06    -0.01  -0.02  -0.05
  52   1    -0.03   0.03   0.05    -0.02  -0.00  -0.01     0.06   0.03  -0.04
  53   1     0.03   0.03  -0.05    -0.02   0.01  -0.00    -0.06   0.03   0.04
  54   1    -0.02   0.01  -0.06     0.04  -0.04  -0.01     0.06  -0.04   0.01
  55   1     0.06  -0.01   0.09     0.03   0.03   0.03     0.03   0.03   0.02
  56   1     0.04  -0.01   0.10    -0.05   0.06  -0.01    -0.05   0.06  -0.04
  57   1    -0.06   0.03  -0.04    -0.08   0.01   0.04    -0.05   0.00   0.04
  58   1     0.05  -0.04   0.04     0.04  -0.07  -0.03     0.03  -0.05  -0.01
  59   1     0.00   0.02  -0.04     0.01   0.01  -0.09    -0.01   0.00  -0.08
  60   1    -0.04   0.05  -0.10     0.03   0.03  -0.00     0.02   0.00   0.00
  61   1    -0.00   0.01   0.04    -0.01  -0.00   0.06     0.01  -0.02   0.05
  62   1    -0.03  -0.04   0.03     0.02   0.09   0.02    -0.03   0.08   0.00
                     25                     26                     27
                        a                      a                      a 
 Frequencies --   341.5728               347.7453               359.6771
 Red. masses --    11.1911                11.1635                 9.8542
 Frc consts  --     0.0000                 0.0000                 0.0000
 IR Inten    --     7.3663                 5.2754                21.3953
 Raman Activ --     0.0000                 0.0000                 0.0000
 Depolar     --     0.0000                 0.0000                 0.0000
 Atom AN      X      Y      Z        X      Y      Z        X      Y      Z
   1   6     0.26   0.14   0.07     0.00  -0.12  -0.09    -0.08  -0.01   0.32
   2   6     0.22   0.19   0.07    -0.02  -0.19   0.01     0.03  -0.10  -0.16
   3   6     0.04   0.08  -0.04    -0.03  -0.13   0.19     0.06  -0.07  -0.22
   4   6    -0.04   0.08   0.04    -0.03   0.13   0.19     0.06   0.07  -0.22
   5   6    -0.22   0.19  -0.07    -0.02   0.19   0.01     0.03   0.10  -0.16
   6   6    -0.26   0.15  -0.07     0.01   0.12  -0.09    -0.08   0.01   0.32
   7   6    -0.31   0.08   0.02    -0.03   0.07   0.13     0.06   0.09  -0.17
   8   6    -0.12  -0.03  -0.02     0.04   0.06  -0.08     0.05   0.04  -0.10
   9   7    -0.07  -0.06  -0.14    -0.14  -0.09  -0.28    -0.06  -0.03  -0.13
  10   6    -0.00  -0.08  -0.04    -0.04  -0.10  -0.08     0.00  -0.04  -0.02
  11   6     0.04  -0.04   0.05     0.02  -0.01   0.09     0.02   0.00   0.05
  12   6     0.04   0.02  -0.01     0.01   0.04   0.04     0.01   0.03   0.00
  13   6     0.03   0.01  -0.10    -0.06  -0.01  -0.12    -0.02   0.01  -0.06
  14   6     0.11   0.01  -0.01     0.07   0.01   0.03     0.04   0.02   0.01
  15   6     0.08  -0.06   0.02     0.06  -0.05   0.08     0.03  -0.02   0.04
  16   6     0.07  -0.08   0.04     0.06  -0.02   0.12    -0.01  -0.02   0.02
  17   6    -0.03  -0.08   0.07    -0.00  -0.05   0.07    -0.01  -0.01   0.06
  18   6    -0.09  -0.06   0.00    -0.08  -0.10  -0.07    -0.05  -0.05  -0.01
  19   6    -0.02  -0.00   0.04     0.03  -0.03   0.07    -0.01  -0.03   0.03
  20   6     0.07  -0.02   0.02     0.06  -0.03   0.07     0.02  -0.02   0.04
  21   6     0.04  -0.07  -0.04    -0.01  -0.04  -0.05    -0.04  -0.03  -0.07
  22   6    -0.12   0.02   0.05     0.06   0.20  -0.11    -0.03   0.03   0.29
  23   6     0.13   0.02  -0.05     0.06  -0.20  -0.11    -0.03  -0.03   0.29
  24   6     0.12  -0.03   0.02     0.04  -0.06  -0.08     0.05  -0.04  -0.10
  25   7     0.07  -0.06   0.13    -0.14   0.09  -0.29    -0.06   0.03  -0.13
  26   6     0.00  -0.08   0.04    -0.04   0.10  -0.08     0.00   0.04  -0.02
  27   6    -0.04  -0.04  -0.05     0.02   0.01   0.09     0.02  -0.00   0.05
  28   6    -0.04   0.02   0.01     0.01  -0.04   0.04     0.01  -0.03   0.01
  29   6    -0.04   0.01   0.10    -0.06   0.01  -0.12    -0.02  -0.01  -0.06
  30   6    -0.11   0.01   0.01     0.07  -0.01   0.03     0.04  -0.02   0.01
  31   6    -0.08  -0.06  -0.02     0.06   0.05   0.08     0.03   0.02   0.04
  32   6    -0.07  -0.08  -0.04     0.06   0.03   0.12    -0.01   0.02   0.02
  33   6     0.03  -0.08  -0.07    -0.00   0.05   0.07    -0.01   0.01   0.06
  34   6     0.09  -0.06  -0.00    -0.08   0.10  -0.06    -0.05   0.05  -0.01
  35   6     0.02  -0.00  -0.04     0.03   0.03   0.07    -0.01   0.03   0.03
  36   6    -0.07  -0.02  -0.01     0.07   0.03   0.07     0.02   0.02   0.04
  37   6    -0.04  -0.07   0.04    -0.01   0.04  -0.05    -0.05   0.03  -0.07
  38   6     0.31   0.08  -0.01    -0.03  -0.07   0.13     0.06  -0.09  -0.17
  39   1     0.05   0.03   0.03     0.02  -0.04  -0.07    -0.05   0.02   0.21
  40   1     0.07   0.05   0.03     0.01  -0.07  -0.03     0.00  -0.03  -0.04
  41   1    -0.07   0.05  -0.03     0.01   0.07  -0.03     0.00   0.03  -0.03
  42   1    -0.05   0.03  -0.03     0.02   0.04  -0.07    -0.05  -0.02   0.21
  43   1    -0.09   0.05   0.01    -0.02   0.03   0.08     0.02   0.03  -0.07
  44   1     0.01  -0.01   0.04     0.00   0.00   0.06     0.00   0.00   0.02
  45   1     0.00   0.02   0.01     0.01   0.03   0.03     0.00   0.01   0.01
  46   1     0.00   0.00  -0.05    -0.04  -0.01  -0.07    -0.02  -0.00  -0.04
  47   1     0.05   0.01   0.00     0.04   0.01   0.02     0.02   0.01   0.00
  48   1    -0.02  -0.03   0.04    -0.00  -0.02   0.02     0.01   0.00   0.04
  49   1    -0.05  -0.02  -0.01    -0.05  -0.04  -0.06    -0.02  -0.02  -0.01
  50   1    -0.01   0.02   0.02     0.01   0.00   0.03     0.00   0.00   0.02
  51   1     0.03   0.01   0.00     0.02  -0.00   0.02     0.02  -0.00   0.04
  52   1    -0.06   0.02   0.00     0.01   0.07  -0.08    -0.04  -0.01   0.19
  53   1     0.06   0.02  -0.01     0.01  -0.07  -0.08    -0.04   0.01   0.19
  54   1    -0.01  -0.01  -0.04     0.01  -0.00   0.06     0.00  -0.00   0.02
  55   1    -0.00   0.02  -0.01     0.01  -0.03   0.03     0.00  -0.01   0.01
  56   1    -0.00   0.00   0.05    -0.04   0.01  -0.07    -0.02   0.00  -0.04
  57   1    -0.05   0.01  -0.00     0.04  -0.01   0.02     0.02  -0.01   0.00
  58   1     0.02  -0.03  -0.04    -0.00   0.02   0.02     0.01  -0.00   0.04
  59   1     0.04  -0.02   0.01    -0.05   0.04  -0.06    -0.02   0.02  -0.01
  60   1     0.01   0.02  -0.02     0.01  -0.00   0.03     0.00  -0.00   0.02
  61   1    -0.03   0.01  -0.00     0.02   0.00   0.02     0.02   0.00   0.04
  62   1     0.09   0.05  -0.01    -0.02  -0.03   0.08     0.02  -0.03  -0.07
                     28                     29                     30
                        a                      a                      a 
 Frequencies --   388.2918               393.1485               393.4069
 Red. masses --     9.9139                 9.4081                 9.3839
 Frc consts  --     0.0000                 0.0000                 0.0000
 IR Inten    --     0.2999                 0.2285                 2.2027
 Raman Activ --     0.0000                 0.0000                 0.0000
 Depolar     --     0.0000                 0.0000                 0.0000
 Atom AN      X      Y      Z        X      Y      Z        X      Y      Z
   1   6     0.06   0.01  -0.21     0.09  -0.03  -0.24    -0.00   0.00  -0.03
   2   6    -0.02  -0.04   0.19    -0.02   0.04   0.21    -0.01   0.04   0.02
   3   6    -0.03  -0.07   0.11    -0.02   0.01   0.12     0.01   0.03  -0.03
   4   6     0.03  -0.07  -0.11     0.02   0.01  -0.12     0.00  -0.03  -0.01
   5   6     0.02  -0.04  -0.19     0.02   0.03  -0.20    -0.01  -0.05   0.05
   6   6    -0.06   0.01   0.21    -0.09  -0.03   0.24     0.01  -0.00  -0.06
   7   6     0.14   0.13  -0.06    -0.01   0.02  -0.12     0.01   0.00  -0.00
   8   6     0.16   0.10  -0.12     0.00   0.01  -0.11     0.01  -0.00   0.04
   9   7    -0.03  -0.01  -0.15     0.01   0.01  -0.00     0.01   0.00   0.04
  10   6    -0.03  -0.07  -0.08     0.06   0.02   0.08    -0.05  -0.02  -0.08
  11   6     0.04   0.05   0.13    -0.07  -0.06  -0.13     0.11   0.08   0.19
  12   6    -0.05   0.02  -0.03     0.06   0.04   0.07    -0.08  -0.05  -0.13
  13   6    -0.07   0.01  -0.06     0.03   0.02   0.03    -0.03  -0.01  -0.03
  14   6     0.06   0.04   0.11    -0.07  -0.04  -0.14     0.09   0.06   0.18
  15   6    -0.04  -0.06  -0.03     0.08   0.04   0.13    -0.13  -0.06  -0.20
  16   6    -0.09  -0.02  -0.05     0.05   0.04   0.11    -0.12  -0.07  -0.20
  17   6     0.04   0.04   0.13    -0.08  -0.03  -0.10     0.11   0.06   0.17
  18   6    -0.04  -0.08  -0.04     0.01   0.00   0.04    -0.01  -0.01  -0.03
  19   6    -0.02  -0.07  -0.03     0.03   0.01   0.08    -0.08  -0.05  -0.14
  20   6     0.05  -0.00   0.13    -0.08  -0.05  -0.12     0.12   0.07   0.19
  21   6    -0.10  -0.00  -0.10     0.01   0.02   0.04    -0.05  -0.03  -0.08
  22   6     0.11   0.01   0.13    -0.05  -0.03   0.15     0.02  -0.02  -0.04
  23   6    -0.11   0.01  -0.13     0.05  -0.03  -0.15     0.02   0.03  -0.02
  24   6    -0.16   0.10   0.12    -0.00   0.01   0.12     0.01   0.00   0.02
  25   7     0.03  -0.01   0.15    -0.01   0.01   0.01     0.01  -0.01   0.04
  26   6     0.03  -0.07   0.08    -0.07   0.02  -0.09    -0.05   0.02  -0.07
  27   6    -0.04   0.05  -0.13     0.08  -0.07   0.15     0.10  -0.08   0.18
  28   6     0.05   0.02   0.03    -0.06   0.04  -0.09    -0.08   0.04  -0.12
  29   6     0.07   0.01   0.06    -0.03   0.02  -0.03    -0.03   0.01  -0.02
  30   6    -0.06   0.04  -0.11     0.08  -0.05   0.16     0.09  -0.06   0.17
  31   6     0.04  -0.06   0.03    -0.10   0.04  -0.16    -0.12   0.05  -0.18
  32   6     0.09  -0.02   0.05    -0.06   0.05  -0.13    -0.11   0.06  -0.19
  33   6    -0.04   0.04  -0.13     0.09  -0.04   0.12     0.10  -0.05   0.16
  34   6     0.04  -0.08   0.04    -0.01   0.00  -0.04    -0.01   0.01  -0.03
  35   6     0.02  -0.07   0.03    -0.04   0.02  -0.10    -0.07   0.04  -0.12
  36   6    -0.05  -0.00  -0.13     0.10  -0.06   0.14     0.11  -0.06   0.18
  37   6     0.10  -0.00   0.10    -0.02   0.03  -0.05    -0.05   0.03  -0.07
  38   6    -0.14   0.13   0.06     0.01   0.02   0.12     0.01  -0.00  -0.02
  39   1     0.07   0.01  -0.14     0.04  -0.02  -0.15    -0.01  -0.00  -0.01
  40   1    -0.00  -0.01   0.08    -0.01   0.02   0.09    -0.01   0.02   0.02
  41   1     0.00  -0.01  -0.08     0.01   0.01  -0.08    -0.01  -0.02   0.04
  42   1    -0.07   0.01   0.14    -0.04  -0.02   0.15    -0.00   0.00  -0.03
  43   1     0.04   0.06  -0.00     0.00   0.01  -0.06    -0.00   0.00   0.01
  44   1     0.03   0.03   0.09    -0.06  -0.04  -0.10     0.09   0.06   0.14
  45   1    -0.02   0.01  -0.01     0.02   0.02   0.03    -0.04  -0.02  -0.06
  46   1    -0.03   0.00  -0.03     0.01   0.00   0.00    -0.00  -0.00   0.00
  47   1     0.06   0.03   0.07    -0.06  -0.03  -0.11     0.08   0.05   0.14
  48   1     0.05   0.04   0.09    -0.05  -0.02  -0.08     0.08   0.05   0.14
  49   1    -0.01  -0.03  -0.02     0.01  -0.00   0.01     0.00   0.00   0.00
  50   1    -0.01  -0.02  -0.00     0.02   0.01   0.04    -0.04  -0.02  -0.06
  51   1     0.04   0.01   0.10    -0.05  -0.04  -0.07     0.09   0.05   0.14
  52   1     0.04  -0.03   0.13    -0.03  -0.03   0.12     0.02  -0.01  -0.01
  53   1    -0.04  -0.03  -0.13     0.03  -0.02  -0.12     0.01   0.02   0.00
  54   1    -0.03   0.03  -0.09     0.07  -0.05   0.11     0.08  -0.05   0.12
  55   1     0.02   0.01   0.01    -0.02   0.02  -0.04    -0.03   0.02  -0.06
  56   1     0.03   0.00   0.03    -0.01   0.00  -0.00    -0.00  -0.00   0.00
  57   1    -0.06   0.03  -0.07     0.06  -0.04   0.12     0.07  -0.05   0.13
  58   1    -0.05   0.04  -0.09     0.06  -0.03   0.10     0.08  -0.04   0.13
  59   1     0.01  -0.03   0.02    -0.00  -0.00  -0.01     0.00  -0.00   0.00
  60   1     0.01  -0.02   0.00    -0.02   0.01  -0.05    -0.03   0.02  -0.06
  61   1    -0.04   0.01  -0.10     0.07  -0.04   0.09     0.08  -0.04   0.13
  62   1    -0.04   0.06   0.00    -0.00   0.01   0.06    -0.00  -0.00   0.01
                     31                     32                     33
                        a                      a                      a 
 Frequencies --   404.4628               421.6666               421.9097
 Red. masses --    10.7979                 9.8586                 9.8727
 Frc consts  --     0.0000                 0.0000                 0.0000
 IR Inten    --     0.1096                 0.7794                 0.1369
 Raman Activ --     0.0000                 0.0000                 0.0000
 Depolar     --     0.0000                 0.0000                 0.0000
 Atom AN      X      Y      Z        X      Y      Z        X      Y      Z
   1   6    -0.02   0.07   0.13    -0.02  -0.02  -0.01    -0.02  -0.02  -0.02
   2   6     0.03  -0.08  -0.06    -0.02  -0.02   0.00    -0.03  -0.02   0.01
   3   6     0.02  -0.10  -0.12    -0.00  -0.00   0.01    -0.00  -0.01   0.01
   4   6    -0.02  -0.10   0.12    -0.00   0.00   0.01     0.00  -0.01  -0.01
   5   6    -0.03  -0.08   0.06    -0.02   0.02   0.01     0.02  -0.02  -0.01
   6   6     0.02   0.07  -0.13    -0.02   0.02  -0.01     0.02  -0.02   0.02
   7   6     0.12   0.11   0.18    -0.01   0.01   0.02     0.01  -0.02  -0.02
   8   6     0.16   0.10   0.05     0.02  -0.01   0.01    -0.01   0.00  -0.02
   9   7    -0.09  -0.05  -0.26     0.00  -0.02  -0.02     0.00   0.02   0.02
  10   6    -0.04  -0.07  -0.09     0.11   0.01   0.24    -0.09  -0.01  -0.22
  11   6    -0.06  -0.02  -0.04    -0.18  -0.05  -0.04     0.16   0.05   0.03
  12   6     0.03   0.06   0.12    -0.12  -0.02   0.10     0.11   0.02  -0.09
  13   6    -0.09  -0.01  -0.06    -0.04   0.01   0.14     0.04  -0.00  -0.12
  14   6    -0.02  -0.03  -0.01    -0.08  -0.13  -0.08     0.07   0.12   0.08
  15   6     0.07   0.00   0.15     0.09  -0.01   0.16    -0.09   0.01  -0.14
  16   6     0.07   0.06   0.19    -0.04  -0.07  -0.14     0.03   0.07   0.13
  17   6    -0.04  -0.02  -0.05     0.16   0.01   0.09    -0.14  -0.01  -0.08
  18   6    -0.03  -0.06  -0.05     0.00   0.03  -0.15     0.00  -0.03   0.14
  19   6     0.09   0.01   0.12     0.08   0.10  -0.08    -0.07  -0.09   0.07
  20   6    -0.05  -0.04  -0.07     0.12   0.13   0.04    -0.11  -0.12  -0.03
  21   6    -0.03   0.02  -0.03    -0.08  -0.08  -0.26     0.07   0.08   0.24
  22   6     0.16   0.04  -0.01     0.02   0.01  -0.01    -0.02  -0.02   0.01
  23   6    -0.16   0.04   0.01     0.02  -0.01  -0.01     0.02  -0.02  -0.01
  24   6    -0.16   0.10  -0.05     0.01   0.01   0.01     0.02   0.00   0.02
  25   7     0.09  -0.05   0.26     0.00   0.02  -0.02    -0.00   0.02  -0.03
  26   6     0.04  -0.07   0.09     0.10  -0.01   0.22     0.10  -0.01   0.24
  27   6     0.06  -0.02   0.04    -0.16   0.05  -0.03    -0.17   0.05  -0.04
  28   6    -0.03   0.06  -0.12    -0.11   0.02   0.09    -0.12   0.02   0.10
  29   6     0.09  -0.01   0.06    -0.04  -0.01   0.12    -0.04  -0.00   0.13
  30   6     0.02  -0.03   0.01    -0.07   0.12  -0.08    -0.08   0.13  -0.08
  31   6    -0.07   0.00  -0.15     0.08   0.00   0.14     0.10   0.01   0.16
  32   6    -0.07   0.06  -0.19    -0.03   0.07  -0.13    -0.03   0.08  -0.14
  33   6     0.04  -0.02   0.05     0.14  -0.01   0.08     0.16  -0.01   0.09
  34   6     0.03  -0.06   0.05     0.00  -0.03  -0.13    -0.00  -0.03  -0.15
  35   6    -0.09   0.01  -0.12     0.07  -0.09  -0.08     0.08  -0.10  -0.08
  36   6     0.05  -0.04   0.07     0.11  -0.12   0.04     0.12  -0.13   0.04
  37   6     0.03   0.02   0.03    -0.07   0.08  -0.24    -0.07   0.09  -0.26
  38   6    -0.12   0.11  -0.18    -0.01  -0.01   0.02    -0.01  -0.02   0.03
  39   1     0.02   0.05   0.10    -0.00  -0.00  -0.01    -0.00  -0.01  -0.02
  40   1     0.01  -0.03   0.00    -0.01  -0.00  -0.00    -0.01  -0.01   0.00
  41   1    -0.01  -0.03  -0.00    -0.01   0.00  -0.00     0.01  -0.01  -0.00
  42   1    -0.02   0.05  -0.10    -0.00   0.01  -0.01     0.00  -0.01   0.02
  43   1     0.03   0.06   0.07    -0.00   0.01   0.00     0.00  -0.01   0.00
  44   1    -0.04  -0.01  -0.01    -0.12  -0.05  -0.09     0.11   0.05   0.08
  45   1     0.03   0.03   0.07    -0.05  -0.02  -0.01     0.05   0.02   0.00
  46   1    -0.04  -0.01  -0.05    -0.01   0.02   0.02     0.01  -0.02  -0.02
  47   1    -0.00  -0.01  -0.02    -0.07  -0.07  -0.12     0.07   0.06   0.11
  48   1    -0.03  -0.01  -0.06     0.10   0.03   0.12    -0.09  -0.03  -0.11
  49   1    -0.03  -0.03  -0.05    -0.02   0.02  -0.03     0.02  -0.02   0.03
  50   1     0.04   0.01   0.06     0.05   0.04   0.01    -0.04  -0.04  -0.01
  51   1    -0.05  -0.03  -0.05     0.10   0.08   0.09    -0.09  -0.07  -0.08
  52   1     0.08   0.01  -0.06     0.00   0.00  -0.00    -0.00  -0.01   0.01
  53   1    -0.08   0.01   0.06     0.00  -0.00  -0.00     0.00  -0.01  -0.01
  54   1     0.04  -0.01   0.01    -0.11   0.05  -0.08    -0.12   0.05  -0.09
  55   1    -0.03   0.03  -0.07    -0.05   0.02  -0.00    -0.05   0.02  -0.00
  56   1     0.04  -0.01   0.05    -0.01  -0.02   0.02    -0.01  -0.02   0.02
  57   1     0.00  -0.01   0.02    -0.07   0.06  -0.11    -0.07   0.07  -0.12
  58   1     0.03  -0.01   0.06     0.09  -0.03   0.11     0.10  -0.03   0.12
  59   1     0.03  -0.03   0.05    -0.02  -0.02  -0.02    -0.02  -0.02  -0.03
  60   1    -0.04   0.01  -0.06     0.04  -0.04   0.01     0.05  -0.04   0.02
  61   1     0.05  -0.03   0.05     0.09  -0.07   0.08     0.10  -0.08   0.09
  62   1    -0.03   0.06  -0.07    -0.00  -0.01   0.00    -0.00  -0.02  -0.00
                     34                     35                     36
                        a                      a                      a 
 Frequencies --   436.0226               436.9922               456.6759
 Red. masses --    10.7335                10.7290                10.4249
 Frc consts  --     0.0000                 0.0000                 0.0000
 IR Inten    --    26.6169                 0.6298                 1.8308
 Raman Activ --     0.0000                 0.0000                 0.0000
 Depolar     --     0.0000                 0.0000                 0.0000
 Atom AN      X      Y      Z        X      Y      Z        X      Y      Z
   1   6     0.04  -0.00  -0.02    -0.03   0.00   0.03     0.10  -0.02   0.08
   2   6     0.03  -0.00   0.02    -0.01  -0.04  -0.03     0.10  -0.31   0.00
   3   6    -0.01  -0.01   0.00     0.00  -0.03  -0.01     0.01  -0.25   0.05
   4   6    -0.01   0.01   0.00    -0.00  -0.03   0.01     0.01   0.25   0.05
   5   6     0.03   0.00   0.02     0.01  -0.04   0.03     0.10   0.31   0.00
   6   6     0.04   0.00  -0.02     0.03   0.00  -0.03     0.10   0.02   0.08
   7   6    -0.00  -0.01   0.04     0.01   0.00   0.05    -0.12  -0.10  -0.08
   8   6    -0.04   0.01   0.01    -0.01   0.02   0.03    -0.16  -0.07  -0.13
   9   7    -0.03   0.04   0.01    -0.03   0.03  -0.01     0.01   0.01   0.14
  10   6     0.10   0.14   0.09     0.09   0.13   0.08     0.02   0.04   0.10
  11   6     0.13  -0.03  -0.16     0.13  -0.03  -0.17     0.01  -0.01   0.04
  12   6     0.19   0.03  -0.14     0.20   0.04  -0.13    -0.04  -0.05  -0.06
  13   6     0.18   0.05  -0.03     0.17   0.05  -0.04     0.08   0.01   0.06
  14   6    -0.03   0.12  -0.13    -0.03   0.12  -0.13     0.00  -0.01  -0.04
  15   6     0.03   0.11   0.06     0.03   0.11   0.07    -0.02  -0.00  -0.08
  16   6    -0.10   0.02  -0.06    -0.10   0.03  -0.05     0.02  -0.05  -0.07
  17   6    -0.09   0.07   0.13    -0.09   0.07   0.13     0.01  -0.03  -0.04
  18   6    -0.12  -0.13   0.03    -0.12  -0.14   0.02     0.04   0.06   0.06
  19   6    -0.12  -0.16   0.12    -0.11  -0.16   0.14    -0.04   0.01  -0.08
  20   6    -0.02  -0.13   0.16    -0.03  -0.14   0.16     0.04   0.04   0.01
  21   6    -0.15  -0.04  -0.08    -0.17  -0.03  -0.09     0.09  -0.01   0.09
  22   6    -0.02   0.02  -0.06     0.01  -0.01  -0.05    -0.15   0.17  -0.08
  23   6    -0.02  -0.02  -0.06    -0.01  -0.01   0.05    -0.15  -0.17  -0.07
  24   6    -0.04  -0.01   0.01     0.01   0.02  -0.03    -0.16   0.07  -0.13
  25   7    -0.03  -0.04   0.01     0.03   0.03   0.01     0.01  -0.01   0.14
  26   6     0.10  -0.14   0.09    -0.09   0.13  -0.08     0.02  -0.04   0.10
  27   6     0.13   0.03  -0.16    -0.13  -0.03   0.16     0.01   0.01   0.04
  28   6     0.20  -0.03  -0.14    -0.20   0.04   0.13    -0.04   0.05  -0.06
  29   6     0.18  -0.05  -0.03    -0.17   0.05   0.04     0.08  -0.01   0.06
  30   6    -0.03  -0.12  -0.13     0.03   0.12   0.12     0.00   0.01  -0.04
  31   6     0.03  -0.11   0.06    -0.03   0.11  -0.07    -0.02   0.00  -0.08
  32   6    -0.10  -0.02  -0.06     0.10   0.03   0.05     0.02   0.05  -0.07
  33   6    -0.09  -0.07   0.13     0.09   0.07  -0.13     0.01   0.03  -0.03
  34   6    -0.12   0.13   0.04     0.12  -0.14  -0.02     0.04  -0.06   0.06
  35   6    -0.12   0.16   0.13     0.11  -0.16  -0.14    -0.04  -0.01  -0.08
  36   6    -0.02   0.13   0.16     0.03  -0.14  -0.15     0.04  -0.04   0.01
  37   6    -0.15   0.04  -0.08     0.16  -0.03   0.09     0.09   0.01   0.09
  38   6    -0.00   0.01   0.04    -0.01   0.00  -0.05    -0.12   0.10  -0.08
  39   1     0.02  -0.00  -0.02    -0.01   0.01   0.03     0.09   0.04   0.06
  40   1     0.01  -0.00   0.01    -0.00  -0.01  -0.01     0.07  -0.11   0.00
  41   1     0.01   0.00   0.01     0.00  -0.01   0.01     0.07   0.11   0.01
  42   1     0.02   0.00  -0.01     0.01   0.01  -0.03     0.09  -0.04   0.06
  43   1     0.00  -0.02   0.00     0.01  -0.01   0.00    -0.04  -0.08   0.00
  44   1     0.03  -0.02  -0.10     0.02  -0.02  -0.10     0.01  -0.00   0.00
  45   1     0.04   0.00  -0.06     0.04   0.01  -0.06    -0.03  -0.02  -0.04
  46   1     0.05  -0.02   0.01     0.04  -0.02  -0.00     0.03   0.01   0.04
  47   1    -0.05   0.01  -0.09    -0.05   0.01  -0.08    -0.01  -0.01  -0.01
  48   1     0.01   0.04   0.09     0.01   0.04   0.09    -0.01  -0.02  -0.01
  49   1     0.00  -0.05  -0.00    -0.00  -0.05  -0.01     0.02   0.03   0.04
  50   1    -0.02  -0.03   0.06    -0.02  -0.03   0.06    -0.03  -0.01  -0.05
  51   1     0.01  -0.03   0.10     0.01  -0.03   0.10     0.02   0.02  -0.01
  52   1    -0.00   0.00  -0.02     0.01  -0.00  -0.03    -0.13   0.08   0.00
  53   1    -0.00  -0.00  -0.02    -0.01  -0.00   0.03    -0.13  -0.08   0.00
  54   1     0.03   0.02  -0.10    -0.02  -0.02   0.10     0.01   0.00   0.00
  55   1     0.04  -0.00  -0.06    -0.04   0.01   0.06    -0.03   0.02  -0.04
  56   1     0.05   0.02   0.01    -0.04  -0.02   0.00     0.03  -0.01   0.04
  57   1    -0.05  -0.01  -0.09     0.05   0.01   0.08    -0.01   0.01  -0.01
  58   1     0.01  -0.04   0.09    -0.01   0.04  -0.08    -0.01   0.02  -0.01
  59   1     0.00   0.05  -0.00     0.00  -0.05   0.01     0.02  -0.03   0.04
  60   1    -0.02   0.03   0.06     0.02  -0.03  -0.06    -0.03   0.01  -0.05
  61   1     0.01   0.03   0.10    -0.01  -0.03  -0.10     0.02  -0.02  -0.01
  62   1     0.00   0.02   0.00    -0.01  -0.01  -0.00    -0.04   0.08   0.00
                     37                     38                     39
                        a                      a                      a 
 Frequencies --   476.5140               512.3304               516.3816
 Red. masses --    10.8916                10.6738                10.9869
 Frc consts  --     0.0000                 0.0000                 0.0000
 IR Inten    --     0.4853                 0.3661                 8.2415
 Raman Activ --     0.0000                 0.0000                 0.0000
 Depolar     --     0.0000                 0.0000                 0.0000
 Atom AN      X      Y      Z        X      Y      Z        X      Y      Z
   1   6     0.05  -0.02  -0.10     0.01   0.01  -0.05     0.00  -0.02   0.02
   2   6    -0.02  -0.07   0.17    -0.00  -0.01   0.02     0.01  -0.00  -0.02
   3   6     0.06  -0.12  -0.30    -0.05   0.01   0.20     0.02   0.02   0.03
   4   6     0.06   0.12  -0.30     0.05   0.01  -0.20     0.02  -0.02   0.03
   5   6    -0.02   0.07   0.17     0.00  -0.01  -0.02     0.01   0.00  -0.02
   6   6     0.05   0.02  -0.10    -0.01   0.01   0.05     0.00   0.02   0.02
   7   6    -0.00  -0.01  -0.02     0.04   0.04  -0.09    -0.01   0.01  -0.01
   8   6    -0.10  -0.06   0.37    -0.04  -0.03   0.27     0.00  -0.00  -0.03
   9   7    -0.11  -0.06   0.03    -0.00  -0.00   0.09     0.07   0.05  -0.07
  10   6    -0.12   0.06  -0.07    -0.11   0.14  -0.13     0.05   0.18  -0.06
  11   6     0.01   0.00  -0.04     0.01   0.11  -0.11     0.05   0.21  -0.10
  12   6     0.06  -0.03   0.06     0.07   0.00   0.07     0.01   0.04  -0.04
  13   6     0.02  -0.06  -0.07    -0.11  -0.07  -0.03    -0.17  -0.00   0.13
  14   6     0.01   0.04   0.03    -0.10   0.06   0.10    -0.20   0.01   0.09
  15   6     0.02   0.10  -0.00    -0.05   0.15   0.01    -0.11   0.11   0.03
  16   6     0.11  -0.04   0.01     0.12  -0.11   0.01     0.05  -0.15   0.02
  17   6     0.04  -0.03   0.02     0.01  -0.12   0.09    -0.07  -0.19   0.09
  18   6    -0.05   0.05  -0.06    -0.11  -0.06  -0.02    -0.08  -0.16   0.12
  19   6     0.01   0.07   0.05     0.03   0.06   0.06     0.03  -0.01  -0.04
  20   6     0.02   0.01  -0.06     0.10  -0.04  -0.12     0.21  -0.05  -0.10
  21   6     0.02  -0.12  -0.07     0.09  -0.14  -0.13     0.18  -0.04  -0.07
  22   6    -0.03   0.09   0.03     0.02   0.00  -0.05     0.00  -0.03  -0.01
  23   6    -0.03  -0.09   0.03    -0.02   0.00   0.05     0.00   0.03  -0.01
  24   6    -0.10   0.06   0.37     0.04  -0.03  -0.27     0.00   0.00  -0.03
  25   7    -0.11   0.06   0.03     0.00  -0.00  -0.09     0.07  -0.05  -0.07
  26   6    -0.12  -0.06  -0.07     0.11   0.14   0.13     0.04  -0.18  -0.06
  27   6     0.01  -0.00  -0.04    -0.01   0.11   0.11     0.04  -0.21  -0.10
  28   6     0.06   0.03   0.06    -0.07   0.01  -0.07     0.01  -0.04  -0.04
  29   6     0.02   0.06  -0.07     0.11  -0.07   0.03    -0.17   0.00   0.13
  30   6     0.01  -0.04   0.03     0.10   0.06  -0.10    -0.20  -0.01   0.09
  31   6     0.02  -0.10   0.00     0.05   0.15  -0.01    -0.11  -0.11   0.03
  32   6     0.11   0.04   0.01    -0.12  -0.11  -0.01     0.05   0.14   0.02
  33   6     0.04   0.03   0.02    -0.01  -0.12  -0.09    -0.07   0.19   0.09
  34   6    -0.05  -0.05  -0.06     0.11  -0.06   0.02    -0.08   0.16   0.12
  35   6     0.01  -0.07   0.05    -0.03   0.06  -0.06     0.03   0.01  -0.04
  36   6     0.02  -0.01  -0.06    -0.10  -0.04   0.12     0.21   0.05  -0.10
  37   6     0.02   0.12  -0.07    -0.09  -0.14   0.13     0.18   0.04  -0.07
  38   6    -0.00   0.01  -0.02    -0.04   0.04   0.09    -0.01  -0.01  -0.01
  39   1     0.03   0.00  -0.03     0.01   0.00  -0.03     0.00  -0.01   0.01
  40   1    -0.01  -0.01   0.17     0.02  -0.02  -0.05    -0.00   0.00  -0.02
  41   1    -0.01   0.01   0.17    -0.02  -0.02   0.05    -0.00  -0.00  -0.02
  42   1     0.03  -0.00  -0.03    -0.01   0.00   0.03     0.00   0.01   0.01
  43   1     0.02   0.01  -0.07     0.03   0.03  -0.09    -0.00   0.00  -0.00
  44   1     0.03   0.01  -0.02     0.04   0.05  -0.04     0.03   0.06  -0.04
  45   1     0.03   0.00   0.04     0.07  -0.01   0.05     0.04  -0.04  -0.03
  46   1    -0.00  -0.03  -0.03    -0.04  -0.05  -0.01    -0.05  -0.03   0.05
  47   1    -0.02   0.01   0.04    -0.05   0.02   0.07    -0.08  -0.00   0.03
  48   1    -0.00  -0.03   0.03    -0.01  -0.06   0.07    -0.03  -0.07   0.03
  49   1    -0.03   0.01  -0.03    -0.06  -0.01  -0.01    -0.05  -0.03   0.05
  50   1     0.02   0.03   0.04     0.02   0.06   0.05    -0.02   0.06  -0.02
  51   1     0.03   0.03  -0.03     0.06   0.02  -0.04     0.07  -0.00  -0.04
  52   1    -0.02   0.04  -0.01     0.01  -0.00  -0.01     0.00  -0.01  -0.01
  53   1    -0.02  -0.04  -0.01    -0.01  -0.00   0.01     0.00   0.01  -0.01
  54   1     0.03  -0.01  -0.02    -0.04   0.05   0.04     0.02  -0.06  -0.04
  55   1     0.03  -0.00   0.04    -0.07  -0.01  -0.05     0.04   0.04  -0.03
  56   1    -0.00   0.03  -0.03     0.04  -0.05   0.01    -0.05   0.03   0.05
  57   1    -0.02  -0.01   0.04     0.05   0.02  -0.07    -0.08   0.00   0.03
  58   1    -0.00   0.03   0.03     0.01  -0.06  -0.07    -0.03   0.07   0.03
  59   1    -0.03  -0.01  -0.03     0.06  -0.01   0.01    -0.05   0.03   0.05
  60   1     0.02  -0.03   0.04    -0.02   0.06  -0.05    -0.02  -0.06  -0.02
  61   1     0.03  -0.03  -0.03    -0.06   0.02   0.04     0.07   0.00  -0.04
  62   1     0.02  -0.01  -0.07    -0.03   0.03   0.09    -0.00   0.00  -0.00
                     40                     41                     42
                        a                      a                      a 
 Frequencies --   518.5385               537.3804               537.7475
 Red. masses --    11.1369                10.0755                 9.9575
 Frc consts  --     0.0000                 0.0000                 0.0000
 IR Inten    --     0.0638                12.5420                 0.0034
 Raman Activ --     0.0000                 0.0000                 0.0000
 Depolar     --     0.0000                 0.0000                 0.0000
 Atom AN      X      Y      Z        X      Y      Z        X      Y      Z
   1   6     0.01  -0.00  -0.02     0.02  -0.06   0.01    -0.00   0.00   0.00
   2   6     0.01  -0.01   0.01     0.02  -0.03   0.01     0.00  -0.00  -0.00
   3   6    -0.03   0.01   0.14     0.06   0.02   0.01     0.00  -0.00  -0.00
   4   6     0.03   0.01  -0.14     0.06  -0.02   0.01    -0.00  -0.00   0.00
   5   6    -0.01  -0.01  -0.01     0.02   0.03   0.01    -0.00  -0.00   0.00
   6   6    -0.01  -0.00   0.02     0.02   0.06   0.01     0.00   0.00  -0.00
   7   6     0.02   0.01  -0.06    -0.06   0.01  -0.02    -0.00   0.00   0.01
   8   6    -0.03  -0.03   0.18    -0.02  -0.03  -0.05    -0.00   0.00   0.00
   9   7    -0.07  -0.05   0.17     0.06   0.03   0.08    -0.00  -0.00  -0.01
  10   6    -0.13  -0.13  -0.02     0.00  -0.01  -0.02    -0.02  -0.01  -0.03
  11   6    -0.06  -0.18   0.03     0.06   0.05   0.10    -0.08  -0.05  -0.14
  12   6     0.04  -0.04   0.10    -0.10  -0.05  -0.15     0.12   0.07   0.19
  13   6     0.13  -0.04  -0.18     0.07   0.05   0.14    -0.10  -0.07  -0.19
  14   6     0.18   0.02  -0.04    -0.05  -0.04  -0.09     0.07   0.05   0.13
  15   6     0.10  -0.03  -0.03    -0.09  -0.06  -0.16     0.09   0.06   0.17
  16   6     0.02   0.10  -0.02     0.08   0.06   0.16    -0.10  -0.05  -0.16
  17   6     0.10   0.15  -0.04     0.08   0.05   0.15    -0.08  -0.04  -0.13
  18   6     0.02   0.15  -0.17    -0.13  -0.07  -0.22     0.11   0.06   0.19
  19   6    -0.01   0.05   0.10     0.14   0.08   0.22    -0.12  -0.07  -0.20
  20   6    -0.19   0.03   0.04    -0.10  -0.05  -0.16     0.08   0.05   0.14
  21   6    -0.17  -0.05  -0.01    -0.04  -0.02  -0.07     0.02   0.01   0.03
  22   6     0.01   0.00  -0.03    -0.02  -0.07   0.00     0.00  -0.00  -0.01
  23   6    -0.01   0.00   0.03    -0.02   0.07   0.00    -0.00   0.00   0.01
  24   6     0.03  -0.03  -0.18    -0.02   0.03  -0.05     0.00   0.00  -0.01
  25   7     0.07  -0.05  -0.17     0.06  -0.03   0.08     0.01  -0.00   0.01
  26   6     0.13  -0.13   0.02     0.00   0.01  -0.02     0.02  -0.01   0.03
  27   6     0.05  -0.18  -0.03     0.06  -0.05   0.10     0.08  -0.05   0.14
  28   6    -0.04  -0.04  -0.10    -0.10   0.05  -0.15    -0.12   0.07  -0.19
  29   6    -0.13  -0.04   0.18     0.07  -0.05   0.14     0.10  -0.07   0.19
  30   6    -0.18   0.02   0.04    -0.05   0.04  -0.09    -0.07   0.05  -0.13
  31   6    -0.10  -0.03   0.03    -0.09   0.06  -0.15    -0.09   0.06  -0.17
  32   6    -0.02   0.10   0.02     0.08  -0.06   0.16     0.10  -0.05   0.16
  33   6    -0.10   0.15   0.04     0.08  -0.05   0.15     0.08  -0.04   0.13
  34   6    -0.02   0.15   0.17    -0.13   0.07  -0.22    -0.11   0.06  -0.19
[...]
  18   6     0.00   0.01  -0.01     0.01   0.05  -0.02     0.01   0.06  -0.03
  19   6    -0.03  -0.01   0.02    -0.03  -0.01   0.02     0.01   0.00  -0.01
  20   6    -0.04   0.04   0.01    -0.07   0.07   0.02    -0.04   0.04   0.01
  21   6     0.00   0.00  -0.00     0.00   0.00  -0.00     0.00   0.00  -0.00
  22   6     0.04   0.08   0.02     0.01   0.01   0.00    -0.06  -0.12  -0.04
  23   6     0.04  -0.08   0.02    -0.01   0.01  -0.00    -0.06   0.12  -0.04
  24   6    -0.00  -0.00   0.00     0.00   0.00  -0.00     0.00   0.01  -0.00
  25   7    -0.00  -0.00  -0.00     0.00   0.00   0.00    -0.00  -0.00   0.00
  26   6    -0.00  -0.00   0.00     0.00   0.00  -0.00    -0.00  -0.00   0.00
  27   6    -0.03  -0.09  -0.02     0.03   0.08   0.02    -0.01  -0.03  -0.01
  28   6     0.02  -0.02  -0.02    -0.02   0.02   0.02     0.01  -0.01  -0.01
  29   6    -0.05  -0.01   0.02     0.03   0.01  -0.01    -0.00  -0.00   0.00
  30   6    -0.03  -0.09  -0.01     0.02   0.07   0.01    -0.01  -0.02  -0.00
  31   6     0.00  -0.00  -0.00    -0.00   0.00   0.00     0.00  -0.00  -0.00
  32   6    -0.00   0.00   0.00     0.00  -0.00  -0.00    -0.00   0.00   0.00
  33   6    -0.04  -0.04   0.01     0.07   0.06  -0.02    -0.05  -0.05   0.01
  34   6     0.00  -0.01  -0.01    -0.01   0.05   0.02     0.01  -0.06  -0.03
  35   6    -0.02   0.01   0.02     0.02  -0.01  -0.02     0.01  -0.00  -0.01
  36   6    -0.03  -0.03   0.01     0.07   0.07  -0.02    -0.04  -0.04   0.01
  37   6     0.00  -0.00  -0.00    -0.00   0.00   0.00     0.00  -0.00  -0.00
  38   6    -0.00   0.00  -0.00     0.00  -0.00   0.00    -0.01  -0.00  -0.00
  39   1    -0.00   0.00  -0.00    -0.00   0.01  -0.00     0.01  -0.02   0.00
  40   1     0.02   0.03  -0.00    -0.00  -0.01   0.00    -0.01  -0.02   0.00
  41   1     0.02  -0.03  -0.00     0.00  -0.01  -0.00    -0.01   0.02   0.00
  42   1    -0.00  -0.00  -0.00     0.00   0.01   0.00     0.01   0.02   0.00
  43   1     0.01   0.00   0.00     0.02  -0.00   0.01     0.03  -0.00   0.01
  44   1     0.11  -0.33   0.06     0.09  -0.27   0.05     0.03  -0.10   0.02
  45   1    -0.06  -0.07   0.06    -0.07  -0.08   0.07    -0.03  -0.04   0.03
  46   1     0.17  -0.05  -0.08     0.09  -0.03  -0.04     0.01  -0.00  -0.00
  47   1     0.11  -0.31   0.04     0.08  -0.23   0.03     0.03  -0.08   0.01
  48   1     0.13  -0.13  -0.03     0.22  -0.22  -0.05     0.18  -0.18  -0.04
  49   1    -0.01  -0.05   0.02    -0.02  -0.17   0.07    -0.03  -0.21   0.09
  50   1     0.09   0.03  -0.06     0.08   0.03  -0.06    -0.03  -0.01   0.02
  51   1     0.12  -0.12  -0.04     0.25  -0.25  -0.08     0.15  -0.15  -0.05
  52   1    -0.14  -0.27  -0.09    -0.02  -0.04  -0.01     0.22   0.44   0.14
  53   1    -0.14   0.27  -0.09     0.02  -0.05   0.01     0.23  -0.44   0.14
  54   1     0.12   0.33   0.06    -0.10  -0.28  -0.05     0.03   0.10   0.02
  55   1    -0.06   0.07   0.06     0.07  -0.08  -0.07    -0.03   0.04   0.04
  56   1     0.17   0.05  -0.08    -0.09  -0.03   0.04     0.01   0.00  -0.00
  57   1     0.11   0.31   0.04    -0.08  -0.24  -0.03     0.03   0.08   0.01
  58   1     0.13   0.12  -0.03    -0.23  -0.22   0.05     0.18   0.18  -0.04
  59   1    -0.01   0.04   0.02     0.02  -0.18  -0.07    -0.03   0.22   0.09
  60   1     0.08  -0.03  -0.06    -0.08   0.03   0.06    -0.04   0.01   0.03
  61   1     0.11   0.11  -0.03    -0.25  -0.25   0.08     0.15   0.15  -0.05
  62   1     0.01  -0.00   0.00    -0.02  -0.00  -0.01     0.03   0.00   0.01
                    172                    173                    174
                        a                      a                      a 
 Frequencies --  3097.7306              3097.7643              3098.3098
 Red. masses --     1.9104                 1.9102                 1.9067
 Frc consts  --     0.0000                 0.0000                 0.0000
 IR Inten    --    41.4302                53.1793                 9.1072
 Raman Activ --     0.0000                 0.0000                 0.0000
 Depolar     --     0.0000                 0.0000                 0.0000
 Atom AN      X      Y      Z        X      Y      Z        X      Y      Z
   1   6     0.00  -0.00   0.00    -0.00   0.00  -0.00     0.00  -0.00   0.00
   2   6    -0.00  -0.00   0.00    -0.00  -0.01   0.00    -0.00  -0.00   0.00
   3   6     0.00  -0.00   0.00     0.00  -0.00   0.00    -0.00  -0.00  -0.00
   4   6    -0.00   0.00   0.00     0.00   0.00   0.00    -0.00   0.00  -0.00
   5   6    -0.00   0.00   0.00    -0.00   0.01   0.00    -0.00   0.00   0.00
   6   6    -0.00  -0.00  -0.00     0.00   0.00   0.00     0.00   0.00   0.00
   7   6    -0.01   0.00  -0.00     0.00  -0.00   0.00    -0.00   0.00  -0.00
   8   6    -0.00   0.00  -0.00    -0.00   0.00   0.00     0.00  -0.00   0.00
   9   7     0.00   0.00   0.00    -0.00  -0.00  -0.00    -0.00  -0.00  -0.00
  10   6    -0.00   0.00   0.00    -0.00   0.00   0.00    -0.00   0.00   0.00
  11   6    -0.04   0.11  -0.02    -0.01   0.03  -0.00    -0.01   0.03  -0.01
  12   6     0.08   0.09  -0.08     0.02   0.02  -0.02     0.02   0.02  -0.02
  13   6     0.11  -0.04  -0.05     0.03  -0.01  -0.01     0.03  -0.01  -0.02
  14   6     0.03  -0.08   0.01     0.01  -0.02   0.00     0.01  -0.03   0.00
  15   6    -0.00  -0.00   0.00    -0.00  -0.00   0.00    -0.00  -0.00   0.00
  16   6    -0.00  -0.00   0.00     0.00   0.00  -0.00     0.00   0.00  -0.00
  17   6    -0.02   0.02   0.01     0.01  -0.01  -0.00     0.05  -0.05  -0.01
  18   6     0.01   0.06  -0.03    -0.00  -0.02   0.01    -0.01  -0.09   0.03
  19   6     0.07   0.02  -0.05    -0.01  -0.00   0.01    -0.08  -0.02   0.06
  20   6     0.06  -0.06  -0.02    -0.01   0.01   0.00    -0.07   0.07   0.02
  21   6    -0.00  -0.00   0.00     0.00   0.00  -0.00     0.00   0.00  -0.00
  22   6     0.00   0.00   0.00     0.01   0.02   0.01    -0.01  -0.03  -0.01
  23   6     0.01  -0.02   0.01     0.00  -0.01   0.00    -0.01   0.03  -0.01
  24   6    -0.00  -0.00   0.00    -0.00  -0.00  -0.00     0.00   0.00   0.00
  25   7    -0.00   0.00  -0.00     0.00  -0.00   0.00    -0.00   0.00  -0.00
  26   6     0.00   0.00  -0.00    -0.00  -0.00   0.00    -0.00  -0.00   0.00
  27   6     0.00   0.00   0.00    -0.04  -0.11  -0.02    -0.01  -0.03  -0.01
  28   6    -0.00   0.00   0.00     0.08  -0.09  -0.08     0.02  -0.02  -0.02
  29   6    -0.00  -0.00   0.00     0.11   0.04  -0.05     0.03   0.01  -0.01
  30   6    -0.00  -0.00  -0.00     0.03   0.08   0.01     0.01   0.03   0.00
  31   6     0.00  -0.00  -0.00    -0.00   0.00   0.00    -0.00   0.00   0.00
  32   6     0.00  -0.00  -0.00    -0.00   0.00   0.00     0.00  -0.00  -0.00
  33   6     0.02   0.01  -0.00    -0.02  -0.02   0.00     0.05   0.04  -0.01
  34   6    -0.00   0.03   0.01     0.01  -0.06  -0.02    -0.01   0.09   0.03
  35   6    -0.03   0.01   0.02     0.06  -0.02  -0.04    -0.08   0.03   0.06
  36   6    -0.02  -0.02   0.01     0.06   0.06  -0.02    -0.07  -0.07   0.02
  37   6     0.00  -0.00  -0.00    -0.00   0.00   0.00     0.00  -0.00  -0.00
  38   6     0.00   0.00   0.00    -0.01   0.00  -0.00    -0.00  -0.00  -0.00
  39   1    -0.00   0.00  -0.00     0.00  -0.00   0.00    -0.00   0.00  -0.00
  40   1     0.01   0.02  -0.00     0.01   0.02  -0.00     0.01   0.02  -0.00
  41   1     0.01  -0.02  -0.00     0.01  -0.02  -0.00     0.01  -0.02  -0.00
  42   1     0.00   0.00   0.00    -0.00  -0.00  -0.00    -0.00  -0.00  -0.00
  43   1     0.03  -0.00   0.01    -0.00   0.00  -0.00     0.00  -0.00   0.00
  44   1     0.13  -0.38   0.07     0.03  -0.09   0.02     0.04  -0.10   0.02
  45   1    -0.25  -0.29   0.26    -0.06  -0.07   0.06    -0.07  -0.08   0.07
  46   1    -0.37   0.12   0.17    -0.09   0.03   0.04    -0.11   0.04   0.05
  47   1    -0.09   0.27  -0.04    -0.02   0.07  -0.01    -0.04   0.10  -0.01
  48   1     0.08  -0.07  -0.02    -0.04   0.04   0.01    -0.16   0.15   0.04
  49   1    -0.03  -0.21   0.08     0.01   0.06  -0.02     0.04   0.29  -0.12
  50   1    -0.22  -0.07   0.16     0.04   0.01  -0.03     0.27   0.08  -0.19
  51   1    -0.20   0.20   0.06     0.02  -0.02  -0.01     0.25  -0.25  -0.07
  52   1    -0.01  -0.01  -0.00    -0.03  -0.06  -0.02     0.05   0.10   0.03
  53   1    -0.03   0.06  -0.02    -0.01   0.03  -0.01     0.05  -0.10   0.03
  54   1    -0.01  -0.02  -0.00     0.14   0.39   0.07     0.03   0.09   0.02
  55   1     0.01  -0.01  -0.01    -0.26   0.29   0.26    -0.06   0.07   0.06
  56   1     0.01   0.00  -0.01    -0.38  -0.12   0.18    -0.10  -0.03   0.05
  57   1     0.00   0.00   0.00    -0.10  -0.28  -0.04    -0.03  -0.10  -0.01
  58   1    -0.05  -0.05   0.01     0.06   0.06  -0.02    -0.15  -0.15   0.04
  59   1     0.01  -0.10  -0.04    -0.02   0.19   0.08     0.03  -0.28  -0.11
  60   1     0.09  -0.03  -0.06    -0.21   0.06   0.15     0.27  -0.08  -0.19
  61   1     0.07   0.07  -0.02    -0.19  -0.19   0.06     0.26   0.25  -0.08
  62   1    -0.01  -0.00  -0.00     0.03   0.00   0.01     0.00   0.00   0.00
                    175                    176                    177
                        a                      a                      a 
 Frequencies --  3099.1726              3104.1217              3105.2030
 Red. masses --     1.9113                 1.8337                 1.7941
 Frc consts  --     0.0000                 0.0000                 0.0000
 IR Inten    --    17.2558                95.0568                17.2531
 Raman Activ --     0.0000                 0.0000                 0.0000
 Depolar     --     0.0000                 0.0000                 0.0000
 Atom AN      X      Y      Z        X      Y      Z        X      Y      Z
   1   6     0.00   0.00   0.00     0.01  -0.03   0.01     0.00  -0.00   0.00
   2   6    -0.00  -0.00   0.00    -0.09  -0.16   0.01     0.00   0.00  -0.00
   3   6     0.00   0.00  -0.00    -0.00  -0.00  -0.00     0.00  -0.00   0.00
   4   6    -0.00   0.00   0.00    -0.00   0.00  -0.00    -0.00  -0.00  -0.00
   5   6     0.00  -0.00  -0.00    -0.10   0.16   0.01    -0.00   0.00   0.00
   6   6    -0.00   0.00  -0.00     0.01   0.03   0.01    -0.00  -0.00  -0.00
   7   6    -0.01  -0.00  -0.00    -0.05  -0.00  -0.01    -0.02   0.00  -0.01
   8   6    -0.00   0.00  -0.00    -0.00   0.00  -0.00     0.00  -0.01  -0.00
   9   7    -0.00   0.00  -0.00     0.00  -0.00   0.00     0.00   0.00   0.00
  10   6    -0.00   0.00   0.00     0.00  -0.00  -0.00    -0.00   0.00   0.00
  11   6    -0.02   0.05  -0.01     0.00  -0.01   0.00    -0.00   0.00  -0.00
  12   6     0.04   0.04  -0.04    -0.00  -0.00   0.00     0.00   0.00  -0.00
  13   6     0.06  -0.02  -0.03    -0.00   0.00   0.00     0.00  -0.00  -0.00
  14   6     0.02  -0.06   0.01    -0.00   0.00  -0.00     0.00  -0.00   0.00
  15   6    -0.00  -0.00   0.00     0.00   0.00  -0.00     0.00  -0.00  -0.00
  16   6     0.00   0.00  -0.00    -0.00   0.00   0.00     0.00  -0.00  -0.00
  17   6     0.05  -0.05  -0.01    -0.00   0.00   0.00     0.00  -0.00  -0.00
  18   6    -0.01  -0.08   0.03     0.00   0.00  -0.00    -0.00  -0.00   0.00
  19   6    -0.07  -0.02   0.05     0.00   0.00  -0.00    -0.01  -0.00   0.00
  20   6    -0.05   0.05   0.01     0.00  -0.00  -0.00    -0.02   0.02   0.01
  21   6     0.00   0.00  -0.00    -0.00  -0.00   0.00     0.00   0.00  -0.00
  22   6     0.01   0.01   0.00    -0.00  -0.01  -0.00    -0.08  -0.16  -0.05
  23   6    -0.01   0.01  -0.00    -0.00   0.01  -0.00     0.08  -0.16   0.05
  24   6     0.00   0.00   0.00    -0.00  -0.00  -0.00    -0.00  -0.01   0.00
  25   7     0.00   0.00   0.00     0.00   0.00   0.00    -0.00   0.00  -0.00
  26   6     0.00   0.00  -0.00     0.00   0.00  -0.00     0.00   0.00  -0.00
  27   6     0.02   0.05   0.01     0.00   0.01   0.00     0.00   0.00   0.00
  28   6    -0.04   0.04   0.04    -0.00   0.00   0.00    -0.00   0.00   0.00
  29   6    -0.06  -0.02   0.03    -0.00  -0.00   0.00    -0.00  -0.00   0.00
  30   6    -0.02  -0.06  -0.01    -0.00  -0.00  -0.00    -0.00  -0.00  -0.00
  31   6     0.00  -0.00  -0.00     0.00  -0.00  -0.00    -0.00  -0.00   0.00
  32   6    -0.00   0.00   0.00    -0.00  -0.00   0.00    -0.00  -0.00   0.00
  33   6    -0.05  -0.05   0.01    -0.00  -0.00   0.00    -0.00  -0.00   0.00
  34   6     0.01  -0.08  -0.03     0.00  -0.00  -0.00     0.00  -0.00  -0.00
  35   6     0.07  -0.02  -0.05     0.00  -0.00  -0.00     0.01  -0.00  -0.00
  36   6     0.05   0.05  -0.01     0.00   0.00  -0.00     0.02   0.02  -0.01
  37   6    -0.00   0.00   0.00    -0.00   0.00   0.00    -0.00   0.00   0.00
  38   6     0.01  -0.00   0.00    -0.05   0.00  -0.01     0.02   0.00   0.01
  39   1     0.00  -0.00   0.00    -0.04   0.08  -0.02    -0.01   0.01  -0.00
  40   1     0.01   0.01  -0.00     0.33   0.55  -0.03    -0.00  -0.01   0.00
  41   1    -0.01   0.01   0.00     0.33  -0.55  -0.03     0.00  -0.01  -0.00
  42   1    -0.00  -0.00  -0.00    -0.04  -0.08  -0.02     0.01   0.01   0.00
  43   1     0.03  -0.00   0.01     0.18  -0.00   0.05     0.07  -0.00   0.02
  44   1     0.06  -0.17   0.03    -0.01   0.04  -0.01     0.00  -0.00   0.00
  45   1    -0.12  -0.14   0.12     0.01   0.01  -0.01    -0.00  -0.00   0.00
  46   1    -0.20   0.07   0.10     0.01  -0.00  -0.00    -0.01   0.00   0.00
  47   1    -0.06   0.19  -0.03     0.00  -0.01   0.00    -0.00   0.00  -0.00
  48   1    -0.16   0.16   0.04     0.00  -0.00  -0.00    -0.00   0.00   0.00
  49   1     0.03   0.27  -0.11    -0.00  -0.01   0.00     0.00   0.01  -0.00
  50   1     0.22   0.07  -0.16    -0.01  -0.00   0.00     0.02   0.01  -0.01
  51   1     0.16  -0.16  -0.05    -0.01   0.01   0.00     0.06  -0.06  -0.02
  52   1    -0.03  -0.05  -0.02     0.01   0.03   0.01     0.29   0.58   0.18
  53   1     0.02  -0.05   0.02     0.01  -0.03   0.01    -0.29   0.57  -0.18
  54   1    -0.06  -0.17  -0.03    -0.01  -0.04  -0.01    -0.00  -0.00  -0.00
  55   1     0.13  -0.15  -0.13     0.01  -0.01  -0.01     0.00  -0.00  -0.00
  56   1     0.21   0.07  -0.10     0.01   0.00  -0.00     0.01   0.00  -0.00
  57   1     0.07   0.19   0.03     0.00   0.01   0.00     0.00   0.00   0.00
  58   1     0.16   0.16  -0.04     0.00   0.00  -0.00     0.00   0.00  -0.00
  59   1    -0.03   0.27   0.11    -0.00   0.01   0.00    -0.00   0.01   0.00
  60   1    -0.23   0.07   0.16    -0.00   0.00   0.00    -0.02   0.01   0.01
  61   1    -0.17  -0.17   0.05    -0.01  -0.01   0.00    -0.06  -0.06   0.02
  62   1    -0.03  -0.00  -0.01     0.18   0.00   0.05    -0.07  -0.00  -0.02
                    178                    179                    180
                        a                      a                      a 
 Frequencies --  3110.2699              3110.3250              3116.1454
 Red. masses --     1.8396                 1.8277                 1.8287
 Frc consts  --     0.0000                 0.0000                 0.0000
 IR Inten    --    42.7064                 7.0296                35.2424
 Raman Activ --     0.0000                 0.0000                 0.0000
 Depolar     --     0.0000                 0.0000                 0.0000
 Atom AN      X      Y      Z        X      Y      Z        X      Y      Z
   1   6    -0.02   0.04  -0.01     0.00  -0.01   0.00    -0.02   0.04  -0.01
   2   6     0.02   0.02   0.00     0.03   0.06  -0.00     0.09   0.15  -0.01
   3   6     0.00   0.00   0.00     0.00   0.00  -0.00     0.00   0.00   0.00
   4   6     0.00  -0.00   0.00     0.00   0.00   0.00    -0.00   0.00  -0.00
   5   6     0.04  -0.05  -0.00    -0.02   0.03   0.00    -0.09   0.15   0.01
   6   6    -0.02  -0.03  -0.01    -0.02  -0.03  -0.01     0.02   0.04   0.01
   7   6    -0.11   0.00  -0.03    -0.22   0.00  -0.06     0.05  -0.00   0.01
   8   6    -0.00   0.00  -0.00    -0.01   0.01  -0.00     0.00  -0.00   0.00
   9   7     0.00  -0.00   0.00     0.00  -0.00   0.00    -0.00   0.00  -0.00
  10   6     0.00  -0.00  -0.00     0.00  -0.00  -0.00     0.00   0.00   0.00
  11   6     0.00  -0.00   0.00     0.01  -0.02   0.00    -0.00   0.00  -0.00
  12   6     0.00   0.00  -0.00    -0.00  -0.00   0.00     0.00   0.00  -0.00
  13   6     0.00  -0.00  -0.00    -0.00   0.00   0.00     0.00  -0.00  -0.00
  14   6     0.00  -0.00   0.00     0.00  -0.00   0.00     0.00  -0.00   0.00
  15   6    -0.00  -0.00   0.00    -0.00  -0.00  -0.00    -0.00   0.00   0.00
  16   6     0.00   0.00  -0.00     0.00   0.00  -0.00     0.00   0.00  -0.00
  17   6     0.00  -0.00  -0.00    -0.00   0.00   0.00     0.00  -0.00  -0.00
  18   6    -0.00  -0.00   0.00     0.00   0.00  -0.00    -0.00  -0.00   0.00
  19   6    -0.00  -0.00   0.00     0.00   0.00  -0.00    -0.00  -0.00   0.00
  20   6    -0.00   0.00   0.00     0.00  -0.00  -0.00    -0.00   0.00   0.00
  21   6    -0.00  -0.00  -0.00    -0.00  -0.00  -0.00    -0.00  -0.00   0.00
  22   6     0.00   0.00   0.00     0.01   0.02   0.01    -0.00  -0.00  -0.00
  23   6     0.01  -0.01   0.01    -0.01   0.01  -0.00     0.00  -0.00   0.00
  24   6    -0.01  -0.01  -0.00     0.00   0.00   0.00    -0.00  -0.00  -0.00
  25   7     0.00   0.00   0.00    -0.00  -0.00  -0.00     0.00   0.00   0.00
  26   6     0.00   0.00  -0.00    -0.00  -0.00   0.00    -0.00   0.00  -0.00
  27   6     0.00   0.01   0.00    -0.00  -0.01  -0.00     0.00   0.00   0.00
  28   6    -0.00   0.00   0.00     0.00  -0.00  -0.00    -0.00   0.00   0.00
  29   6     0.00   0.00  -0.00     0.00   0.00  -0.00    -0.00  -0.00   0.00
  30   6     0.00   0.00   0.00     0.00   0.00   0.00    -0.00  -0.00  -0.00
  31   6    -0.00   0.00   0.00    -0.00   0.00   0.00     0.00   0.00  -0.00
  32   6     0.00  -0.00  -0.00     0.00   0.00  -0.00    -0.00   0.00   0.00
  33   6     0.00   0.00  -0.00     0.00   0.00  -0.00    -0.00  -0.00   0.00
  34   6    -0.00   0.00   0.00    -0.00   0.00   0.00     0.00  -0.00  -0.00
  35   6    -0.00   0.00   0.00    -0.00   0.00   0.00     0.00  -0.00  -0.00
  36   6     0.00  -0.00  -0.00    -0.00  -0.00   0.00     0.00   0.00  -0.00
  37   6    -0.00   0.00  -0.00     0.00  -0.00   0.00     0.00  -0.00  -0.00
  38   6    -0.22  -0.00  -0.06     0.11   0.00   0.03    -0.05  -0.00  -0.01
  39   1     0.06  -0.11   0.03    -0.01   0.02  -0.00     0.05  -0.10   0.03
  40   1    -0.05  -0.08   0.00    -0.13  -0.21   0.01    -0.33  -0.55   0.02
  41   1    -0.11   0.19   0.01     0.07  -0.12  -0.01     0.33  -0.55  -0.03
  42   1     0.04   0.08   0.02     0.04   0.08   0.02    -0.05  -0.10  -0.03
  43   1     0.40  -0.01   0.11     0.78  -0.01   0.22    -0.18   0.00  -0.05
  44   1    -0.01   0.02  -0.00    -0.02   0.05  -0.01     0.00  -0.01   0.00
  45   1    -0.00  -0.00   0.00     0.01   0.01  -0.01    -0.01  -0.01   0.01
  46   1    -0.01   0.00   0.00     0.00  -0.00  -0.00    -0.01   0.00   0.00
  47   1    -0.00   0.01  -0.00    -0.00   0.00  -0.00    -0.00   0.01  -0.00
  48   1    -0.00   0.00   0.00     0.00  -0.00  -0.00    -0.01   0.01   0.00
  49   1     0.00   0.01  -0.00    -0.00  -0.00   0.00     0.00   0.01  -0.00
  50   1     0.01   0.00  -0.00    -0.00  -0.00   0.00     0.01   0.00  -0.00
  51   1     0.00  -0.00  -0.00    -0.01   0.01   0.00     0.00  -0.00  -0.00
  52   1    -0.01  -0.01  -0.00    -0.04  -0.07  -0.02     0.01   0.01   0.00
  53   1    -0.03   0.05  -0.02     0.03  -0.05   0.02    -0.01   0.01  -0.00
  54   1    -0.01  -0.04  -0.01     0.01   0.03   0.01    -0.00  -0.01  -0.00
  55   1     0.00  -0.00  -0.00    -0.01   0.01   0.01     0.01  -0.01  -0.01
  56   1    -0.01  -0.00   0.00    -0.01  -0.00   0.00     0.01   0.00  -0.00
  57   1    -0.00  -0.01  -0.00    -0.00  -0.00  -0.00     0.00   0.01   0.00
  58   1    -0.00  -0.00   0.00    -0.00  -0.00   0.00     0.01   0.01  -0.00
  59   1     0.00  -0.01  -0.00     0.00  -0.01  -0.00    -0.00   0.01   0.00
  60   1     0.00  -0.00  -0.00     0.00  -0.00  -0.00    -0.01   0.00   0.00
  61   1    -0.00  -0.00  -0.00     0.01   0.01  -0.00    -0.00  -0.00   0.00
  62   1     0.78   0.01   0.22    -0.40  -0.01  -0.11     0.18   0.00   0.05
