$hessian                                                                        
        0.5298819974  -0.0001092044  -0.0000461735  -0.0662372046   0.0001027404
        0.0000710877  -0.0015771467   0.0203215303   0.0144373768  -0.0008776666
        0.0010807502   0.0010068386   0.0007060997  -0.0001427953   0.0004184602
       -0.0002799204  -0.0003494765  -0.0000576938  -0.0000007167   0.0003038258
       -0.0001189357   0.0004570559   0.0005459010   0.0002007444  -0.0011006068
        0.0000947235   0.0011035715  -0.0001675197  -0.0002699802   0.0000276146
        0.0001764867   0.0000867270   0.0000587181  -0.0000302050  -0.0000239244
       -0.0000061309   0.0000225943  -0.0000021949   0.0000039415  -0.0000118312
        0.0000128016  -0.0000146399   0.0000123588  -0.0000105438   0.0000033777
       -0.0000245423   0.0000679547  -0.0000283849  -0.0001363506  -0.0001026658
       -0.0000576125  -0.0041996799   0.0016347085   0.0008108445   0.0002759637
       -0.0000024891  -0.0000007327  -0.0041882220  -0.0015965102  -0.0008624216
       -0.0014810216  -0.0202439618  -0.0144032710  -0.0008630274  -0.0010655047
       -0.0009677563   0.0007128821   0.0001431167  -0.0004092118  -0.0002867941
        0.0003549775   0.0000591344  -0.0000088430  -0.0003120449   0.0001209594
        0.0004661939  -0.0005550850  -0.0002110973  -0.0011419968  -0.0000772079
       -0.0011393089  -0.0001651302   0.0002765137  -0.0000240960   0.0001758157
       -0.0000877096  -0.0000621608  -0.0000294403   0.0000247320   0.0000067426
        0.0000230622   0.0000017632  -0.0000042870  -0.0000123446  -0.0000135579
        0.0000141791   0.0000115584   0.0000116523  -0.0000034229  -0.0000245440
       -0.0000690055   0.0000271564  -0.0001368188   0.0001006833   0.0000592171
       -0.2030665022   0.0069679737  -0.1131324020  -0.0402634981  -0.0009903849
        0.0005751926  -0.2050395000  -0.0061149544   0.1125460665  -0.0000216378
        0.0000402403   0.0000267746  -0.0000180866   0.0000129740   0.0000110641
       -0.0006138076   0.0001582755   0.0000611809  -0.0000010963   0.0000049975
        0.0000008717  -0.0000058146  -0.0000040513   0.0000009073  -0.0000026987
       -0.0000024343   0.0000032899  -0.0000036133  -0.0000017433   0.0000013593
       -0.0001677956   0.0011161053   0.0008108075   0.0001087388  -0.0000027293
        0.0000047680  -0.0001633396  -0.0011123670  -0.0008096092  -0.0000205975
       -0.0000385271  -0.0000270215  -0.0000174754  -0.0000121858  -0.0000109206
       -0.0006309032  -0.0001558604  -0.0000686974  -0.0000010083  -0.0000050208
       -0.0000014250  -0.0000056918   0.0000041788  -0.0000000634  -0.0000026813
        0.0000025546  -0.0000033336  -0.0000034866   0.0000017188  -0.0000014365
       -0.0001092044   0.4732293340  -0.0115563862   0.0000785456  -0.1495726558
       -0.0720083194   0.0071098666  -0.0139448425  -0.0123769700  -0.0011079793
       -0.0010710813   0.0012420609   0.0001882051   0.0000956977   0.0001449238
        0.0000325462  -0.0001253317  -0.0001121948   0.0000186262  -0.0000434701
       -0.0000279882   0.0000539533  -0.0001798478  -0.0002818964   0.0001007143
       -0.0002903180   0.0002831732  -0.0000542486   0.0001666137   0.0000550798
        0.0001001144   0.0000582141  -0.0000394014   0.0000072528  -0.0000039999
        0.0000170991  -0.0000123597   0.0000004474   0.0000005420   0.0000015691
       -0.0000031067   0.0000055173   0.0000088319   0.0000259727   0.0000000235
        0.0000007118  -0.0000543935   0.0000152181   0.0000305150   0.0000832256
        0.0000641949   0.0022386350   0.0032974222  -0.0032885354  -0.0000164272
       -0.0009101364  -0.0005624273  -0.0021905514   0.0032749106  -0.0033159449
       -0.0070295055  -0.0138246898  -0.0123282788   0.0011211324  -0.0010761504
        0.0012394438  -0.0001976264   0.0000908818   0.0001418136  -0.0000263788
       -0.0001255551  -0.0001167438  -0.0000135693  -0.0000389839  -0.0000327448
       -0.0000608324  -0.0001798877  -0.0002848643  -0.0001026005  -0.0002926914
        0.0003054529   0.0000557760   0.0001674543   0.0000562565  -0.0001000730
        0.0000616235  -0.0000377214  -0.0000069802  -0.0000055242   0.0000179339
        0.0000112273   0.0000013658   0.0000005634  -0.0000014565  -0.0000025862
        0.0000050123  -0.0000083406   0.0000266393   0.0000006617  -0.0000018776
       -0.0000585023   0.0000155740  -0.0000318341   0.0000838296   0.0000648125
        0.0080130548  -0.0409774047   0.0052629164  -0.0009727100  -0.2161269015
        0.1025901198  -0.0071439878  -0.0409132036   0.0045629754  -0.0000203915
        0.0001208875  -0.0000795683   0.0000528872   0.0000403844  -0.0000116885
       -0.0002684975   0.0002359528  -0.0000140009   0.0000014377   0.0000008116
       -0.0000140543  -0.0000002531  -0.0000018333  -0.0000025476  -0.0000027001
       -0.0000031068  -0.0000041723  -0.0000087969  -0.0000033854  -0.0000047144
       -0.0000463872  -0.0005724917  -0.0002195970  -0.0000035520  -0.0004884901
        0.0009746142   0.0000483315  -0.0005698338  -0.0002186129   0.0000222261
        0.0001215026  -0.0000786009  -0.0000521237   0.0000407067  -0.0000111233
        0.0002841485   0.0002424321  -0.0000101964  -0.0000012871   0.0000018875
       -0.0000147926   0.0000002154  -0.0000015957  -0.0000026793   0.0000028415
       -0.0000028409  -0.0000042614   0.0000091668  -0.0000033557  -0.0000049556
       -0.0000461735  -0.0115563862   0.4828092427   0.0000711706  -0.0790076908
       -0.1225640024   0.0039924810  -0.0118390709  -0.0078489441  -0.0004790161
        0.0008586084  -0.0015310364  -0.0004946991   0.0000058749  -0.0002490543
        0.0000045812   0.0000525609   0.0000573142   0.0000014352  -0.0000037588
       -0.0000004068  -0.0001264121  -0.0004027687  -0.0001260730   0.0005777040
        0.0001589708  -0.0000315825   0.0000460796   0.0003315115  -0.0000108017
       -0.0000251573  -0.0000089385  -0.0000139420   0.0000290372   0.0000065545
        0.0000184667  -0.0000064680   0.0000012746  -0.0000009040   0.0000040867
        0.0000143381  -0.0000032260   0.0000019426   0.0000044614   0.0000047139
        0.0000198298  -0.0000161918   0.0000047279  -0.0000077781  -0.0000047891
        0.0000162486   0.0016503069  -0.0030347652   0.0043831821  -0.0000024248
       -0.0002656172  -0.0004135775  -0.0016950059  -0.0030531116   0.0043710098
       -0.0039661515  -0.0118881871  -0.0079281211   0.0004908302   0.0008626526
       -0.0015393483   0.0004911976   0.0000069721  -0.0002372301  -0.0000043303
        0.0000469966   0.0000583085   0.0000017063   0.0000023817  -0.0000016576
        0.0001179184  -0.0004092896  -0.0001201639  -0.0005715364   0.0001680728
       -0.0000473764  -0.0000475941   0.0003351049  -0.0000101245   0.0000293539
       -0.0000105762  -0.0000145111  -0.0000297958   0.0000065888   0.0000194262
        0.0000059724   0.0000011494  -0.0000008278  -0.0000036294   0.0000151008
       -0.0000030614  -0.0000015412   0.0000040750   0.0000049552  -0.0000210508
       -0.0000167196   0.0000050045   0.0000049902  -0.0000040101   0.0000173671
       -0.1128857064   0.0057539524  -0.1241932976   0.0005898717   0.1082219338
       -0.1003804116   0.1123068798   0.0050742841  -0.1223815524   0.0000236788
       -0.0000260758  -0.0000070614   0.0000066049   0.0000086888   0.0000167054
        0.0005869571  -0.0001248534  -0.0002111297   0.0000012957   0.0000081312
       -0.0000123346   0.0000057090   0.0000050061  -0.0000010721  -0.0000018054
       -0.0000019827  -0.0000014306  -0.0000045820   0.0000011727  -0.0000029547
       -0.0000569728  -0.0004597474  -0.0003473955   0.0000042652   0.0007797290
       -0.0009659573   0.0000599089  -0.0004648406  -0.0003497294  -0.0000234795
       -0.0000266966  -0.0000082832  -0.0000068210   0.0000083334   0.0000163700
       -0.0006172105  -0.0001316579  -0.0002266780  -0.0000012027   0.0000085358
       -0.0000122494  -0.0000057641   0.0000053851  -0.0000014430   0.0000017930
       -0.0000018972  -0.0000012422   0.0000047208   0.0000012207  -0.0000028471
       -0.0662372046   0.0000785456   0.0000711706   0.6266446103  -0.0006179490
        0.0011374235  -0.2364105519   0.0465316805   0.0347006449  -0.0369836888
        0.0043627350   0.0019834257  -0.0003789998  -0.0025384990   0.0005863969
       -0.0008993809  -0.0004053912  -0.0014428786   0.0008048259   0.0004250995
        0.0002106511  -0.0005447268  -0.0004807418  -0.0010831318   0.0004443720
        0.0035070098   0.0005303448   0.0001225122   0.0002109462  -0.0000087534
       -0.0000559373  -0.0000333337  -0.0000597089   0.0000108649   0.0000456524
       -0.0000201401  -0.0000281703   0.0000087485  -0.0000124457   0.0000443288
       -0.0000181987   0.0000140279   0.0000295914   0.0000078160   0.0000085349
       -0.0000122316   0.0000688830  -0.0000264715  -0.0001985411  -0.0000160247
        0.0001189750   0.0268726021   0.0636139611   0.0477626861  -0.0647190855
        0.0000184322  -0.0001962994   0.0271919369  -0.0634949917  -0.0474949142
       -0.2358209565  -0.0461911501  -0.0357242021  -0.0370573424  -0.0043436237
       -0.0022012088  -0.0003623296   0.0025739309  -0.0005632629  -0.0009334626
        0.0004012278   0.0014420654   0.0008179270  -0.0004309979  -0.0002062003
       -0.0005741365   0.0004656919   0.0010861083   0.0004784757  -0.0035421653
       -0.0005688561   0.0001247093  -0.0002151587   0.0000075378  -0.0000577704
        0.0000342964   0.0000599000   0.0000101856  -0.0000461124   0.0000199402
       -0.0000273607  -0.0000084375   0.0000121558   0.0000445723   0.0000165704
       -0.0000131727   0.0000289956  -0.0000066314  -0.0000064478  -0.0000099686
       -0.0000727750   0.0000247201  -0.0002034765   0.0000223448  -0.0001224760
       -0.0017118567  -0.0194239713  -0.0166656909   0.0010922086  -0.0001115989
       -0.0000854601  -0.0017676712   0.0195576849   0.0167527471  -0.0001523991
        0.0002718196   0.0002887631  -0.0001884651  -0.0001114404  -0.0000387490
       -0.0000236734  -0.0000749508   0.0004386667   0.0000091588  -0.0000066352
       -0.0000001355   0.0000044916  -0.0000093028   0.0000077057  -0.0000010726
       -0.0000067638   0.0000006914   0.0000223734   0.0000061233   0.0000009341
        0.0007712309  -0.0002899930  -0.0005013033  -0.0006504337   0.0000027233
       -0.0000059574   0.0007674538   0.0003270439   0.0004865899  -0.0001498176
       -0.0002699959  -0.0002948798  -0.0001916982   0.0001109382   0.0000371443
       -0.0000200660   0.0000805342  -0.0004381665   0.0000091934   0.0000065753
        0.0000004155   0.0000046118   0.0000095050  -0.0000079522  -0.0000010139
        0.0000066393  -0.0000003825   0.0000222573  -0.0000063249  -0.0000011197
        0.0001027404  -0.1495726558  -0.0790076908  -0.0006179490   0.4391341500
        0.2249813229   0.0976140909  -0.1106548377  -0.0433727371  -0.0026206298
        0.0074682663   0.0047875464  -0.0026560032  -0.0003435070  -0.0009181643
        0.0002583152   0.0004936549  -0.0003899760   0.0002185712  -0.0001551473
        0.0001995852   0.0003278333   0.0001781889  -0.0004423465  -0.0011082483
       -0.0012539681  -0.0020462424  -0.0001110785  -0.0006321246   0.0000465996
        0.0000346834   0.0000152136   0.0001254715  -0.0000036583   0.0000211385
       -0.0000544513  -0.0000102755  -0.0000151064  -0.0000099980   0.0000111659
        0.0000058288  -0.0000069449   0.0000039951  -0.0000585369   0.0000098653
       -0.0000207443   0.0001826795  -0.0000697852  -0.0001617025  -0.0001859574
        0.0000370934   0.0201427631  -0.0220409663  -0.0163805246   0.0000513498
        0.0019048363   0.0046513668  -0.0201130719  -0.0219067667  -0.0164227127
       -0.0971552087  -0.1106070755  -0.0439821183   0.0025218084   0.0074711786
        0.0048376843   0.0027003496  -0.0003370341  -0.0009158680  -0.0002704974
        0.0005161799  -0.0003806555  -0.0002294880  -0.0001727894   0.0002016989
       -0.0003114351   0.0001942468  -0.0004488700   0.0011012134  -0.0012270907
       -0.0020543104   0.0001063733  -0.0006407505   0.0000424893  -0.0000370035
        0.0000142588   0.0001257043   0.0000036805   0.0000228570  -0.0000544754
        0.0000107386  -0.0000154548  -0.0000104921  -0.0000111570   0.0000067274
       -0.0000063788  -0.0000036413  -0.0000608366   0.0000090116   0.0000232208
        0.0001912613  -0.0000683815   0.0001637170  -0.0001903451   0.0000363173
       -0.0047198409  -0.0031275504  -0.0029980572  -0.0000136321  -0.0282997643
       -0.0167102704   0.0047375662  -0.0032325308  -0.0030119852   0.0001134761
       -0.0001556885   0.0002915915  -0.0001726705  -0.0000352720  -0.0000582034
       -0.0003459522  -0.0002229368   0.0005932728   0.0000025651  -0.0000236790
        0.0000345635  -0.0000035840  -0.0000086461   0.0000123728  -0.0000042608
       -0.0000059971   0.0000075439   0.0000015530   0.0000029401   0.0000052742
        0.0002931352  -0.0013225196  -0.0062715510  -0.0000003712   0.0004793547
        0.0004371474  -0.0002564928  -0.0013213569  -0.0062737961  -0.0001170706
       -0.0001610314   0.0002875917   0.0001739032  -0.0000347290  -0.0000560351
        0.0003541984  -0.0002416518   0.0006010459  -0.0000031170  -0.0000254377
        0.0000347248   0.0000035196  -0.0000095658   0.0000135304   0.0000043040
       -0.0000066079   0.0000072294  -0.0000020464   0.0000029548   0.0000053772
        0.0000710877  -0.0720083194  -0.1225640024   0.0011374235   0.2249813229
        0.3168284170   0.0759380898  -0.0428577081  -0.0800078792  -0.0063735422
        0.0024223097   0.0029871912  -0.0019866714  -0.0008384313  -0.0006154164
       -0.0002114140   0.0000078514  -0.0004802855   0.0004202937  -0.0000991413
        0.0002537635  -0.0004985960   0.0000624731  -0.0003963184   0.0000386597
        0.0006172564  -0.0008446465   0.0000082052  -0.0003447534  -0.0000371585
       -0.0000590583  -0.0000447670   0.0000604648   0.0000103731   0.0000321778
       -0.0000461682  -0.0000216355  -0.0000149966  -0.0000083759   0.0000147433
       -0.0000165872   0.0000057826   0.0000152019  -0.0000125299   0.0000031877
       -0.0000059951   0.0000714250  -0.0000117292  -0.0001534934  -0.0000913847
       -0.0000228120   0.0146723571  -0.0169569286  -0.0117444933  -0.0001760308
        0.0047554753  -0.0013946221  -0.0144599576  -0.0173109923  -0.0121360922
       -0.0769129031  -0.0431114491  -0.0806828193   0.0061186998   0.0024019512
        0.0030007975   0.0020206335  -0.0008154916  -0.0005865527   0.0002083827
        0.0000227310  -0.0004629546  -0.0004246976  -0.0001107594   0.0002514256
        0.0005109510   0.0000709714  -0.0003884003  -0.0000495760   0.0006071706
       -0.0008622601  -0.0000108320  -0.0003455949  -0.0000393331   0.0000583593
       -0.0000469404   0.0000601003  -0.0000101740   0.0000338963  -0.0000458675
        0.0000220526  -0.0000158445  -0.0000089991  -0.0000149954  -0.0000163373
        0.0000055838  -0.0000146145  -0.0000138458   0.0000027377   0.0000061950
        0.0000755066  -0.0000113825   0.0001546013  -0.0000928402  -0.0000224930
       -0.0042801799  -0.0168693963  -0.0136449958  -0.0000261329   0.0050633907
        0.0094816660   0.0042895377  -0.0167049706  -0.0134524192   0.0000370536
       -0.0000809340   0.0002015994  -0.0001592273  -0.0000085379  -0.0000426805
       -0.0000379996   0.0000183984   0.0004232008  -0.0000017738  -0.0000171836
        0.0000282189  -0.0000026485  -0.0000025672   0.0000076040   0.0000007419
       -0.0000021849   0.0000051701   0.0000031123   0.0000016105   0.0000055915
        0.0001341211  -0.0063257892   0.0030447521  -0.0000024522   0.0003632316
        0.0002458106  -0.0001571560  -0.0063217190   0.0030297505  -0.0000403396
       -0.0000876547   0.0001988194   0.0001581674  -0.0000083624  -0.0000429753
        0.0000428036   0.0000085644   0.0004246641   0.0000015631  -0.0000186669
        0.0000283425   0.0000027595  -0.0000031306   0.0000085995  -0.0000007405
       -0.0000024722   0.0000051878  -0.0000033334   0.0000014981   0.0000057038
       -0.0015771467   0.0071098666   0.0039924810  -0.2364105519   0.0976140909
        0.0759380898   0.6154284045  -0.0093699068   0.0005356091  -0.1869248727
       -0.0518141346  -0.0374801666  -0.0319429684  -0.0002146368  -0.0103991209
        0.0007682369   0.0027946277  -0.0034573095  -0.0021999581  -0.0004064611
       -0.0006909243   0.0042935059  -0.0021518827  -0.0012280526  -0.0117485166
       -0.0178505008  -0.0042158416   0.0000964039   0.0008958187  -0.0000306931
       -0.0003700530  -0.0001440062   0.0000260337   0.0000268334  -0.0000079045
        0.0000083552   0.0000579947   0.0000014218   0.0000059979  -0.0000243438
        0.0000587111  -0.0000502845  -0.0000549866  -0.0000397416  -0.0000248883
        0.0000793896  -0.0000611322   0.0000610124   0.0007091182   0.0004752446
        0.0006201911  -0.0883962400  -0.0217799777  -0.0220351333   0.0254758423
       -0.0206435580  -0.0151286357  -0.0121639316   0.0232218725   0.0168870712
       -0.0658691802  -0.0216707837  -0.0165175873  -0.0018474936  -0.0031088164
       -0.0022604831  -0.0013292884   0.0001018061   0.0004097902   0.0000721458
       -0.0001336548   0.0003129737  -0.0002148990   0.0000310497   0.0000402170
        0.0002827427   0.0003196972   0.0000364589   0.0000397476   0.0005017784
        0.0003587150   0.0001233316  -0.0002579157   0.0000179954  -0.0001259191
        0.0000563752   0.0000085438   0.0000216698  -0.0000173099  -0.0000028396
        0.0000172982   0.0000104506  -0.0000085208  -0.0000086101   0.0000029825
        0.0000039505  -0.0000059451  -0.0000070336   0.0000125824   0.0000364651
        0.0000487961  -0.0000321845   0.0001493648  -0.0001042605  -0.0000581495
       -0.0001301241  -0.0011928016  -0.0010259527  -0.0002613924  -0.0010597495
       -0.0001098237   0.0001609494  -0.0004484352  -0.0003040164   0.0004011214
       -0.0005404041   0.0012274578  -0.0006071394  -0.0003010875  -0.0002981780
        0.0002588191   0.0014311344   0.0010522693  -0.0000052121   0.0000207425
       -0.0000159228   0.0000101765   0.0000236450  -0.0000050384   0.0000133549
        0.0000144673   0.0000026978   0.0000055992  -0.0000107711  -0.0000028759
       -0.0025383019   0.0207595681   0.0152977739  -0.0041159618  -0.0029676883
       -0.0015917069   0.0004637293   0.0004671451   0.0003909929   0.0000046320
        0.0001597806  -0.0001285337  -0.0000274189   0.0000409646   0.0000022579
       -0.0001216205   0.0001514952  -0.0001504042  -0.0000059672   0.0000068565
        0.0000018676   0.0000051232  -0.0000121590   0.0000054674   0.0000149224
       -0.0000076055  -0.0000003136   0.0000111208   0.0000039307  -0.0000032715
        0.0203215303  -0.0139448425  -0.0118390709   0.0465316805  -0.1106548377
       -0.0428577081  -0.0093699068   0.4767440838   0.2267079028  -0.0517825988
       -0.0847618431  -0.0180322486   0.0087732048   0.0088418647   0.0031222906
        0.0028881883  -0.0003007085   0.0035642370  -0.0009584664  -0.0007461608
       -0.0000574107  -0.0004967207  -0.0035785754   0.0035060433  -0.0270349833
       -0.0173715155  -0.0072525233  -0.0012533509  -0.0003876167  -0.0003413638
        0.0000043746  -0.0002529250  -0.0000012645  -0.0001495901  -0.0000822019
        0.0000287158   0.0000323617   0.0000068101   0.0000245978  -0.0000126997
        0.0000333853  -0.0000098344  -0.0000215590   0.0000339841  -0.0000044689
        0.0000332927  -0.0000254842  -0.0000037443   0.0003845253  -0.0000868459
       -0.0001554312   0.0312397860  -0.2226717610  -0.1241959811  -0.0681574593
       -0.0242398516  -0.0168612692   0.0256887794  -0.0323331876  -0.0198727931
        0.0216208829   0.0351487073   0.0259818491  -0.0032307483   0.0024035960
       -0.0039306193   0.0009031602   0.0000860453  -0.0002096202   0.0001097567
        0.0002711793   0.0003148971   0.0002822281  -0.0000198621  -0.0000822357
       -0.0002116656   0.0000280086   0.0003495871  -0.0004771488  -0.0003306835
        0.0001861827  -0.0000468217   0.0001783330   0.0000268873   0.0000027923
        0.0000083623  -0.0000181664   0.0000105751  -0.0000005394   0.0000154211
       -0.0000215706   0.0000190849   0.0000028431   0.0000040526   0.0000095300
       -0.0000009252   0.0000046014   0.0000045276  -0.0000023550  -0.0000119620
       -0.0000183946  -0.0000063203  -0.0001504210   0.0000384638  -0.0000098520
        0.0007977465   0.0004056331   0.0002398368   0.0007744638  -0.0009823857
       -0.0009435948  -0.0002067972  -0.0025859975  -0.0025986761   0.0014259153
        0.0002231126  -0.0005280484   0.0009662325   0.0002046797   0.0002010592
       -0.0002851404   0.0004290262  -0.0011893796  -0.0000097975   0.0000318832
       -0.0000257484  -0.0000066177  -0.0000100713  -0.0000123257  -0.0000054213
        0.0000050944  -0.0000068706  -0.0000204445  -0.0000039381  -0.0000069700
        0.0029728597  -0.0115307427  -0.0088720093  -0.0022769558   0.0023205377
       -0.0040133017   0.0005421825  -0.0001476391  -0.0001142410  -0.0000746909
       -0.0001520794  -0.0000825061   0.0000091800  -0.0000560796  -0.0000166191
       -0.0000492110  -0.0002054547  -0.0001027873   0.0000002698   0.0000024661
       -0.0000078438  -0.0000005055  -0.0000002187  -0.0000034615  -0.0000006615
        0.0000046722  -0.0000016474  -0.0000007070  -0.0000006274  -0.0000011140
        0.0144373768  -0.0123769700  -0.0078489441   0.0347006449  -0.0433727371
       -0.0800078792   0.0005356091   0.2267079028   0.2990456139  -0.0393995849
       -0.0160306050  -0.0673488884  -0.0175557334  -0.0022851318  -0.0040444770
       -0.0028391036   0.0037681915   0.0041592146  -0.0005828180  -0.0002765187
       -0.0002397351  -0.0016009887   0.0028052503   0.0054171161   0.0036363666
       -0.0015895883   0.0017688555   0.0005157879   0.0004508698  -0.0000251195
       -0.0000585667   0.0000133527  -0.0000970584   0.0000133858   0.0000425368
        0.0000775402   0.0000456578   0.0000148323   0.0000222670  -0.0000272150
        0.0000689195  -0.0000134252  -0.0000663447  -0.0000610017   0.0000335754
        0.0000901528   0.0001237181  -0.0000963957   0.0005232111  -0.0003459241
       -0.0007073121   0.0194993071  -0.1237916288  -0.1358733124  -0.0477861418
       -0.0179834686  -0.0117257454   0.0178837903  -0.0192721452  -0.0191371333
        0.0160555257   0.0258525829   0.0182544259  -0.0024286108  -0.0035190472
        0.0045821271  -0.0007357776   0.0006105025   0.0002215122  -0.0003297960
       -0.0001642488   0.0000395370   0.0001087798  -0.0000874817   0.0000055551
       -0.0001137421  -0.0003429079  -0.0001652737   0.0005324133  -0.0006694482
       -0.0002926511   0.0000563928   0.0001106624   0.0000077566  -0.0000069386
       -0.0000090012  -0.0000076338   0.0000126750  -0.0000034300   0.0000035976
       -0.0000108839   0.0000124155   0.0000010635  -0.0000021475   0.0000020404
        0.0000006558  -0.0000021937   0.0000102985  -0.0000039658  -0.0000019993
       -0.0000096827   0.0000015369  -0.0000129240   0.0000288692   0.0000335670
        0.0012056254  -0.0001621094   0.0005919743   0.0011871410  -0.0002751135
       -0.0005066624   0.0006054003  -0.0031380666  -0.0023984256   0.0007277243
       -0.0012222350  -0.0015382107  -0.0004664637  -0.0002305378  -0.0002366727
        0.0012324758  -0.0005754993  -0.0016383572   0.0000019875  -0.0000050292
       -0.0000005922   0.0000130882  -0.0000038601  -0.0000243079   0.0000036986
        0.0000015658  -0.0000050194   0.0000039537   0.0000002597   0.0000040233
        0.0019075877  -0.0087679710  -0.0051899454  -0.0018303522  -0.0039413261
        0.0049536486   0.0003499711  -0.0000765168  -0.0001000350  -0.0000337370
        0.0000031090   0.0000420267  -0.0001032021   0.0000000021   0.0000271475
        0.0001073982  -0.0000449844  -0.0000109230  -0.0000001455   0.0000042889
       -0.0000072540   0.0000014628  -0.0000006727  -0.0000003847   0.0000010120
        0.0000028940  -0.0000010907  -0.0000001926  -0.0000001756  -0.0000015067
       -0.0008776666  -0.0011079793  -0.0004790161  -0.0369836888  -0.0026206298
       -0.0063735422  -0.1869248727  -0.0517825988  -0.0393995849   0.5586045743
        0.0480612520   0.1573086362  -0.1760494968   0.1118951862  -0.0949697817
       -0.0535544541  -0.0069929957  -0.0204187807   0.0013281115   0.0175674808
       -0.0036274841  -0.0039435499  -0.0295189897   0.0103348003  -0.0941430012
       -0.0821622984   0.0108246840  -0.0036696856  -0.0005240563  -0.0036847619
       -0.0010936814  -0.0021885672  -0.0005682277  -0.0003500738  -0.0002214736
       -0.0000093831   0.0002570331  -0.0000759269   0.0002777680  -0.0000619379
        0.0004055674  -0.0002224998  -0.0003530184  -0.0004638503   0.0001480537
        0.0004708386   0.0006003159  -0.0000391214  -0.0014069069  -0.0011807522
       -0.0002909742  -0.0056182195  -0.0166681781  -0.0066206658   0.0028448279
        0.0005751626   0.0006848851  -0.0013013864  -0.0003564260  -0.0002289714
       -0.0018952483   0.0032305375   0.0023703220  -0.0010221950  -0.0003956800
       -0.0001916822  -0.0000468781  -0.0000224344  -0.0000293993  -0.0000273118
        0.0000204026   0.0000974237  -0.0001484508  -0.0000119011   0.0000765028
        0.0000177116   0.0002435143  -0.0000706358   0.0001181950  -0.0000125105
       -0.0000306045   0.0001121562  -0.0002551134   0.0000549196  -0.0000925056
        0.0000441448   0.0000206720   0.0000233718  -0.0000062322  -0.0000083643
       -0.0000007305   0.0000133165  -0.0000091658  -0.0000204946   0.0000085732
       -0.0000000034  -0.0000102016  -0.0000201870   0.0000121061   0.0000286015
        0.0000778486  -0.0000430048   0.0001077135  -0.0000891939  -0.0000258517
        0.0001275435   0.0004276563   0.0008713770   0.0000844299  -0.0001709603
        0.0000912210  -0.0003139988  -0.0001967506  -0.0002835701   0.0038670563
       -0.0023190492   0.0027168435  -0.0036136509  -0.0028059920  -0.0036814756
        0.0043497857   0.0171435351  -0.0050283264  -0.0000266761  -0.0000189876
       -0.0000349753  -0.0000034131   0.0000036056  -0.0000010214   0.0000159174
       -0.0000041672  -0.0000113076   0.0000460481   0.0000201889   0.0000137448
        0.0007582610   0.0014118069   0.0004819664   0.0002383066   0.0003690250
       -0.0000491343   0.0001943963   0.0001193844   0.0000313354  -0.0000243741
        0.0000257406   0.0000026014   0.0000218832  -0.0000101725  -0.0000051674
       -0.0000299198  -0.0000371095   0.0000074169  -0.0000079846  -0.0000029304
        0.0000050281  -0.0000015929  -0.0000155865   0.0000055332   0.0000067812
       -0.0000091507  -0.0000002380  -0.0000062778   0.0000045857  -0.0000011181
        0.0010807502  -0.0010710813   0.0008586084   0.0043627350   0.0074682663
        0.0024223097  -0.0518141346  -0.0847618431  -0.0160306050   0.0480612520
        0.6018498511  -0.1174425579   0.0525703609  -0.1629487798   0.0577029092
        0.0440530022   0.0481746529   0.0019864582   0.0196178351  -0.0470789336
        0.0230813111  -0.0789936510  -0.0176725823  -0.0295430083  -0.0269170780
       -0.2881115040   0.0764308362   0.0021773327   0.0023988096   0.0017853738
       -0.0032782434  -0.0025128418   0.0003255429   0.0011623156   0.0019086640
       -0.0003749492  -0.0021317932  -0.0004889506  -0.0006199158   0.0009479313
       -0.0017946654   0.0011450679   0.0011192934   0.0019175713  -0.0002904915
       -0.0002585030  -0.0016425483   0.0006668803  -0.0042258038   0.0006643467
       -0.0022055650  -0.0239038212  -0.0177626138  -0.0118948295   0.0007751984
       -0.0011094198  -0.0059311540  -0.0003010293  -0.0004869181  -0.0002133548
        0.0031250249   0.0023812284  -0.0035045931   0.0003934774   0.0001778655
        0.0003914246   0.0001427178  -0.0001028716  -0.0000339440   0.0000156486
       -0.0000159914  -0.0000665176  -0.0000937516   0.0000073390   0.0000442127
        0.0000099436   0.0001024934  -0.0000884061   0.0001120728   0.0000661784
       -0.0000823421   0.0000388503  -0.0001352429   0.0000197818  -0.0000408363
        0.0000137820   0.0000168406   0.0000152283   0.0000003784  -0.0000113132
       -0.0000025338   0.0000020903  -0.0000008114  -0.0000011584  -0.0000080373
        0.0000019632   0.0000023307  -0.0000136637  -0.0000007465   0.0000171976
        0.0000500241  -0.0000241214   0.0000603564  -0.0000459895   0.0000004833
        0.0014173374   0.0001476473  -0.0009032165   0.0001893133  -0.0005091935
       -0.0000573084   0.0000700999  -0.0000213822   0.0001030869   0.0171800724
       -0.0195338803   0.0140568422  -0.0033650052   0.0008049695   0.0012019994
       -0.0015613506  -0.0183751859   0.0053606753  -0.0000074489  -0.0000574415
        0.0000409706  -0.0000142260  -0.0000205252  -0.0000167603   0.0000195708
       -0.0000250523  -0.0000154028   0.0000630670   0.0000170488   0.0000080023
       -0.0010334371  -0.0008055738   0.0013147851  -0.0009211173  -0.0005156809
       -0.0004570674   0.0000469983  -0.0004899955   0.0007891270   0.0000013609
       -0.0000220133   0.0000181033   0.0000225933  -0.0000095354  -0.0000034524
       -0.0000056191   0.0000109990   0.0000285470  -0.0000030131  -0.0000053242
        0.0000049844   0.0000037904  -0.0000082452   0.0000029874   0.0000023629
       -0.0000016356   0.0000008048  -0.0000038668   0.0000009374   0.0000015143
        0.0010068386   0.0012420609  -0.0015310364   0.0019834257   0.0047875464
        0.0029871912  -0.0374801666  -0.0180322486  -0.0673488884   0.1573086362
       -0.1174425579   0.2457818418  -0.0712039031   0.0836797061  -0.1063660394
       -0.0384907883  -0.0186784609  -0.0086567612  -0.0046579826   0.0223125659
       -0.0137038998   0.0270461842  -0.0072589318   0.0116329856  -0.0119818776
        0.0493447984  -0.0641654588  -0.0043195948   0.0012926357   0.0030846359