 Entering Gaussian System
 *********************************************
 Gaussian 98:
 frequency output generated by the xtb code
 *********************************************
                         Standard orientation:
 --------------------------------------------------------------------
  Center     Atomic     Atomic              Coordinates (Angstroms)
  Number     Number      Type              X           Y           Z
 --------------------------------------------------------------------
    1          6             0       -7.438458    4.998095   -1.868173
    2          6             0       -7.562413    4.351672   -0.480313
    3          6             0       -9.028509    3.961919   -0.267121
    4          6             0       -7.180487    5.371360    0.603393
    5          6             0       -6.621187    3.157282   -0.396852
    6          6             0       -5.244614    3.367355   -0.558471
    7          6             0       -4.315440    2.349435   -0.484397
    8          6             0       -4.773666    1.065639   -0.230246
    9          6             0       -6.156707    0.820899   -0.097596
   10          6             0       -7.069510    1.865286   -0.175795
   11          6             0       -6.302613   -0.595552    0.097785
   12          6             0       -7.406230   -1.414135    0.302711
   13          6             0       -7.229916   -2.775541    0.488319
   14          6             0       -8.393249   -3.732612    0.711115
   15          6             0       -9.750995   -3.023348    0.692575
   16          6             0       -8.395008   -4.791520   -0.401655
   17          6             0       -8.231518   -4.414841    2.077842
   18          6             0       -5.924417   -3.286269    0.479650
   19          6             0       -4.810222   -2.496994    0.278186
   20          6             0       -5.001417   -1.139930    0.067341
   21          7             0       -4.081660   -0.126823   -0.129815
   22          6             0       -2.692403   -0.277941   -0.206910
   23          6             0       -1.852915    0.538331    0.548064
   24          6             0       -0.482902    0.397619    0.459090
   25          6             0        0.085786   -0.570952   -0.366779
   26          6             0        1.544330   -0.720375   -0.456863
   27          6             0        2.132771   -1.984596   -0.499371
   28          6             0        3.502207   -2.123318   -0.579380
   29          6             0        4.326628   -0.998334   -0.620582
   30          6             0        5.761297   -1.195191   -0.725027
   31          7             0        6.321910   -2.180925   -1.379365
   32          7             0        7.648881   -2.043282   -1.297308
   33          6             0        7.911892   -0.975130   -0.588064
   34          6             0        9.253345   -0.527083   -0.253117
   35          6             0        9.555572    0.055487    0.976037
   36          6             0       10.851500    0.449722    1.255534
   37          6             0       11.856720    0.262749    0.321108
   38          6             0       11.565753   -0.335953   -0.894905
   39          6             0       10.273389   -0.731211   -1.182172
   40          7             0        6.735284   -0.383510   -0.191126
   41          6             0        6.568469    0.785817    0.575877
   42          6             0        5.822680    0.744138    1.748916
   43          6             0        5.660066    1.898160    2.494142
   44          6             0        6.241069    3.085452    2.078394
   45          6             0        6.986318    3.121915    0.910838
   46          6             0        7.151087    1.975983    0.153944
   47          6             0        3.743204    0.267317   -0.602340
   48          6             0        2.372006    0.399835   -0.514482
   49          6             0       -0.761859   -1.392062   -1.109074
   50          6             0       -2.132184   -1.243555   -1.040364
   51          1             0       -8.121988    5.840791   -1.951449
   52          1             0       -6.429753    5.359117   -2.049467
   53          1             0       -7.685695    4.275123   -2.643341
   54          1             0       -9.175025    3.512005    0.712382
   55          1             0       -9.652084    4.852142   -0.324652
   56          1             0       -9.364641    3.267237   -1.033669
   57          1             0       -7.858126    6.222314    0.572433
   58          1             0       -6.167459    5.738846    0.464354
   59          1             0       -7.244987    4.914241    1.589126
   60          1             0       -4.881332    4.365077   -0.753670
   61          1             0       -3.265237    2.553148   -0.631848
   62          1             0       -8.117681    1.642319   -0.065355
   63          1             0       -8.385056   -0.964371    0.317288
   64          1             0      -10.543323   -3.753265    0.847840
   65          1             0       -9.816876   -2.282975    1.486777
   66          1             0       -9.925443   -2.537406   -0.264853
   67          1             0       -9.231255   -5.474934   -0.267717
   68          1             0       -7.477177   -5.373080   -0.398018
   69          1             0       -8.491638   -4.313790   -1.374919
   70          1             0       -9.071239   -5.081009    2.265892
   71          1             0       -7.316920   -4.999637    2.124403
   72          1             0       -8.198672   -3.667976    2.868992
   73          1             0       -5.768519   -4.342381    0.640380
   74          1             0       -3.821059   -2.929797    0.297399
   75          1             0       -2.282934    1.271688    1.213929
   76          1             0        0.156373    1.026946    1.060605
   77          1             0        1.509912   -2.865221   -0.448499
   78          1             0        3.959306   -3.100650   -0.610259
   79          1             0        8.785085    0.184702    1.722007
   80          1             0       11.076030    0.900860    2.210900
   81          1             0       12.866495    0.574330    0.543411
   82          1             0       12.348794   -0.494502   -1.621570
   83          1             0       10.030703   -1.203295   -2.122031
   84          1             0        5.376475   -0.187614    2.065442
   85          1             0        5.079805    1.866308    3.403788
   86          1             0        6.113000    3.982749    2.664330
   87          1             0        7.439316    4.045229    0.583004
   88          1             0        7.727763    1.993475   -0.759537
   89          1             0        4.358150    1.152202   -0.677277
   90          1             0        1.934061    1.387027   -0.517480
   91          1             0       -0.339913   -2.132353   -1.772609
   92          1             0       -2.777279   -1.863204   -1.645106
 --------------------------------------------------------------------
     1 basis functions        1 primitive gaussians
     1 alpha electrons        1 beta electrons
 
 Harmonic frequencies (cm**-1), IR intensities (km*mol⁻¹),
 Raman scattering activities (A**4/amu), Raman depolarization ratios,
 reduced masses (AMU), force constants (mDyne/A) and normal coordinates:
                      1                      2                      3
                        a                      a                      a 
 Frequencies --     3.9476                 9.3982                11.9070
 Red. masses --    10.8510                10.9570                10.8138
 Frc consts  --     0.0000                 0.0000                 0.0000
 IR Inten    --     0.4562                 0.9282                 0.2401
 Raman Activ --     0.0000                 0.0000                 0.0000
 Depolar     --     0.0000                 0.0000                 0.0000
 Atom AN      X      Y      Z        X      Y      Z        X      Y      Z
   1   6     0.09   0.03   0.00    -0.06   0.05   0.17     0.21   0.05   0.02
   2   6     0.01   0.00  -0.02     0.00   0.01   0.16     0.18   0.05   0.02
   3   6    -0.01  -0.00  -0.11     0.01   0.01   0.22     0.17   0.10   0.02
   4   6    -0.05  -0.02   0.03     0.05  -0.01   0.17     0.22   0.02   0.02
   5   6     0.00   0.00   0.01     0.00   0.01   0.09     0.14   0.01   0.01
   6   6     0.01   0.00   0.08    -0.00   0.01   0.05     0.15  -0.04   0.01
   7   6     0.01  -0.00   0.10    -0.00   0.01  -0.01     0.11  -0.08   0.01
   8   6    -0.01  -0.00   0.06     0.00   0.00  -0.02     0.06  -0.06   0.01
   9   6    -0.01  -0.00   0.00     0.01   0.00   0.02     0.05  -0.01   0.01
  10   6    -0.01  -0.00  -0.03     0.01   0.00   0.07     0.09   0.03   0.01
  11   6    -0.02  -0.01  -0.03     0.01  -0.00  -0.01    -0.00  -0.00   0.00
  12   6    -0.03  -0.01  -0.08     0.01  -0.01  -0.00    -0.03   0.04   0.00
  13   6    -0.04  -0.01  -0.10     0.01  -0.01  -0.04    -0.08   0.03  -0.00
  14   6    -0.05  -0.01  -0.16     0.02  -0.01  -0.04    -0.12   0.07  -0.00
  15   6    -0.05  -0.01  -0.21     0.02  -0.01   0.01    -0.09   0.13  -0.00
  16   6    -0.01   0.01  -0.18    -0.01   0.02  -0.06    -0.16   0.08  -0.01
  17   6    -0.11  -0.04  -0.17     0.04  -0.05  -0.06    -0.15   0.07  -0.01
  18   6    -0.04  -0.01  -0.05     0.01  -0.01  -0.08    -0.10  -0.02  -0.00
  19   6    -0.03  -0.01   0.01     0.01  -0.01  -0.08    -0.07  -0.06   0.00
  20   6    -0.02  -0.01   0.02     0.01  -0.01  -0.05    -0.02  -0.05   0.01
  21   7    -0.01  -0.01   0.08     0.00  -0.00  -0.06     0.02  -0.09   0.01
  22   6    -0.01  -0.01   0.10     0.00  -0.00  -0.07     0.01  -0.12   0.02
  23   6    -0.02  -0.03   0.13     0.01   0.00  -0.08     0.02  -0.13   0.03
  24   6    -0.02  -0.03   0.15     0.01   0.00  -0.08     0.02  -0.14   0.02
  25   6    -0.01  -0.02   0.15     0.00  -0.01  -0.07     0.01  -0.14   0.01
  26   6    -0.01  -0.02   0.16     0.00  -0.02  -0.06     0.01  -0.13  -0.01
  27   6    -0.01  -0.02   0.16    -0.00  -0.02  -0.01     0.04  -0.11  -0.00
  28   6    -0.01  -0.02   0.16    -0.00  -0.03   0.03     0.04  -0.09  -0.01
  29   6    -0.01  -0.02   0.14     0.00  -0.03  -0.00     0.01  -0.07  -0.03
  30   6    -0.01  -0.03   0.11     0.00  -0.05   0.05     0.02  -0.03  -0.02
  31   7    -0.04  -0.07   0.15     0.02  -0.11   0.16     0.06  -0.01  -0.02
  32   7    -0.04  -0.06   0.09     0.02  -0.12   0.19     0.06   0.04  -0.01
  33   6    -0.01  -0.02   0.02     0.00  -0.06   0.11     0.01   0.05  -0.01
  34   6     0.01  -0.00  -0.06    -0.00  -0.05   0.11    -0.01   0.11  -0.00
  35   6     0.06   0.08  -0.12    -0.04   0.05   0.08    -0.04   0.12  -0.00
  36   6     0.07   0.10  -0.20    -0.04   0.06   0.09    -0.06   0.18   0.00
  37   6     0.03   0.04  -0.24    -0.02  -0.02   0.13    -0.05   0.24   0.00
  38   6    -0.02  -0.04  -0.18     0.02  -0.12   0.17    -0.02   0.22   0.00
  39   6    -0.04  -0.06  -0.10     0.02  -0.13   0.16     0.00   0.16  -0.00
  40   7     0.01  -0.00   0.04    -0.00  -0.02   0.03    -0.01   0.01  -0.02
  41   6     0.05   0.03  -0.01    -0.01   0.05  -0.08    -0.06   0.00  -0.01
  42   6     0.13   0.08   0.04    -0.05   0.16  -0.10    -0.08  -0.03  -0.03
  43   6     0.18   0.12   0.01    -0.06   0.23  -0.21    -0.13  -0.03  -0.03
  44   6     0.14   0.10  -0.09    -0.05   0.19  -0.30    -0.17  -0.01  -0.02
  45   6     0.05   0.05  -0.15    -0.01   0.08  -0.28    -0.15   0.02  -0.01
  46   6     0.01   0.02  -0.11     0.01   0.01  -0.17    -0.10   0.02  -0.00
  47   6    -0.01  -0.02   0.15     0.01  -0.03  -0.07    -0.01  -0.08  -0.04
  48   6    -0.01  -0.02   0.16     0.01  -0.02  -0.10    -0.02  -0.11  -0.03
  49   6    -0.00  -0.01   0.12    -0.00  -0.01  -0.07     0.00  -0.14   0.02
  50   6    -0.00  -0.01   0.10    -0.00  -0.00  -0.07     0.00  -0.13   0.03
  51   1     0.03   0.01  -0.01    -0.01   0.02   0.07     0.07   0.02   0.01
  52   1     0.03   0.01   0.02    -0.02   0.01   0.04     0.07   0.00   0.01
  53   1     0.04   0.01  -0.01    -0.03   0.02   0.05     0.05   0.02   0.01
  54   1    -0.02  -0.01  -0.04     0.02  -0.00   0.06     0.04   0.03   0.00
  55   1    -0.00  -0.00  -0.04     0.00   0.01   0.08     0.06   0.04   0.01
  56   1     0.01   0.00  -0.04    -0.01   0.01   0.06     0.04   0.03   0.00
  57   1    -0.01  -0.00   0.00     0.01  -0.00   0.07     0.07   0.01   0.01
  58   1    -0.01  -0.01   0.03     0.01  -0.00   0.04     0.07  -0.00   0.01
  59   1    -0.03  -0.01   0.00     0.03  -0.01   0.05     0.06   0.01   0.01
  60   1     0.01   0.00   0.03    -0.00   0.00   0.02     0.05  -0.02   0.00
  61   1     0.00   0.00   0.04    -0.00   0.00  -0.01     0.03  -0.03   0.00
  62   1    -0.00  -0.00  -0.02     0.00   0.00   0.03     0.02   0.02   0.00
  63   1    -0.01  -0.00  -0.03     0.00  -0.00   0.01    -0.00   0.02   0.00
  64   1    -0.02  -0.00  -0.07     0.01  -0.00   0.00    -0.04   0.05  -0.00
  65   1    -0.02  -0.01  -0.06     0.01  -0.01   0.01    -0.02   0.04  -0.00
  66   1    -0.00   0.00  -0.06    -0.00   0.00   0.01    -0.02   0.04  -0.00
  67   1    -0.00   0.00  -0.07    -0.00   0.00  -0.02    -0.05   0.03  -0.00
  68   1    -0.00   0.00  -0.05    -0.00   0.00  -0.03    -0.05   0.01  -0.00
  69   1     0.01   0.01  -0.05    -0.01   0.01  -0.01    -0.04   0.02  -0.00
  70   1    -0.04  -0.01  -0.06     0.01  -0.02  -0.02    -0.05   0.03  -0.00
  71   1    -0.03  -0.01  -0.04     0.01  -0.01  -0.03    -0.05   0.01  -0.00
  72   1    -0.04  -0.02  -0.04     0.02  -0.02  -0.01    -0.03   0.02  -0.00
  73   1    -0.02  -0.00  -0.02     0.00  -0.00  -0.03    -0.04  -0.01  -0.00
  74   1    -0.01  -0.00   0.01     0.00  -0.00  -0.03    -0.03  -0.03   0.00
  75   1    -0.01  -0.01   0.04     0.00   0.00  -0.02     0.01  -0.04   0.01
  76   1    -0.01  -0.01   0.05     0.00   0.00  -0.02     0.01  -0.04   0.00
  77   1    -0.00  -0.01   0.05    -0.00  -0.00   0.00     0.02  -0.04   0.00
  78   1    -0.00  -0.01   0.05    -0.00  -0.01   0.02     0.02  -0.02  -0.00
  79   1     0.03   0.04  -0.03    -0.02   0.03   0.01    -0.01   0.02  -0.00
  80   1     0.03   0.05  -0.07    -0.02   0.04   0.02    -0.02   0.06   0.00
  81   1     0.01   0.02  -0.09    -0.01  -0.00   0.04    -0.02   0.08   0.00
  82   1    -0.02  -0.03  -0.06     0.01  -0.05   0.06    -0.00   0.08   0.00
  83   1    -0.02  -0.04  -0.02     0.01  -0.06   0.06     0.01   0.04  -0.00
  84   1     0.04   0.03   0.03    -0.02   0.05  -0.01    -0.01  -0.01  -0.01
  85   1     0.07   0.04   0.01    -0.03   0.09  -0.06    -0.04  -0.02  -0.01
  86   1     0.05   0.04  -0.03    -0.02   0.07  -0.11    -0.06  -0.00  -0.01
  87   1     0.01   0.01  -0.06     0.00   0.01  -0.10    -0.05   0.01   0.00
  88   1    -0.02  -0.01  -0.04     0.01  -0.02  -0.04    -0.02   0.01   0.00
  89   1    -0.00  -0.01   0.04     0.00  -0.01  -0.03    -0.01  -0.02  -0.02
  90   1    -0.00  -0.01   0.05     0.00  -0.01  -0.04    -0.01  -0.03  -0.01
  91   1     0.00  -0.00   0.04    -0.00  -0.00  -0.02    -0.00  -0.04   0.01
  92   1     0.00   0.00   0.02    -0.00  -0.00  -0.02    -0.00  -0.04   0.01
                      4                      5                      6
                        a                      a                      a 
 Frequencies --    20.9274                27.2018                29.9722
 Red. masses --    10.8177                10.8956                 9.0431
 Frc consts  --     0.0000                 0.0000                 0.0000
 IR Inten    --     0.0969                 0.4196                 0.0992
 Raman Activ --     0.0000                 0.0000                 0.0000
 Depolar     --     0.0000                 0.0000                 0.0000
 Atom AN      X      Y      Z        X      Y      Z        X      Y      Z
   1   6     0.17   0.00  -0.05     0.01  -0.07  -0.03    -0.22  -0.30  -0.19
   2   6     0.02  -0.02  -0.07     0.07  -0.02   0.00    -0.01  -0.00  -0.03
   3   6    -0.00  -0.04  -0.25     0.07   0.04   0.10     0.03   0.04   0.29
   4   6    -0.12  -0.03  -0.01     0.16   0.02  -0.06     0.16   0.22  -0.31
   5   6     0.02  -0.01   0.02     0.04  -0.04  -0.01     0.00   0.01   0.03
   6   6     0.03  -0.00   0.13     0.04  -0.08  -0.05    -0.00   0.00  -0.02
   7   6     0.03   0.00   0.19     0.01  -0.10  -0.06     0.00   0.01   0.01
   8   6     0.02   0.00   0.16    -0.02  -0.09  -0.04     0.01   0.02   0.07
   9   6     0.01  -0.00   0.08    -0.02  -0.05  -0.01     0.01   0.02   0.10
  10   6     0.01  -0.01   0.00     0.01  -0.03   0.01     0.01   0.02   0.09
  11   6     0.01  -0.00   0.07    -0.05  -0.05  -0.01     0.02   0.02   0.10
  12   6    -0.00  -0.01   0.00    -0.07  -0.02   0.01     0.02   0.01   0.07
  13   6    -0.01  -0.01   0.01    -0.10  -0.02   0.00     0.01   0.00   0.02
  14   6    -0.02  -0.02  -0.07    -0.13   0.01   0.04     0.01  -0.01  -0.10
  15   6    -0.02  -0.03  -0.17    -0.10   0.06   0.11     0.01  -0.00   0.00
  16   6     0.07  -0.02  -0.07    -0.21   0.03   0.02     0.01   0.14  -0.25
  17   6    -0.11  -0.02  -0.06    -0.09  -0.02   0.02    -0.00  -0.21  -0.19
  18   6    -0.00  -0.00   0.09    -0.12  -0.06  -0.04     0.01   0.01   0.02
  19   6     0.01   0.00   0.16    -0.10  -0.09  -0.06     0.02   0.02   0.07
  20   6     0.01   0.00   0.15    -0.07  -0.08  -0.04     0.02   0.02   0.09
  21   7     0.02   0.00   0.22    -0.05  -0.11  -0.05     0.02   0.02   0.09
  22   6     0.02  -0.00   0.17    -0.04  -0.10  -0.02     0.01   0.02   0.07
  23   6     0.04  -0.01   0.15    -0.07  -0.11   0.02     0.02   0.04   0.03
  24   6     0.04  -0.00   0.09    -0.07  -0.07   0.04     0.02   0.04   0.02
  25   6     0.01   0.01   0.05    -0.03  -0.03   0.01     0.01   0.02   0.04
  26   6     0.01   0.02  -0.02    -0.02   0.03   0.01     0.01   0.01   0.02
  27   6     0.02   0.03  -0.05     0.01   0.05  -0.08     0.00   0.00   0.06
  28   6     0.01   0.04  -0.10     0.02   0.09  -0.08     0.00  -0.00   0.04
  29   6     0.00   0.05  -0.13    -0.01   0.12  -0.00     0.00  -0.01  -0.01
  30   6     0.00   0.05  -0.14    -0.01   0.14  -0.03     0.00  -0.01  -0.01
  31   7     0.01   0.07  -0.16    -0.04   0.16  -0.07     0.01  -0.01  -0.02
  32   7     0.01   0.06  -0.12    -0.04   0.12  -0.08     0.01  -0.01  -0.02
  33   6     0.00   0.03  -0.07    -0.01   0.09  -0.04     0.00  -0.01  -0.01
  34   6    -0.00  -0.02   0.01     0.01   0.01  -0.00     0.00  -0.00  -0.01
  35   6    -0.06  -0.07   0.05     0.02  -0.07   0.03    -0.00   0.00  -0.01
  36   6    -0.06  -0.13   0.14     0.04  -0.17   0.09    -0.00   0.00  -0.01
  37   6    -0.01  -0.14   0.20     0.05  -0.19   0.10    -0.00   0.00  -0.01
  38   6     0.04  -0.08   0.16     0.04  -0.11   0.06     0.00  -0.00  -0.01
  39   6     0.05  -0.02   0.06     0.02  -0.00   0.01     0.00  -0.00  -0.01
  40   7    -0.00   0.03  -0.10     0.01   0.11  -0.02     0.00  -0.01  -0.01
  41   6    -0.02   0.03  -0.09     0.07   0.11  -0.01    -0.01  -0.01  -0.01
  42   6    -0.08   0.05  -0.13     0.10   0.14   0.01    -0.04  -0.02  -0.02
  43   6    -0.11   0.05  -0.15     0.20   0.15   0.03    -0.07  -0.03  -0.03
  44   6    -0.07   0.04  -0.13     0.25   0.12   0.02    -0.07  -0.02  -0.01
  45   6     0.00   0.03  -0.08     0.21   0.08  -0.01    -0.04  -0.01   0.00
  46   6     0.03   0.02  -0.07     0.12   0.08  -0.02    -0.02  -0.01   0.01
  47   6    -0.01   0.04  -0.12    -0.05   0.10   0.09     0.01  -0.01  -0.04
  48   6    -0.00   0.03  -0.06    -0.05   0.05   0.09     0.01   0.00  -0.02
  49   6    -0.02   0.01   0.09    -0.00  -0.03  -0.02     0.00  -0.00   0.07
  50   6    -0.01   0.00   0.14    -0.01  -0.07  -0.03     0.00   0.00   0.08
  51   1     0.04  -0.01  -0.04     0.01  -0.01  -0.01    -0.06  -0.09  -0.07
  52   1     0.05   0.01   0.02     0.01  -0.04  -0.03    -0.07  -0.11  -0.12
  53   1     0.08   0.00  -0.03    -0.02  -0.03   0.00    -0.11  -0.13   0.00
  54   1    -0.03  -0.01  -0.08     0.03   0.02   0.03     0.06   0.04   0.11
  55   1    -0.00  -0.01  -0.10     0.03   0.02   0.04     0.01   0.01   0.09
  56   1     0.03  -0.01  -0.08    -0.00   0.01   0.04    -0.04  -0.01   0.13
  57   1    -0.03  -0.01  -0.03     0.05   0.01  -0.01     0.04   0.06  -0.10
  58   1    -0.03  -0.01   0.03     0.05  -0.00  -0.04     0.03   0.07  -0.16
  59   1    -0.07  -0.01  -0.01     0.06   0.02  -0.01     0.10   0.12  -0.06
  60   1     0.01   0.00   0.04     0.02  -0.03  -0.02    -0.00  -0.00  -0.03
  61   1     0.01   0.00   0.08     0.00  -0.04  -0.02    -0.00   0.00  -0.01
  62   1     0.00  -0.01  -0.02     0.00   0.00   0.01     0.00   0.01   0.04
  63   1    -0.00  -0.00  -0.02    -0.02   0.00   0.01     0.00   0.00   0.02
  64   1    -0.01  -0.01  -0.07    -0.04   0.02   0.04     0.00  -0.00  -0.02
  65   1    -0.02  -0.01  -0.05    -0.01   0.02   0.04     0.01  -0.02   0.02
  66   1     0.01  -0.01  -0.05    -0.04   0.02   0.04    -0.00   0.03   0.02
  67   1     0.02  -0.01  -0.04    -0.07   0.02   0.01     0.00   0.04  -0.10
  68   1     0.02  -0.00  -0.00    -0.07   0.00  -0.01     0.00   0.04  -0.09
  69   1     0.04  -0.00  -0.02    -0.07   0.02   0.01     0.00   0.08  -0.05
  70   1    -0.03  -0.01  -0.04    -0.03   0.00   0.01    -0.01  -0.06  -0.08
  71   1    -0.03  -0.00   0.00    -0.03  -0.02  -0.01    -0.01  -0.07  -0.08
  72   1    -0.05  -0.00  -0.02    -0.01  -0.01   0.01     0.01  -0.09  -0.03
  73   1    -0.00  -0.00   0.03    -0.04  -0.02  -0.02     0.00   0.00  -0.01
  74   1     0.00   0.00   0.06    -0.03  -0.03  -0.03     0.00   0.00   0.02
  75   1     0.02  -0.00   0.05    -0.03  -0.04   0.01     0.01   0.02   0.00
  76   1     0.02  -0.00   0.02    -0.03  -0.02   0.02     0.01   0.02  -0.00
  77   1     0.01   0.01  -0.01     0.01   0.01  -0.04    -0.00   0.00   0.03
  78   1     0.01   0.01  -0.03     0.01   0.03  -0.04    -0.00  -0.00   0.02
  79   1    -0.03  -0.02   0.00     0.00  -0.01   0.01    -0.00   0.00  -0.00
  80   1    -0.03  -0.05   0.05     0.01  -0.07   0.03    -0.00   0.00  -0.00
  81   1    -0.00  -0.05   0.08     0.02  -0.08   0.04    -0.00   0.00  -0.00
  82   1     0.02  -0.02   0.06     0.01  -0.04   0.02     0.00  -0.00  -0.00
  83   1     0.02   0.01   0.01     0.00   0.02  -0.01     0.00  -0.00  -0.00
  84   1    -0.03   0.02  -0.04     0.02   0.05   0.01    -0.01  -0.01  -0.01
  85   1    -0.05   0.02  -0.05     0.07   0.05   0.01    -0.03  -0.01  -0.01
  86   1    -0.03   0.01  -0.04     0.09   0.03   0.01    -0.03  -0.01  -0.01
  87   1     0.01   0.01  -0.02     0.07   0.02  -0.01    -0.01  -0.00   0.00
  88   1     0.02   0.00  -0.01     0.03   0.02  -0.01     0.00  -0.00   0.01
  89   1    -0.00   0.01  -0.04    -0.02   0.04   0.05     0.00  -0.00  -0.02
  90   1    -0.00   0.01  -0.01    -0.02   0.01   0.05     0.00   0.00  -0.01
  91   1    -0.01   0.00   0.02     0.01   0.00  -0.01    -0.00  -0.01   0.02
  92   1    -0.01   0.00   0.05     0.00  -0.02  -0.02    -0.00  -0.00   0.03
                      7                      8                      9
                        a                      a                      a 
 Frequencies --    33.5599                33.8852                40.9356
 Red. masses --     8.7200                10.3059                10.1324
 Frc consts  --     0.0000                 0.0000                 0.0000
 IR Inten    --     0.0477                 0.2176                 0.1475
 Raman Activ --     0.0000                 0.0000                 0.0000
 Depolar     --     0.0000                 0.0000                 0.0000
 Atom AN      X      Y      Z        X      Y      Z        X      Y      Z
   1   6    -0.15  -0.06   0.03     0.01  -0.00   0.01     0.00   0.11   0.08
   2   6     0.00   0.01   0.07     0.04  -0.00   0.02     0.01  -0.00   0.03
   3   6     0.02   0.03   0.27     0.04   0.01   0.05     0.01  -0.01   0.01
   4   6     0.14   0.06  -0.02     0.07  -0.00   0.01     0.02  -0.10   0.11
   5   6    -0.00   0.00   0.01     0.03  -0.01  -0.00     0.00  -0.02  -0.05
   6   6    -0.01  -0.01  -0.03     0.03  -0.02  -0.01    -0.00  -0.02  -0.09
   7   6    -0.01  -0.01  -0.04     0.02  -0.03  -0.02    -0.00  -0.02  -0.11
   8   6    -0.00  -0.01  -0.03     0.01  -0.02  -0.02     0.00  -0.02  -0.08
   9   6    -0.00  -0.01  -0.03     0.01  -0.02  -0.02     0.00  -0.02  -0.07
  10   6    -0.00  -0.00  -0.01     0.02  -0.01  -0.01     0.00  -0.02  -0.05
  11   6    -0.01  -0.01  -0.04     0.00  -0.01  -0.02     0.00  -0.01  -0.05
  12   6    -0.01  -0.01  -0.07     0.00  -0.01  -0.02    -0.00  -0.00  -0.03
  13   6    -0.01  -0.01  -0.05    -0.01  -0.01  -0.01    -0.01  -0.00  -0.01
  14   6    -0.01  -0.00  -0.06    -0.01  -0.00   0.00    -0.01   0.00  -0.01
  15   6    -0.04  -0.06  -0.45    -0.01  -0.01  -0.07    -0.00   0.02   0.07
  16   6     0.20  -0.25   0.18     0.02  -0.06   0.06    -0.05   0.05  -0.05
  17   6    -0.21   0.31   0.12    -0.04   0.07   0.04     0.02  -0.06  -0.04
  18   6    -0.00   0.01   0.04    -0.01  -0.01  -0.00    -0.01  -0.01  -0.00
  19   6    -0.00   0.01   0.05    -0.00  -0.02  -0.00    -0.00  -0.01  -0.01
  20   6    -0.00  -0.00  -0.00     0.00  -0.02  -0.01     0.00  -0.01  -0.04
  21   7    -0.00  -0.00  -0.01     0.01  -0.03  -0.02     0.00  -0.02  -0.07
  22   6    -0.00  -0.00   0.01     0.01  -0.02  -0.00     0.00  -0.01  -0.01
  23   6    -0.00   0.02  -0.02    -0.01  -0.01   0.00    -0.02   0.07  -0.06
  24   6    -0.00   0.02  -0.01    -0.00   0.00   0.01    -0.02   0.08  -0.02
  25   6    -0.00  -0.00   0.02     0.01   0.01   0.01     0.01   0.01   0.09
  26   6    -0.00  -0.00   0.02     0.01   0.03   0.01     0.02   0.02   0.12
  27   6     0.00  -0.00   0.05     0.03   0.04  -0.00     0.03   0.02   0.31
  28   6     0.00  -0.00   0.04     0.03   0.06  -0.01     0.03   0.02   0.29
  29   6    -0.00  -0.00   0.01     0.01   0.07  -0.00     0.01   0.03   0.08
  30   6    -0.00  -0.00  -0.01     0.01   0.08  -0.01     0.01   0.04   0.03
  31   7    -0.01   0.00  -0.02     0.01   0.10  -0.03    -0.01   0.06  -0.01
  32   7    -0.00   0.00  -0.03     0.01   0.10  -0.02    -0.01   0.06  -0.06
  33   6    -0.00   0.00  -0.02     0.02   0.08   0.00     0.01   0.04  -0.04
  34   6    -0.00   0.00  -0.01     0.04   0.01  -0.02     0.03   0.01  -0.06
  35   6    -0.01  -0.07   0.02     0.07   0.23  -0.13     0.08  -0.13  -0.01
  36   6    -0.01  -0.06   0.04     0.11   0.12  -0.16     0.11  -0.20  -0.01
  37   6    -0.01   0.01   0.02     0.13  -0.22  -0.08     0.07  -0.14  -0.06
  38   6    -0.01   0.08  -0.02     0.09  -0.43   0.03     0.01   0.01  -0.12
  39   6    -0.01   0.07  -0.03     0.05  -0.31   0.06    -0.01   0.08  -0.12
  40   7     0.00  -0.00  -0.01     0.02   0.08   0.01     0.03   0.03   0.01
  41   6     0.01   0.00  -0.01    -0.04   0.05   0.04     0.01   0.02   0.02
  42   6    -0.01   0.02  -0.03    -0.02  -0.04   0.05    -0.20   0.06  -0.11
  43   6     0.00   0.02  -0.03    -0.13  -0.07   0.07    -0.29   0.07  -0.15
  44   6     0.05   0.01  -0.02    -0.26  -0.01   0.07    -0.16   0.04  -0.04
  45   6     0.07  -0.01   0.00    -0.27   0.08   0.06     0.08  -0.00   0.11
  46   6     0.06  -0.02   0.00    -0.17   0.11   0.05     0.16  -0.01   0.14
  47   6    -0.00  -0.00  -0.02    -0.00   0.06   0.01    -0.00   0.03  -0.08
  48   6    -0.00  -0.00  -0.01    -0.00   0.05   0.01    -0.00   0.02  -0.06
  49   6     0.00  -0.03   0.05     0.02   0.00   0.01     0.04  -0.07   0.15
  50   6     0.00  -0.03   0.04     0.02  -0.02   0.00     0.04  -0.08   0.09
  51   1    -0.04  -0.01   0.02     0.01   0.00   0.01     0.00   0.03   0.05
  52   1    -0.04  -0.03  -0.03     0.00  -0.01  -0.00     0.00   0.03   0.03
  53   1    -0.08  -0.02   0.03    -0.01   0.00   0.01    -0.00   0.05   0.01
  54   1     0.04   0.01   0.08     0.02   0.00   0.02    -0.00  -0.02  -0.01
  55   1     0.01   0.01   0.10     0.01   0.01   0.02     0.00  -0.00   0.01
  56   1    -0.03   0.01   0.09     0.00   0.01   0.02     0.00   0.01  -0.01
  57   1     0.03   0.01   0.01     0.02  -0.00   0.01     0.01  -0.02   0.05
  58   1     0.03   0.02  -0.05     0.02  -0.00  -0.01     0.01  -0.03   0.04
  59   1     0.08   0.03   0.00     0.03  -0.00   0.00     0.01  -0.05   0.02
  60   1    -0.00  -0.00  -0.01     0.01  -0.01  -0.00    -0.00  -0.01  -0.03
  61   1    -0.00  -0.00  -0.02     0.01  -0.01  -0.01    -0.00  -0.01  -0.04
  62   1    -0.00   0.00   0.00     0.00  -0.00  -0.00     0.00  -0.00  -0.01
  63   1    -0.00  -0.00  -0.03     0.00  -0.00  -0.01     0.00  -0.00  -0.01
  64   1    -0.01  -0.02  -0.16    -0.00  -0.00  -0.02    -0.00   0.01   0.03
  65   1    -0.07   0.01  -0.16    -0.01   0.01  -0.03     0.01   0.00   0.03
  66   1     0.05  -0.06  -0.16     0.01  -0.01  -0.03    -0.01   0.01   0.03
  67   1     0.05  -0.07   0.05     0.00  -0.01   0.02    -0.01   0.01  -0.02
  68   1     0.06  -0.07   0.14     0.00  -0.02   0.03    -0.02   0.02  -0.03
  69   1     0.11  -0.14   0.02     0.01  -0.03   0.01    -0.03   0.03  -0.01
  70   1    -0.05   0.08   0.03    -0.01   0.02   0.01     0.00  -0.01  -0.01
  71   1    -0.05   0.12   0.12    -0.01   0.02   0.03     0.00  -0.03  -0.03
  72   1    -0.12   0.14  -0.01    -0.02   0.03   0.00     0.02  -0.03  -0.00
  73   1     0.00   0.00   0.03    -0.00  -0.00   0.00    -0.00  -0.00   0.00
  74   1     0.00   0.00   0.03    -0.00  -0.01   0.00    -0.00  -0.00   0.00
  75   1    -0.00   0.01  -0.01    -0.00  -0.01   0.00    -0.01   0.04  -0.04
  76   1    -0.00   0.01  -0.01    -0.00   0.00   0.00    -0.01   0.04  -0.02
  77   1     0.00  -0.00   0.02     0.01   0.01  -0.00     0.01   0.01   0.13
  78   1     0.00  -0.00   0.02     0.01   0.02  -0.00     0.01   0.01   0.12
  79   1    -0.00  -0.04   0.01     0.02   0.14  -0.05     0.03  -0.05   0.01
  80   1    -0.00  -0.03   0.02     0.04   0.08  -0.07     0.04  -0.09   0.01
  81   1    -0.00   0.00   0.01     0.05  -0.09  -0.03     0.03  -0.06  -0.02
  82   1    -0.00   0.04  -0.01     0.03  -0.20   0.03    -0.00   0.02  -0.05
  83   1    -0.00   0.04  -0.02     0.01  -0.14   0.04    -0.02   0.05  -0.05
  84   1    -0.01   0.01  -0.01     0.02  -0.03   0.01    -0.09   0.02  -0.06
  85   1    -0.00   0.01  -0.01    -0.03  -0.04   0.02    -0.14   0.03  -0.08
  86   1     0.02   0.00  -0.00    -0.10  -0.01   0.02    -0.07   0.01  -0.02
  87   1     0.03  -0.01   0.00    -0.11   0.04   0.02     0.06  -0.01   0.06
  88   1     0.02  -0.01   0.00    -0.05   0.05   0.01     0.09  -0.01   0.07
  89   1    -0.00  -0.00  -0.01    -0.00   0.02   0.00    -0.00   0.01  -0.07
  90   1    -0.00  -0.00  -0.01    -0.01   0.01   0.01    -0.00   0.00  -0.05
  91   1     0.00  -0.02   0.02     0.01   0.00   0.00     0.02  -0.04   0.07
  92   1     0.00  -0.02   0.02     0.01  -0.01  -0.00     0.02  -0.04   0.04
                     10                     11                     12
                        a                      a                      a 
 Frequencies --    50.3538                53.1726                64.3027
 Red. masses --    10.9364                 9.9338                10.2019
 Frc consts  --     0.0000                 0.0000                 0.0000
 IR Inten    --     0.8697                 0.3570                 1.2888
 Raman Activ --     0.0000                 0.0000                 0.0000
 Depolar     --     0.0000                 0.0000                 0.0000
 Atom AN      X      Y      Z        X      Y      Z        X      Y      Z
   1   6    -0.07   0.05   0.02    -0.05   0.15   0.10     0.15   0.17   0.01
   2   6    -0.02   0.02   0.01    -0.02  -0.01   0.03     0.14   0.08  -0.03
   3   6    -0.01   0.02   0.07    -0.02  -0.02   0.02     0.12   0.18  -0.01
   4   6     0.02   0.01   0.02     0.02  -0.15   0.14     0.25  -0.01   0.03
   5   6    -0.01   0.02  -0.04    -0.02  -0.03  -0.09     0.07   0.02  -0.10
   6   6    -0.01   0.04  -0.04    -0.04  -0.04  -0.20     0.07  -0.03  -0.17
   7   6    -0.01   0.04  -0.06    -0.03  -0.04  -0.20     0.03  -0.05  -0.15
   8   6     0.00   0.03  -0.08    -0.01  -0.02  -0.08    -0.02  -0.02  -0.06
   9   6     0.00   0.02  -0.09    -0.01  -0.01  -0.03    -0.02  -0.00  -0.02
  10   6    -0.00   0.02  -0.07    -0.01  -0.02  -0.03     0.02   0.04  -0.04
  11   6     0.01   0.02  -0.10    -0.00   0.00   0.07    -0.02   0.00   0.05
  12   6     0.03   0.00  -0.08    -0.01   0.01   0.07     0.01  -0.04   0.07
  13   6     0.05   0.01  -0.05    -0.02   0.02   0.11     0.07  -0.04   0.10
  14   6     0.07  -0.00   0.01    -0.04   0.01  -0.03     0.11  -0.12   0.01
  15   6     0.06  -0.02   0.08    -0.04   0.02  -0.06     0.07  -0.20  -0.03
  16   6     0.03  -0.01   0.02     0.04   0.12  -0.13     0.25  -0.05  -0.06
  17   6     0.15   0.01   0.01    -0.16  -0.12  -0.08     0.07  -0.20  -0.03
  18   6     0.05   0.02  -0.07    -0.02   0.03   0.22     0.08   0.00   0.17
  19   6     0.04   0.04  -0.09    -0.01   0.02   0.22     0.05   0.03   0.15
  20   6     0.02   0.03  -0.09    -0.00   0.00   0.11    -0.01   0.01   0.08
  21   7     0.01   0.04  -0.09    -0.01  -0.01   0.02    -0.03  -0.00   0.00
  22   6     0.01   0.03   0.00    -0.01  -0.01   0.00    -0.03   0.00  -0.00
  23   6    -0.02  -0.00   0.07     0.01   0.14  -0.17    -0.04  -0.05   0.07
  24   6    -0.02  -0.04   0.17     0.01   0.15  -0.19    -0.04  -0.04   0.07
  25   6     0.01  -0.05   0.20     0.01   0.02  -0.04    -0.05   0.02  -0.01
  26   6     0.01  -0.06   0.22     0.00   0.02  -0.04    -0.05   0.03  -0.01
  27   6     0.01  -0.06   0.19     0.01   0.01   0.04    -0.07   0.03  -0.13
  28   6     0.01  -0.05   0.11     0.01   0.01   0.03    -0.07   0.03  -0.11
  29   6    -0.00  -0.04   0.04     0.01   0.00  -0.04    -0.07   0.03   0.03
  30   6    -0.01  -0.01  -0.08     0.01   0.00  -0.05    -0.07   0.02   0.05
  31   7    -0.01   0.05  -0.18     0.02  -0.00  -0.04    -0.10   0.01   0.04
  32   7    -0.01   0.08  -0.22     0.02   0.00  -0.02    -0.09  -0.01   0.03
  33   6    -0.01   0.04  -0.14     0.01   0.01  -0.03    -0.07  -0.02   0.03
  34   6    -0.03   0.02  -0.07    -0.00   0.01   0.00    -0.06  -0.02   0.01
  35   6    -0.11  -0.05  -0.01    -0.05   0.08  -0.01    -0.02  -0.08   0.02
  36   6    -0.12  -0.09   0.12    -0.06   0.09   0.02    -0.01  -0.10  -0.01
  37   6    -0.06  -0.06   0.18    -0.02   0.04   0.07    -0.05  -0.05  -0.05
  38   6     0.03   0.02   0.12     0.03  -0.03   0.09    -0.09   0.02  -0.08
  39   6     0.04   0.06  -0.00     0.04  -0.04   0.06    -0.10   0.03  -0.05
  40   7    -0.01  -0.02  -0.08     0.00   0.01  -0.05    -0.06  -0.00   0.06
  41   6    -0.02  -0.02  -0.07     0.01  -0.00  -0.03    -0.04   0.01   0.04
  42   6     0.14  -0.07   0.03     0.14  -0.05   0.05    -0.05   0.04   0.04
  43   6     0.12  -0.06   0.02     0.22  -0.08   0.11    -0.07   0.06  -0.01
  44   6    -0.06  -0.01  -0.09     0.16  -0.06   0.09    -0.08   0.06  -0.04
  45   6    -0.23   0.04  -0.20     0.00  -0.00  -0.01    -0.06   0.02  -0.03
  46   6    -0.20   0.03  -0.18    -0.07   0.02  -0.07    -0.04  -0.00   0.01
  47   6    -0.01  -0.05   0.10     0.01   0.00  -0.10    -0.05   0.03   0.13
  48   6    -0.00  -0.05   0.19     0.01   0.01  -0.12    -0.05   0.03   0.12
  49   6     0.04  -0.02   0.13    -0.01  -0.12   0.13    -0.03   0.08  -0.09
  50   6     0.04   0.02   0.03    -0.01  -0.14   0.15    -0.03   0.07  -0.08
  51   1    -0.02   0.02   0.02    -0.01   0.05   0.07     0.06   0.07   0.03
  52   1    -0.02   0.01  -0.01    -0.02   0.05   0.03     0.05   0.03   0.00
  53   1    -0.03   0.02   0.00    -0.02   0.07   0.01     0.02   0.07  -0.01
  54   1     0.01  -0.00   0.02    -0.00  -0.02  -0.00     0.03   0.05  -0.01
  55   1    -0.00   0.01   0.03    -0.00  -0.01   0.02     0.05   0.06   0.01
  56   1    -0.01   0.01   0.02    -0.01   0.01  -0.01     0.02   0.06  -0.01
  57   1     0.00  -0.00   0.02     0.01  -0.04   0.08     0.09   0.01   0.03
  58   1     0.00   0.01  -0.01     0.01  -0.04   0.04     0.08  -0.02   0.00
  59   1     0.02  -0.00   0.00     0.01  -0.08   0.03     0.08  -0.02   0.00
  60   1    -0.01   0.01  -0.01    -0.01  -0.01  -0.08     0.03  -0.01  -0.06
  61   1    -0.00   0.01  -0.01    -0.01  -0.01  -0.08     0.01  -0.03  -0.05
  62   1    -0.00   0.00  -0.02    -0.00  -0.00   0.01     0.00   0.03   0.00
  63   1     0.01  -0.00  -0.02    -0.00   0.00   0.00    -0.00  -0.03   0.01
  64   1     0.02  -0.01   0.04    -0.01   0.01  -0.04     0.03  -0.07  -0.03
  65   1     0.03  -0.00   0.02    -0.02  -0.01  -0.01    -0.00  -0.07  -0.00
  66   1     0.00  -0.01   0.02     0.00   0.02  -0.01     0.03  -0.05  -0.01
  67   1     0.01  -0.01   0.02     0.01   0.03  -0.08     0.08  -0.03  -0.05
  68   1     0.01   0.00  -0.01     0.01   0.04  -0.04     0.08   0.00  -0.01
  69   1    -0.01  -0.01   0.01     0.03   0.06  -0.03     0.09   0.00  -0.01
  70   1     0.05   0.00   0.02    -0.05  -0.03  -0.06     0.03  -0.07  -0.04
  71   1     0.05   0.00  -0.01    -0.05  -0.05  -0.02     0.03  -0.04  -0.00
  72   1     0.06   0.01   0.00    -0.06  -0.06  -0.00    -0.00  -0.07   0.01
  73   1     0.02   0.01  -0.02    -0.01   0.01   0.08     0.03   0.00   0.06
  74   1     0.01   0.01  -0.03    -0.00   0.01   0.09     0.02   0.03   0.05
  75   1    -0.01   0.00   0.01     0.01   0.07  -0.08    -0.02  -0.03   0.03
  76   1    -0.01  -0.02   0.06     0.00   0.08  -0.09    -0.01  -0.03   0.04
  77   1     0.01  -0.02   0.07     0.00   0.00   0.03    -0.02   0.01  -0.07
  78   1     0.00  -0.01   0.02     0.00   0.00   0.02    -0.02   0.01  -0.06
  79   1    -0.05  -0.02  -0.02    -0.02   0.03  -0.01    -0.00  -0.03   0.02
  80   1    -0.06  -0.04   0.05    -0.03   0.04   0.00     0.01  -0.04   0.00
  81   1    -0.02  -0.03   0.08    -0.01   0.02   0.03    -0.01  -0.02  -0.02
  82   1     0.02   0.01   0.05     0.02  -0.02   0.04    -0.03   0.02  -0.03
  83   1     0.03   0.04  -0.01     0.02  -0.03   0.02    -0.04   0.02  -0.02
  84   1     0.08  -0.03   0.03     0.05  -0.02   0.02    -0.01   0.01   0.02
  85   1     0.07  -0.03   0.03     0.10  -0.03   0.05    -0.02   0.03  -0.00
  86   1    -0.02  -0.00  -0.03     0.07  -0.02   0.04    -0.03   0.02  -0.02
  87   1    -0.11   0.02  -0.08    -0.02   0.00  -0.01    -0.02   0.00  -0.02
  88   1    -0.09   0.02  -0.07    -0.05   0.02  -0.04    -0.01  -0.01   0.00
  89   1    -0.01  -0.01   0.02     0.00  -0.00  -0.04    -0.01   0.01   0.06
  90   1    -0.00  -0.02   0.07     0.00   0.00  -0.05    -0.01   0.01   0.06
  91   1     0.02  -0.01   0.04    -0.01  -0.07   0.07    -0.01   0.04  -0.04
  92   1     0.02   0.01  -0.01    -0.00  -0.07   0.08    -0.01   0.03  -0.03
                     13                     14                     15
                        a                      a                      a 
 Frequencies --    70.3514                72.8997                76.2791
 Red. masses --    10.4797                10.3598                10.6259
 Frc consts  --     0.0000                 0.0000                 0.0000
 IR Inten    --     0.2552                 0.2247                 0.2537
 Raman Activ --     0.0000                 0.0000                 0.0000
 Depolar     --     0.0000                 0.0000                 0.0000
 Atom AN      X      Y      Z        X      Y      Z        X      Y      Z
   1   6     0.18  -0.01  -0.03     0.11  -0.08  -0.01    -0.12   0.02   0.03
   2   6     0.12   0.03  -0.01     0.04  -0.04   0.00    -0.02  -0.06   0.00
   3   6     0.10   0.11  -0.02     0.03  -0.03  -0.06    -0.00  -0.08   0.09
   4   6     0.16   0.04  -0.03    -0.00  -0.01  -0.01     0.06  -0.13   0.04
   5   6     0.07  -0.01   0.03     0.03  -0.04   0.07    -0.01  -0.06  -0.11
   6   6     0.07  -0.03   0.06     0.03  -0.05   0.04    -0.01  -0.06  -0.09
   7   6     0.04  -0.06   0.06     0.02  -0.05   0.03     0.00  -0.04  -0.05
   8   6    -0.00  -0.04   0.04     0.02  -0.05   0.05     0.01  -0.04  -0.04
   9   6    -0.01  -0.03   0.00     0.02  -0.03   0.10     0.00  -0.05  -0.12
  10   6     0.02  -0.00  -0.00     0.03  -0.03   0.11    -0.01  -0.07  -0.15
  11   6    -0.02  -0.05  -0.04     0.01  -0.03   0.08     0.01  -0.04  -0.09
  12   6    -0.01  -0.06  -0.05    -0.00  -0.01   0.07    -0.01  -0.02  -0.11
  13   6     0.00  -0.07  -0.07    -0.03  -0.03   0.01    -0.04  -0.01  -0.02
  14   6     0.03  -0.08   0.01    -0.06   0.00  -0.00    -0.08   0.04   0.01
  15   6     0.02  -0.11   0.05    -0.04   0.04  -0.04    -0.05   0.10   0.05
  16   6    -0.02  -0.13   0.05    -0.07  -0.02   0.01    -0.16   0.04   0.01
  17   6     0.12  -0.02   0.03    -0.10   0.02   0.01    -0.08   0.04   0.00
  18   6     0.00  -0.07  -0.12    -0.04  -0.05  -0.05    -0.04  -0.02   0.04
  19   6    -0.00  -0.05  -0.10    -0.03  -0.07  -0.05    -0.02  -0.04   0.06
  20   6    -0.02  -0.05  -0.04     0.00  -0.05   0.01     0.01  -0.04   0.02
  21   7    -0.01  -0.05   0.02     0.01  -0.06   0.01     0.02  -0.04   0.06
  22   6    -0.01  -0.00   0.04     0.01  -0.01  -0.04     0.03   0.01   0.10
  23   6    -0.06   0.04   0.04    -0.01   0.08  -0.10    -0.01   0.02   0.13
  24   6    -0.05   0.13   0.02    -0.00   0.16  -0.15    -0.00   0.10   0.14
  25   6    -0.02   0.15   0.03     0.02   0.16  -0.13     0.05   0.17   0.09
  26   6    -0.02   0.16   0.03     0.03   0.15  -0.08     0.05   0.18   0.06
  27   6    -0.06   0.14   0.23    -0.01   0.13   0.04     0.01   0.16  -0.13
  28   6    -0.07   0.09   0.20    -0.02   0.07   0.11    -0.00   0.11  -0.19
  29   6    -0.05   0.06  -0.05     0.02   0.04   0.08     0.05   0.08  -0.06
  30   6    -0.06   0.01  -0.07     0.01  -0.01   0.09     0.04  -0.01  -0.05
  31   7    -0.09  -0.04  -0.03    -0.02  -0.03   0.09     0.00  -0.04  -0.05
  32   7    -0.09  -0.08   0.00    -0.01  -0.04   0.05     0.01  -0.13   0.02
  33   6    -0.06  -0.06  -0.02     0.02  -0.03   0.02     0.05  -0.15   0.04
  34   6    -0.07  -0.06   0.00     0.02  -0.02  -0.01     0.04  -0.14   0.05
  35   6    -0.14   0.05  -0.03     0.06  -0.19   0.05     0.01  -0.07   0.03
  36   6    -0.17   0.15  -0.03     0.07  -0.24   0.07    -0.03   0.09  -0.02
  37   6    -0.13   0.11   0.02     0.03  -0.09  -0.00    -0.03   0.18  -0.04
  38   6    -0.06  -0.03   0.07    -0.02   0.12  -0.09     0.01   0.08  -0.00
  39   6    -0.03  -0.11   0.06    -0.02   0.14  -0.10     0.05  -0.08   0.04
  40   7    -0.06  -0.01  -0.09     0.04  -0.03   0.06     0.08  -0.09   0.01
  41   6    -0.04  -0.02  -0.06     0.02  -0.02   0.04     0.07  -0.08   0.00
  42   6    -0.02  -0.04  -0.05     0.17  -0.06   0.13     0.00  -0.08  -0.04
  43   6     0.08  -0.08   0.03     0.08  -0.04   0.08    -0.10  -0.05  -0.10
  44   6     0.15  -0.09   0.09    -0.17   0.03  -0.07    -0.13  -0.05  -0.11
  45   6     0.10  -0.06   0.06    -0.30   0.07  -0.16    -0.03  -0.06  -0.05
  46   6     0.00  -0.02  -0.02    -0.19   0.04  -0.09     0.07  -0.08   0.00
  47   6    -0.01   0.09  -0.22     0.07   0.07  -0.01     0.09   0.10   0.11
  48   6    -0.00   0.14  -0.18     0.07   0.12  -0.09     0.10   0.15   0.18
  49   6     0.03   0.11   0.03     0.05   0.09  -0.08     0.09   0.16   0.06
  50   6     0.03   0.04   0.02     0.04   0.01  -0.04     0.08   0.07   0.07
  51   1     0.06   0.00  -0.02     0.02  -0.03  -0.02    -0.02   0.02   0.05
  52   1     0.06  -0.02  -0.01     0.03  -0.02   0.01    -0.03  -0.00  -0.01
  53   1     0.05  -0.01  -0.00     0.05  -0.03  -0.00    -0.07   0.03   0.00
  54   1     0.02   0.03  -0.00    -0.01   0.00  -0.01     0.02  -0.04   0.02
  55   1     0.04   0.04  -0.01     0.01  -0.01  -0.04    -0.00  -0.02   0.06
  56   1     0.02   0.03  -0.00     0.02  -0.02  -0.01    -0.02  -0.01   0.02
  57   1     0.06   0.02  -0.02     0.01   0.00  -0.03     0.01  -0.04   0.05
  58   1     0.05  -0.00  -0.01     0.01  -0.01   0.01     0.01  -0.02  -0.01
  59   1     0.04   0.02  -0.01    -0.02   0.01   0.00     0.05  -0.06   0.00
  60   1     0.03  -0.01   0.02     0.01  -0.02   0.01    -0.00  -0.02  -0.03
  61   1     0.01  -0.03   0.02     0.01  -0.02  -0.00     0.00  -0.01  -0.00
  62   1     0.00   0.01  -0.01     0.01  -0.00   0.04    -0.00  -0.02  -0.05
  63   1    -0.00  -0.02  -0.01     0.00   0.00   0.03    -0.00  -0.00  -0.05
  64   1     0.01  -0.03   0.03    -0.02   0.01  -0.02    -0.02   0.04   0.03
  65   1     0.01  -0.03   0.01    -0.02   0.01  -0.01     0.01   0.04   0.01
  66   1    -0.01  -0.04   0.01    -0.00   0.01  -0.01    -0.02   0.02   0.01
  67   1     0.00  -0.04   0.04    -0.03   0.01   0.00    -0.05   0.02   0.01
  68   1    -0.00  -0.03   0.01    -0.03  -0.02   0.01    -0.05   0.01  -0.01
  69   1    -0.02  -0.05   0.01    -0.01  -0.01   0.00    -0.06   0.01   0.00
  70   1     0.04  -0.01   0.03    -0.03   0.01  -0.00    -0.03   0.03   0.01
  71   1     0.04  -0.00  -0.00    -0.03   0.01   0.01    -0.03  -0.01  -0.01
  72   1     0.04   0.00  -0.00    -0.03   0.01  -0.00     0.00   0.01  -0.00
  73   1     0.00  -0.02  -0.04    -0.02  -0.02  -0.03    -0.02  -0.01   0.02
  74   1    -0.00  -0.01  -0.03    -0.01  -0.03  -0.03    -0.01  -0.02   0.03
  75   1    -0.03   0.00   0.02    -0.01   0.02  -0.03    -0.02  -0.00   0.04
  76   1    -0.02   0.05   0.00    -0.01   0.06  -0.06    -0.01   0.03   0.05
  77   1    -0.02   0.05   0.12    -0.01   0.04   0.02    -0.01   0.05  -0.06
  78   1    -0.03   0.02   0.10    -0.01   0.02   0.06    -0.01   0.03  -0.09
  79   1    -0.05   0.02  -0.02     0.02  -0.08   0.03     0.00  -0.04   0.01
  80   1    -0.06   0.07  -0.02     0.03  -0.11   0.04    -0.02   0.05  -0.01
  81   1    -0.04   0.05   0.01     0.01  -0.04   0.00    -0.02   0.09  -0.02
  82   1    -0.01  -0.02   0.03    -0.01   0.07  -0.05     0.00   0.04  -0.00
  83   1     0.01  -0.06   0.03    -0.02   0.08  -0.05     0.02  -0.04   0.02
  84   1    -0.02  -0.01  -0.03     0.10  -0.03   0.07     0.01  -0.02  -0.01
  85   1     0.03  -0.03   0.01     0.06  -0.02   0.04    -0.05  -0.01  -0.04
  86   1     0.07  -0.04   0.05    -0.07   0.01  -0.04    -0.06  -0.01  -0.05
  87   1     0.04  -0.02   0.03    -0.14   0.04  -0.08    -0.01  -0.02  -0.01
  88   1    -0.01  -0.00  -0.01    -0.08   0.02  -0.04     0.04  -0.03   0.01
  89   1     0.01   0.02  -0.11     0.03   0.01  -0.01     0.03   0.03   0.05
  90   1     0.00   0.04  -0.09     0.03   0.04  -0.05     0.04   0.05   0.09
  91   1     0.02   0.04   0.01     0.02   0.03  -0.02     0.03   0.06   0.00
  92   1     0.02   0.00   0.00     0.02  -0.01  -0.00     0.03   0.01   0.02
                     16                     17                     18
                        a                      a                      a 
 Frequencies --    89.9693                95.6526               109.2571
 Red. masses --    10.2479                10.0217                11.7997
 Frc consts  --     0.0000                 0.0000                 0.0000
 IR Inten    --     0.5149                 2.9748                 4.3409
 Raman Activ --     0.0000                 0.0000                 0.0000
 Depolar     --     0.0000                 0.0000                 0.0000
 Atom AN      X      Y      Z        X      Y      Z        X      Y      Z
   1   6     0.05  -0.03  -0.00     0.13  -0.01  -0.02     0.01  -0.04  -0.00
   2   6    -0.01  -0.03  -0.00     0.03   0.06   0.01     0.01  -0.00   0.01
   3   6    -0.02  -0.05  -0.10     0.01   0.11  -0.06     0.01   0.00   0.03
   4   6    -0.09  -0.02   0.01     0.00   0.11  -0.03     0.01   0.02  -0.01
   5   6     0.00  -0.01   0.06     0.00   0.04   0.09     0.01  -0.00   0.02
   6   6    -0.02  -0.03  -0.14    -0.00   0.02   0.05     0.02   0.01   0.14
   7   6    -0.02  -0.04  -0.19    -0.02   0.00   0.01     0.02   0.01   0.12
   8   6     0.00  -0.02  -0.04    -0.03   0.01   0.03     0.00  -0.01   0.00
   9   6     0.02   0.02   0.21    -0.03   0.02   0.08    -0.01  -0.02  -0.10
  10   6     0.02   0.02   0.28    -0.01   0.04   0.12    -0.01  -0.02  -0.12
  11   6     0.02   0.02   0.23    -0.03   0.01   0.02    -0.01  -0.02  -0.10
  12   6     0.03   0.05   0.31    -0.02  -0.01   0.02    -0.01  -0.02  -0.11
  13   6    -0.00   0.02   0.12    -0.01  -0.03  -0.07    -0.00  -0.00   0.03
  14   6    -0.03   0.02   0.00     0.03  -0.06  -0.01    -0.01   0.00   0.02
  15   6    -0.02   0.03  -0.13     0.00  -0.11   0.02    -0.00   0.01   0.03
  16   6     0.07   0.05  -0.02     0.01  -0.11   0.03     0.00   0.03  -0.01
  17   6    -0.16  -0.01   0.00     0.12  -0.01   0.00    -0.04  -0.03   0.00
  18   6    -0.01  -0.02  -0.05    -0.01  -0.02  -0.14     0.01   0.02   0.15
  19   6    -0.01  -0.03  -0.12    -0.02  -0.01  -0.12     0.01   0.01   0.13
  20   6     0.01  -0.01  -0.00    -0.03   0.00  -0.05    -0.00  -0.01   0.00
  21   7    -0.01  -0.03  -0.16    -0.03   0.00  -0.04     0.00  -0.01   0.02
  22   6     0.00  -0.00  -0.14    -0.04   0.00  -0.01    -0.00  -0.00  -0.03
  23   6    -0.06  -0.05  -0.02    -0.03   0.20  -0.23     0.02  -0.02  -0.04
  24   6    -0.05  -0.03   0.07    -0.03   0.20  -0.21     0.01  -0.00  -0.09
  25   6     0.01   0.03   0.04    -0.01  -0.01   0.04    -0.01   0.01  -0.13
  26   6     0.02   0.02   0.12    -0.01  -0.00   0.04    -0.01  -0.01  -0.07
  27   6     0.01   0.02   0.13     0.00   0.01  -0.14    -0.02  -0.01   0.07
  28   6     0.01   0.01   0.10    -0.00   0.02  -0.18    -0.01  -0.03   0.16
  29   6     0.02   0.00   0.06     0.01   0.02  -0.00    -0.01  -0.04   0.10
  30   6     0.01  -0.00  -0.03     0.00   0.02  -0.02    -0.00  -0.01   0.04
  31   7    -0.01   0.05  -0.13    -0.01   0.07  -0.11    -0.02   0.22  -0.31
  32   7    -0.01   0.03  -0.15    -0.01   0.02  -0.08    -0.02   0.22  -0.33
  33   6     0.02  -0.03  -0.06     0.01  -0.05   0.02    -0.00  -0.01   0.02
  34   6     0.01  -0.04  -0.02     0.01  -0.06   0.04     0.00  -0.06   0.05
  35   6    -0.05   0.03  -0.04     0.01  -0.02   0.02     0.00   0.00   0.02
  36   6    -0.08   0.12  -0.02    -0.01   0.05  -0.02    -0.01   0.09  -0.03
  37   6    -0.04   0.10   0.03    -0.02   0.08  -0.03    -0.02   0.09  -0.04
  38   6     0.04  -0.01   0.07    -0.00   0.01  -0.00    -0.01  -0.02   0.01
  39   6     0.06  -0.08   0.04     0.01  -0.06   0.03     0.00  -0.08   0.05
  40   7     0.03  -0.05   0.00     0.02  -0.06   0.07     0.00  -0.17   0.28
  41   6     0.04  -0.05   0.00     0.03  -0.05   0.06     0.02  -0.13   0.22
  42   6    -0.03  -0.02  -0.04    -0.00   0.00   0.04     0.01   0.03   0.21
  43   6    -0.06  -0.01  -0.07    -0.05   0.04  -0.03     0.01   0.14   0.04
  44   6    -0.01  -0.02  -0.05    -0.05   0.03  -0.07     0.01   0.09  -0.12
  45   6     0.07  -0.06  -0.00     0.02  -0.03  -0.03     0.03  -0.08  -0.11
  46   6     0.09  -0.07   0.02     0.05  -0.07   0.03     0.03  -0.19   0.06
  47   6     0.03   0.01   0.11    -0.00   0.02   0.19     0.01  -0.03   0.01
  48   6     0.03   0.02   0.15    -0.00   0.00   0.20     0.00  -0.01  -0.09
  49   6     0.07   0.10  -0.11    -0.02  -0.21   0.27    -0.02   0.04  -0.14
  50   6     0.06   0.08  -0.19    -0.02  -0.21   0.24    -0.02   0.03  -0.09
  51   1    -0.01  -0.03  -0.02     0.03  -0.01  -0.04     0.01  -0.00  -0.00
  52   1     0.01   0.02   0.02     0.04   0.00   0.01     0.01  -0.02  -0.01
  53   1     0.06  -0.02  -0.00     0.06  -0.02   0.00    -0.01  -0.01   0.00
  54   1    -0.03   0.01  -0.02    -0.02   0.04  -0.01     0.01  -0.01   0.01
  55   1    -0.01  -0.02  -0.07     0.01   0.03  -0.04     0.00   0.00   0.02
  56   1     0.02  -0.04  -0.02     0.01   0.02  -0.01    -0.00   0.01   0.00
  57   1    -0.01   0.01  -0.03     0.02   0.04  -0.04    -0.01  -0.00  -0.00
  58   1    -0.01  -0.03   0.03     0.01   0.01   0.01    -0.00   0.02  -0.01
  59   1    -0.07   0.01   0.00    -0.04   0.05   0.00     0.01   0.01  -0.00
  60   1    -0.01  -0.02  -0.08     0.00   0.00   0.01     0.01   0.01   0.07
  61   1    -0.01  -0.02  -0.10    -0.01  -0.00  -0.02     0.01   0.01   0.06
  62   1     0.01   0.01   0.13    -0.00   0.02   0.04    -0.00  -0.01  -0.06
  63   1     0.01   0.02   0.13    -0.01  -0.01   0.02    -0.00  -0.01  -0.06
  64   1    -0.01   0.01  -0.09     0.01  -0.04   0.01    -0.00   0.01   0.02
  65   1    -0.04  -0.01  -0.02    -0.00  -0.03   0.01     0.00   0.01   0.00
  66   1     0.03   0.03  -0.03    -0.01  -0.03   0.01    -0.01  -0.00   0.01
  67   1    -0.00   0.03  -0.05     0.01  -0.04   0.03     0.01   0.00  -0.01
  68   1     0.00  -0.01   0.03     0.01  -0.02   0.00     0.01   0.02  -0.01
  69   1     0.08   0.02  -0.01    -0.01  -0.04   0.00    -0.00   0.02   0.00
  70   1    -0.04  -0.02  -0.04     0.04  -0.01   0.02    -0.02  -0.00  -0.00
  71   1    -0.03   0.02   0.03     0.04   0.01  -0.01    -0.02  -0.02  -0.00
  72   1    -0.10  -0.01   0.01     0.04   0.01  -0.01    -0.00  -0.02   0.01
  73   1    -0.01  -0.01  -0.04    -0.00  -0.01  -0.06     0.00   0.01   0.08
  74   1    -0.01  -0.02  -0.08    -0.01  -0.00  -0.04     0.00   0.01   0.06
  75   1    -0.03  -0.03  -0.00    -0.00   0.10  -0.11     0.01  -0.01   0.00
  76   1    -0.03  -0.02   0.05    -0.01   0.11  -0.11     0.01  -0.01  -0.03
  77   1     0.00   0.01   0.04     0.01  -0.00  -0.07    -0.01  -0.00   0.03
  78   1    -0.00   0.00   0.03    -0.00   0.01  -0.10    -0.01  -0.01   0.07
  79   1    -0.02   0.01  -0.02     0.00  -0.01   0.01     0.01   0.00   0.01
  80   1    -0.04   0.06  -0.01    -0.00   0.03  -0.01    -0.00   0.04  -0.02
  81   1    -0.02   0.05   0.01    -0.01   0.04  -0.02    -0.01   0.05  -0.02
  82   1     0.02  -0.01   0.03    -0.00   0.00  -0.00    -0.00  -0.01   0.00
  83   1     0.04  -0.04   0.02     0.00  -0.03   0.02    -0.00  -0.04   0.02
  84   1    -0.02  -0.00  -0.01    -0.00   0.00   0.02    -0.00   0.02   0.10
  85   1    -0.03   0.01  -0.03    -0.03   0.02  -0.02    -0.00   0.08   0.01
  86   1    -0.01  -0.00  -0.02    -0.03   0.02  -0.04    -0.00   0.05  -0.07
  87   1     0.03  -0.02   0.00     0.01  -0.01  -0.02     0.01  -0.04  -0.07
  88   1     0.04  -0.03   0.01     0.03  -0.03   0.01     0.01  -0.09   0.02
  89   1     0.01   0.00   0.03    -0.00   0.01   0.09     0.01  -0.01  -0.00
  90   1     0.01   0.01   0.05     0.00   0.00   0.09     0.00  -0.00  -0.05
  91   1     0.04   0.05  -0.04    -0.01  -0.11   0.13    -0.01   0.02  -0.05
  92   1     0.03   0.04  -0.08    -0.00  -0.10   0.11    -0.01   0.01  -0.02
                     19                     20                     21
                        a                      a                      a 
 Frequencies --   116.1926               120.6750               125.5887
 Red. masses --    11.0372                10.5749                10.9121
 Frc consts  --     0.0000                 0.0000                 0.0000
 IR Inten    --     0.7878                 0.6526                 0.4899
 Raman Activ --     0.0000                 0.0000                 0.0000
 Depolar     --     0.0000                 0.0000                 0.0000
 Atom AN      X      Y      Z        X      Y      Z        X      Y      Z
   1   6    -0.04  -0.09   0.02     0.11  -0.16   0.01    -0.00   0.02  -0.01
   2   6     0.02  -0.12   0.01     0.03  -0.02   0.07     0.03  -0.03  -0.03
   3   6     0.05  -0.23   0.02     0.03  -0.05   0.03     0.03  -0.01   0.00
   4   6    -0.04  -0.12   0.03    -0.08   0.09  -0.01     0.10  -0.09   0.00
   5   6     0.10  -0.05  -0.01     0.05   0.00   0.14     0.01  -0.05  -0.06
   6   6     0.09  -0.02  -0.06     0.06   0.03   0.28     0.01  -0.05  -0.07
   7   6     0.12   0.00  -0.05     0.05   0.01   0.12     0.01  -0.03   0.03
   8   6     0.14   0.00   0.00     0.03  -0.03  -0.11     0.01  -0.01   0.10
   9   6     0.16  -0.01   0.04     0.03  -0.04  -0.16     0.01  -0.03   0.05
  10   6     0.13  -0.05   0.04     0.03  -0.03  -0.08     0.00  -0.04  -0.02
  11   6     0.16   0.00   0.03     0.02  -0.03  -0.17     0.02  -0.03   0.05
  12   6     0.14   0.04   0.02     0.02  -0.01  -0.10     0.01  -0.03  -0.03
  13   6     0.11   0.03  -0.04     0.03   0.02   0.12    -0.00  -0.04  -0.07
  14   6     0.06   0.11  -0.03     0.01   0.03   0.05    -0.03  -0.01  -0.03
  15   6     0.11   0.21  -0.05     0.02   0.06   0.01    -0.00   0.03   0.00
  16   6    -0.01   0.10  -0.02     0.09   0.12  -0.03    -0.12  -0.06   0.02
  17   6     0.03   0.14  -0.02    -0.11  -0.06   0.02     0.02   0.04  -0.01
  18   6     0.10  -0.01  -0.08     0.04   0.03   0.27    -0.01  -0.05  -0.07
  19   6     0.12  -0.03  -0.05     0.04   0.00   0.13     0.01  -0.04   0.02
  20   6     0.14  -0.02  -0.00     0.02  -0.03  -0.11     0.03  -0.02   0.09
  21   7     0.13  -0.01   0.00     0.02  -0.05  -0.19     0.02   0.00   0.18
  22   6     0.10  -0.01   0.02     0.01  -0.03  -0.15     0.02   0.08   0.06
  23   6     0.07   0.03  -0.00    -0.04   0.03  -0.16     0.04   0.15  -0.05
  24   6     0.06   0.02   0.00    -0.04   0.06  -0.11     0.04   0.18  -0.12
  25   6     0.02  -0.02   0.03     0.00   0.02  -0.04     0.01   0.14  -0.10
  26   6    -0.01  -0.00   0.00    -0.00   0.03   0.06     0.00   0.03  -0.03
  27   6    -0.04  -0.01  -0.05    -0.01   0.03   0.00    -0.10  -0.02  -0.07
  28   6    -0.05   0.00  -0.08    -0.01   0.03   0.02    -0.10  -0.13   0.03
  29   6    -0.10   0.03  -0.04    -0.02   0.03   0.09    -0.01  -0.20   0.16
  30   6    -0.12   0.04  -0.02    -0.03   0.01   0.04    -0.01  -0.17   0.13
  31   7    -0.14   0.06  -0.05    -0.08  -0.08   0.13     0.05  -0.11   0.08
  32   7    -0.14   0.04   0.00    -0.08  -0.09   0.04     0.04   0.10  -0.10
  33   6    -0.15   0.00   0.06    -0.03   0.00  -0.10    -0.02   0.15  -0.15
  34   6    -0.16  -0.02   0.05    -0.03   0.00  -0.10    -0.04   0.21  -0.16
  35   6    -0.11  -0.02   0.04    -0.10   0.00  -0.08    -0.09   0.19  -0.14
  36   6    -0.09  -0.04  -0.03    -0.12   0.00  -0.00    -0.07   0.02   0.00
  37   6    -0.14  -0.06  -0.08    -0.07  -0.01   0.06     0.01  -0.14   0.12
  38   6    -0.20  -0.06  -0.07     0.00  -0.01   0.04     0.05  -0.06   0.07
  39   6    -0.21  -0.04  -0.00     0.02  -0.01  -0.04     0.02   0.12  -0.07
  40   7    -0.16   0.00   0.06     0.00   0.07  -0.13    -0.06  -0.02  -0.01
  41   6    -0.13   0.02   0.05     0.02   0.05  -0.09    -0.07  -0.02  -0.02
  42   6    -0.10   0.08   0.07    -0.02  -0.01  -0.12    -0.11   0.02  -0.04
  43   6    -0.00   0.10   0.06    -0.05  -0.06  -0.05    -0.06   0.03  -0.04
  44   6     0.06   0.06   0.04    -0.03  -0.04   0.04     0.05  -0.01   0.00
  45   6     0.01   0.01   0.00     0.02   0.03   0.07     0.09  -0.05   0.02
  46   6    -0.09  -0.01   0.01     0.03   0.07  -0.01     0.01  -0.04   0.01
  47   6    -0.07   0.04  -0.00    -0.00   0.04   0.19     0.08  -0.15   0.21
  48   6    -0.06   0.03   0.01     0.00   0.04   0.18     0.10  -0.04   0.13
  49   6     0.05  -0.08   0.07     0.05  -0.03  -0.04    -0.01   0.15  -0.08
  50   6     0.06  -0.07   0.06     0.05  -0.06  -0.09    -0.01   0.11  -0.00
  51   1    -0.04  -0.05   0.01     0.01  -0.07  -0.05     0.02   0.02   0.02
  52   1    -0.02   0.00   0.01     0.03  -0.03   0.02     0.01  -0.01  -0.02
  53   1     0.01  -0.03   0.00     0.07  -0.08   0.02    -0.03   0.02  -0.01
  54   1     0.03  -0.07   0.01     0.00  -0.02   0.00     0.01  -0.00  -0.00
  55   1    -0.00  -0.08   0.00     0.00  -0.02   0.01     0.01   0.00   0.01
  56   1     0.03  -0.08   0.01     0.02  -0.01   0.00    -0.00   0.00   0.00
  57   1    -0.03  -0.05   0.02    -0.02   0.03  -0.05     0.02  -0.03   0.04
  58   1    -0.02  -0.02   0.01    -0.02   0.02   0.02     0.02  -0.02  -0.02
  59   1     0.00  -0.04   0.00    -0.05   0.06   0.01     0.06  -0.05  -0.01
  60   1     0.02  -0.01  -0.03     0.02   0.02   0.14    -0.00  -0.02  -0.04
  61   1     0.03   0.01  -0.03     0.01   0.01   0.05     0.00  -0.01   0.01
  62   1     0.04  -0.02   0.02     0.01  -0.01  -0.05    -0.00  -0.01  -0.01
  63   1     0.05   0.02   0.01     0.01  -0.00  -0.06     0.00  -0.01  -0.01
  64   1     0.02   0.08  -0.02     0.00   0.02  -0.00    -0.01   0.02   0.01
  65   1     0.04   0.06  -0.01     0.01   0.02  -0.00     0.01   0.01  -0.00
  66   1     0.04   0.06  -0.01     0.02   0.01  -0.00    -0.01   0.01   0.00
  67   1    -0.02   0.05  -0.00     0.02   0.04  -0.05    -0.03  -0.02   0.04
  68   1    -0.02   0.01  -0.00     0.02   0.03   0.01    -0.03  -0.02  -0.01
  69   1     0.01   0.03  -0.01     0.06   0.06   0.00    -0.06  -0.03   0.00
  70   1    -0.01   0.06   0.01    -0.04  -0.02  -0.03    -0.01   0.03   0.02
  71   1    -0.00   0.02  -0.00    -0.04  -0.03   0.01    -0.01  -0.01  -0.01
  72   1     0.03   0.05  -0.01    -0.05  -0.04   0.02     0.04   0.02  -0.01
  73   1     0.02  -0.01  -0.03     0.01   0.02   0.14    -0.00  -0.02  -0.04
  74   1     0.03  -0.02  -0.02     0.01   0.01   0.06     0.00  -0.01   0.01
  75   1     0.01   0.02  -0.01    -0.02   0.01  -0.05     0.02   0.04  -0.01
  76   1     0.02   0.01  -0.01    -0.02   0.03  -0.03     0.02   0.06  -0.05
  77   1    -0.01  -0.00  -0.02    -0.01   0.01  -0.02    -0.05   0.01  -0.05
  78   1    -0.01   0.01  -0.04    -0.00   0.01  -0.01    -0.05  -0.05  -0.00
  79   1    -0.02  -0.00   0.02    -0.04  -0.00  -0.04    -0.04   0.08  -0.06
  80   1    -0.01  -0.01  -0.01    -0.05   0.00   0.00    -0.03  -0.00   0.01
  81   1    -0.04  -0.02  -0.04    -0.02  -0.00   0.03     0.01  -0.09   0.07
  82   1    -0.07  -0.02  -0.03     0.02  -0.01   0.03     0.03  -0.05   0.05
  83   1    -0.08  -0.01   0.00     0.02  -0.00  -0.02     0.02   0.05  -0.03
  84   1    -0.04   0.03   0.03    -0.01  -0.01  -0.05    -0.05   0.01  -0.01
  85   1     0.01   0.04   0.02    -0.02  -0.03  -0.02    -0.03   0.02  -0.02
  86   1     0.04   0.02   0.01    -0.01  -0.02   0.02     0.03  -0.00   0.01
  87   1     0.01  -0.01  -0.01     0.01   0.01   0.04     0.05  -0.02   0.01
  88   1    -0.04  -0.02  -0.00     0.02   0.04   0.00     0.01  -0.02   0.00
  89   1    -0.02   0.01   0.00    -0.00   0.01   0.07     0.04  -0.06   0.08
  90   1    -0.03   0.00   0.01     0.00   0.01   0.07     0.05   0.00   0.05
  91   1     0.02  -0.03   0.03     0.03  -0.01   0.00    -0.01   0.05  -0.03
  92   1     0.01  -0.02   0.03     0.02  -0.03  -0.02    -0.01   0.03   0.01
                     22                     23                     24
                        a                      a                      a 
 Frequencies --   144.1678               160.2042               174.2206
 Red. masses --    10.7814                 4.7193                 4.3070
 Frc consts  --     0.0000                 0.0000                 0.0000
 IR Inten    --     1.2833                 0.6722                 0.0871
 Raman Activ --     0.0000                 0.0000                 0.0000
 Depolar     --     0.0000                 0.0000                 0.0000
 Atom AN      X      Y      Z        X      Y      Z        X      Y      Z
   1   6     0.09  -0.07   0.01    -0.07   0.10  -0.04     0.04   0.01  -0.02
   2   6     0.01   0.01   0.05    -0.01  -0.01  -0.09    -0.01  -0.00  -0.03
   3   6    -0.00   0.04   0.01    -0.00  -0.00  -0.05    -0.03   0.07  -0.08
   4   6    -0.03   0.07   0.01     0.08  -0.10  -0.03     0.04  -0.03  -0.01
   5   6    -0.01  -0.00   0.08    -0.01  -0.02  -0.10    -0.04  -0.02   0.03
   6   6    -0.01  -0.00   0.06     0.01   0.02   0.16    -0.04  -0.01   0.08
   7   6    -0.02  -0.02  -0.05     0.02   0.04   0.22    -0.03   0.00   0.06
   8   6    -0.03  -0.03  -0.11     0.01   0.01   0.07    -0.02  -0.01   0.01
   9   6    -0.03  -0.03  -0.07     0.00  -0.00  -0.01    -0.01  -0.01   0.08
  10   6    -0.02  -0.01   0.01    -0.01  -0.02  -0.15    -0.03  -0.02   0.09
  11   6    -0.02  -0.03  -0.07     0.00  -0.00   0.02     0.02  -0.02   0.06
  12   6    -0.02  -0.02  -0.00     0.01   0.03   0.18     0.03  -0.04   0.02
  13   6    -0.01  -0.01   0.08     0.00   0.02   0.12     0.03  -0.04  -0.02
  14   6    -0.02  -0.01   0.05     0.00   0.01   0.09    -0.00  -0.01  -0.05
  15   6    -0.02  -0.01   0.01    -0.00  -0.01   0.03     0.03   0.06  -0.08
  16   6     0.03   0.03   0.00     0.12   0.09   0.01    -0.09  -0.06   0.00
  17   6    -0.10  -0.07   0.02    -0.11  -0.08   0.05    -0.01   0.03  -0.03
  18   6    -0.01  -0.00   0.08    -0.01  -0.02  -0.11     0.04  -0.01   0.10
  19   6    -0.02  -0.02  -0.03    -0.02  -0.04  -0.21     0.04   0.00   0.11
  20   6    -0.02  -0.03  -0.10    -0.00  -0.01  -0.08     0.02  -0.01   0.03
  21   7    -0.02  -0.03  -0.16     0.00  -0.01  -0.03    -0.00  -0.00  -0.07
  22   6    -0.01   0.03  -0.04    -0.00  -0.00  -0.02    -0.00   0.04  -0.12
  23   6    -0.07   0.05   0.02    -0.01   0.02  -0.04    -0.02   0.05  -0.12
  24   6    -0.05   0.10   0.11    -0.00   0.04  -0.04    -0.02   0.02  -0.04
  25   6     0.03   0.11   0.15     0.01   0.00   0.01     0.00  -0.02   0.02
  26   6     0.03   0.07   0.12     0.01   0.00   0.02     0.01  -0.04   0.10
  27   6    -0.05   0.03   0.01     0.00   0.00   0.00     0.03  -0.04   0.09
  28   6    -0.07  -0.08  -0.15    -0.00  -0.00  -0.01     0.02  -0.01   0.00
  29   6     0.01  -0.13  -0.20    -0.00  -0.00  -0.01     0.00   0.01  -0.07
  30   6     0.02  -0.12  -0.12    -0.00  -0.00  -0.01     0.00   0.03  -0.11
  31   7     0.19  -0.05  -0.10     0.01  -0.00  -0.01     0.04   0.03  -0.07
  32   7     0.17   0.08   0.07     0.00   0.00   0.01     0.03  -0.00   0.04
  33   6    -0.02   0.08   0.13    -0.01   0.00   0.01    -0.00  -0.01   0.06
  34   6    -0.04   0.16   0.13    -0.01   0.01   0.01    -0.01  -0.03   0.10
  35   6     0.09   0.15   0.10     0.00   0.00   0.01     0.05  -0.03   0.08
  36   6     0.17  -0.02   0.02     0.00  -0.00   0.00     0.06  -0.01   0.01
  37   6     0.09  -0.13  -0.04    -0.00  -0.01  -0.01     0.01   0.02  -0.05
  38   6    -0.06  -0.02  -0.06    -0.01  -0.00  -0.01    -0.04   0.00  -0.03
  39   6    -0.12   0.13   0.04    -0.02   0.00   0.00    -0.05  -0.03   0.05
  40   7    -0.12  -0.07   0.04    -0.01   0.00  -0.00    -0.02   0.03  -0.05
  41   6    -0.17  -0.05   0.00    -0.01   0.00  -0.00    -0.04   0.02  -0.05
  42   6    -0.14   0.02   0.02    -0.01   0.00  -0.00    -0.03   0.00  -0.05
  43   6     0.01   0.04   0.02    -0.00   0.00   0.00     0.00  -0.02  -0.01
  44   6     0.12  -0.02  -0.00     0.01  -0.00   0.00     0.03  -0.02   0.02
  45   6     0.03  -0.08  -0.06     0.00  -0.00  -0.00    -0.01   0.01  -0.00
  46   6    -0.12  -0.10  -0.06    -0.01  -0.00  -0.01    -0.04   0.03  -0.04
  47   6     0.08  -0.10  -0.14     0.00   0.00   0.01    -0.02  -0.00   0.02
  48   6     0.10   0.01   0.03     0.01   0.00   0.02    -0.01  -0.03   0.11
  49   6     0.09   0.10   0.10     0.01  -0.03   0.04     0.02   0.02  -0.05
  50   6     0.08   0.05   0.00     0.01  -0.02   0.01     0.02   0.05  -0.12
  51   1    -0.00  -0.05  -0.04     0.14   0.17   0.10     0.17   0.14   0.07
  52   1     0.02   0.01   0.03     0.04  -0.17  -0.11     0.07  -0.20  -0.09
  53   1     0.08  -0.05   0.01    -0.25   0.11  -0.02    -0.20   0.07   0.00
  54   1    -0.01   0.01   0.00     0.00   0.03  -0.00    -0.04   0.08   0.00
  55   1     0.00   0.02   0.00    -0.00  -0.00  -0.04    -0.00   0.02  -0.10
  56   1     0.00   0.02  -0.00    -0.00  -0.02   0.00     0.01  -0.03   0.01
  57   1     0.02   0.04  -0.06    -0.11  -0.13   0.17    -0.10  -0.09   0.13
  58   1     0.01  -0.02   0.04    -0.06   0.14  -0.15    -0.05   0.13  -0.12
  59   1    -0.07   0.05   0.01     0.26  -0.12  -0.03     0.20  -0.07  -0.02
  60   1    -0.00   0.00   0.04     0.01   0.01   0.08    -0.01   0.00   0.04
  61   1    -0.01  -0.01  -0.02     0.01   0.02   0.10    -0.01   0.01   0.02
  62   1    -0.01   0.00   0.01    -0.01  -0.01  -0.08    -0.01  -0.00   0.04
  63   1    -0.00  -0.00   0.00     0.01   0.01   0.09     0.01  -0.01   0.01
  64   1    -0.01  -0.00  -0.00     0.00  -0.00   0.02    -0.01   0.02  -0.10
  65   1    -0.01  -0.00   0.00    -0.01   0.01  -0.00    -0.01  -0.03   0.02
  66   1    -0.00  -0.01   0.00     0.00  -0.02  -0.00     0.05   0.07  -0.00
  67   1    -0.01   0.02  -0.04    -0.07   0.12  -0.14     0.10  -0.14   0.15
  68   1    -0.00  -0.01   0.03    -0.04  -0.08   0.12     0.06   0.12  -0.15
  69   1     0.05   0.02   0.00     0.23   0.06  -0.00    -0.26  -0.05   0.01
  70   1    -0.02  -0.04  -0.03     0.05  -0.16  -0.10    -0.13   0.21   0.12
  71   1    -0.02  -0.00   0.02     0.06   0.12   0.09    -0.13  -0.20  -0.10
  72   1    -0.07  -0.03   0.02    -0.23  -0.05   0.05     0.26   0.03  -0.04
  73   1    -0.00   0.00   0.04    -0.00  -0.01  -0.06     0.02   0.00   0.05
  74   1    -0.01  -0.01  -0.01    -0.01  -0.02  -0.10     0.01   0.01   0.04
  75   1    -0.04   0.01  -0.00    -0.00   0.01  -0.01    -0.01   0.02  -0.04
  76   1    -0.03   0.04   0.04    -0.00   0.02  -0.02    -0.01   0.00  -0.00
  77   1    -0.03   0.02   0.02     0.00   0.00   0.00     0.01  -0.01   0.03
  78   1    -0.04  -0.03  -0.06    -0.00  -0.00  -0.01     0.01  -0.00  -0.01
  79   1     0.05   0.07   0.04     0.00   0.00   0.00     0.02  -0.01   0.03
  80   1     0.08  -0.02   0.00     0.00  -0.00  -0.00     0.03  -0.00  -0.00
  81   1     0.04  -0.08  -0.02     0.00  -0.00  -0.00     0.00   0.01  -0.03
  82   1    -0.04  -0.02  -0.04    -0.01  -0.00  -0.00    -0.02   0.01  -0.02
  83   1    -0.07   0.05   0.01    -0.01   0.00   0.00    -0.03  -0.01   0.02
  84   1    -0.06   0.02   0.02    -0.01   0.00  -0.00    -0.01   0.00  -0.02
  85   1     0.02   0.03   0.02     0.00   0.00   0.00     0.01  -0.01   0.00
  86   1     0.08  -0.00   0.01     0.01  -0.00   0.00     0.02  -0.01   0.02
  87   1     0.02  -0.03  -0.03     0.00  -0.00  -0.00    -0.00   0.00   0.01
  88   1    -0.05  -0.05  -0.03    -0.00  -0.00  -0.00    -0.02   0.01  -0.01
  89   1     0.04  -0.04  -0.06     0.00  -0.00   0.00    -0.01   0.00  -0.00
  90   1     0.05   0.01   0.03     0.00   0.00   0.01    -0.01  -0.01   0.04
  91   1     0.04   0.03   0.03     0.01  -0.02   0.02     0.01   0.00  -0.01
  92   1     0.04   0.01  -0.01     0.01  -0.01   0.00     0.01   0.01  -0.04
                     25                     26                     27
                        a                      a                      a 
 Frequencies --   182.5250               194.0223               202.7193
 Red. masses --     8.5381                 9.6730                 5.9909
 Frc consts  --     0.0000                 0.0000                 0.0000
 IR Inten    --     0.3107                 0.0344                 0.5701
 Raman Activ --     0.0000                 0.0000                 0.0000
 Depolar     --     0.0000                 0.0000                 0.0000
 Atom AN      X      Y      Z        X      Y      Z        X      Y      Z
   1   6    -0.09   0.03   0.01    -0.07   0.02  -0.01    -0.10   0.09  -0.04
   2   6     0.02  -0.01  -0.00     0.05  -0.03  -0.02    -0.01   0.00  -0.07
   3   6     0.08  -0.25  -0.01     0.10  -0.20   0.04     0.01   0.03   0.07
   4   6    -0.14   0.05   0.00    -0.00  -0.04  -0.00     0.10  -0.08  -0.04
   5   6     0.14   0.09   0.01     0.12   0.03  -0.06    -0.02  -0.02  -0.15
   6   6     0.15   0.06   0.01     0.12   0.02  -0.02     0.00   0.02   0.11
   7   6     0.11   0.01  -0.03     0.09  -0.00   0.07     0.01   0.03   0.20
   8   6     0.08   0.01  -0.06     0.05   0.02   0.09     0.00   0.01   0.06
   9   6     0.07   0.07   0.00     0.04   0.03   0.02    -0.00  -0.01  -0.05
  10   6     0.13   0.10   0.03     0.08   0.04  -0.08    -0.03  -0.04  -0.30
  11   6    -0.05   0.08   0.01    -0.03   0.04   0.04     0.01   0.00   0.06
  12   6    -0.10   0.13   0.04    -0.08   0.07  -0.03     0.03   0.04   0.31
  13   6    -0.12   0.12   0.01    -0.12   0.06  -0.04     0.01   0.01   0.15
  14   6    -0.02  -0.01  -0.00    -0.06  -0.02  -0.01     0.01   0.00   0.07
  15   6    -0.13  -0.23   0.00    -0.14  -0.18   0.05     0.00  -0.01  -0.07
  16   6     0.13   0.00  -0.02    -0.01  -0.04   0.00     0.11   0.05   0.02
  17   6     0.11   0.01  -0.01     0.06  -0.01  -0.01    -0.12  -0.07   0.05
  18   6    -0.13   0.09   0.03    -0.12   0.05  -0.01    -0.00  -0.03  -0.11
  19   6    -0.11   0.03  -0.00    -0.09   0.01   0.06    -0.01  -0.04  -0.21
  20   6    -0.08   0.03  -0.04    -0.03   0.02   0.10    -0.00  -0.01  -0.07
  21   7    -0.01  -0.05  -0.10     0.01  -0.00   0.14     0.00  -0.00  -0.01
  22   6    -0.01  -0.14   0.02     0.00   0.04  -0.04     0.00   0.00  -0.00
  23   6    -0.06  -0.14   0.07     0.03   0.10  -0.14     0.01   0.01  -0.01
  24   6    -0.05  -0.03   0.06     0.02   0.08  -0.15     0.01   0.02  -0.02
  25   6     0.01   0.06  -0.00     0.00  -0.00  -0.07     0.01  -0.00   0.00
  26   6     0.01   0.12  -0.06     0.00  -0.08   0.11     0.01   0.00  -0.00
  27   6    -0.04   0.10  -0.06     0.03  -0.07   0.15     0.00   0.00  -0.00
  28   6    -0.04   0.03  -0.02     0.04  -0.04   0.08     0.00   0.00  -0.00
  29   6     0.00  -0.00   0.03     0.01  -0.02  -0.03     0.00   0.00   0.00
  30   6    -0.00  -0.06   0.08     0.01   0.05  -0.16    -0.00  -0.00   0.00
  31   7     0.00  -0.05   0.06     0.05   0.06  -0.13    -0.00  -0.00   0.00
  32   7     0.00   0.00  -0.02     0.04   0.01   0.03    -0.00  -0.00  -0.00
  33   6     0.00   0.02  -0.04    -0.00  -0.01   0.08    -0.00  -0.00  -0.00
  34   6    -0.01   0.07  -0.08    -0.00  -0.06   0.16    -0.00   0.00  -0.00
  35   6    -0.03   0.08  -0.07     0.07  -0.07   0.14    -0.01   0.00  -0.00
  36   6    -0.03   0.02  -0.01     0.09  -0.02   0.02    -0.01  -0.00  -0.00
  37   6     0.01  -0.06   0.05     0.01   0.06  -0.09    -0.01  -0.00   0.00
  38   6     0.03  -0.01   0.02    -0.06   0.01  -0.04    -0.00  -0.00  -0.00
  39   6     0.02   0.07  -0.05    -0.06  -0.08   0.10    -0.00   0.00  -0.00
  40   7    -0.00  -0.05   0.06    -0.03   0.06  -0.10    -0.00  -0.00   0.00
  41   6    -0.01  -0.05   0.05    -0.06   0.06  -0.11    -0.00  -0.00   0.00
  42   6    -0.01  -0.02   0.05    -0.06   0.02  -0.12    -0.00   0.00   0.00
  43   6    -0.01   0.01   0.00    -0.00  -0.04  -0.03    -0.00   0.00   0.00
  44   6     0.00  -0.01  -0.03     0.05  -0.03   0.05    -0.00   0.00   0.00
  45   6     0.02  -0.05  -0.03    -0.02   0.04   0.01     0.00   0.00   0.00
  46   6     0.01  -0.08   0.01    -0.07   0.08  -0.08     0.00  -0.00   0.00
  47   6     0.05   0.02  -0.02    -0.02  -0.03   0.12     0.00   0.00   0.00
  48   6     0.05   0.09  -0.07    -0.01  -0.07   0.20     0.00   0.00  -0.00
  49   6     0.05  -0.04   0.05    -0.01   0.08  -0.14     0.01  -0.02   0.03
  50   6     0.04  -0.15   0.06    -0.02   0.10  -0.13     0.01  -0.01   0.01
  51   1    -0.02   0.02   0.03    -0.13  -0.09  -0.03    -0.14  -0.07  -0.03
  52   1    -0.03  -0.01  -0.02    -0.06   0.14   0.04    -0.07   0.17   0.04
  53   1    -0.06   0.02   0.00     0.11  -0.03  -0.01     0.11   0.00  -0.03
  54   1     0.03  -0.05   0.01     0.06  -0.10  -0.00     0.05  -0.10  -0.02
  55   1    -0.02  -0.11  -0.04     0.00  -0.07   0.06     0.02   0.03   0.16
  56   1     0.07  -0.11   0.01     0.03  -0.04  -0.01    -0.06   0.10  -0.04
  57   1    -0.16  -0.08   0.08    -0.01  -0.02   0.01     0.14   0.06  -0.09
  58   1    -0.10   0.15  -0.08    -0.01   0.00  -0.00     0.09  -0.15   0.08
  59   1     0.10  -0.03  -0.01     0.01  -0.02  -0.00    -0.12   0.01  -0.01
  60   1     0.05   0.02   0.01     0.04   0.00  -0.01     0.00   0.01   0.06
  61   1     0.03  -0.01  -0.01     0.03  -0.01   0.02     0.01   0.02   0.09
  62   1     0.04   0.03   0.02     0.02   0.01  -0.04    -0.01  -0.02  -0.16
  63   1    -0.03   0.04   0.02    -0.02   0.02  -0.02     0.01   0.02   0.16
  64   1    -0.01  -0.11  -0.05    -0.01  -0.08   0.05    -0.01  -0.02  -0.17
  65   1    -0.09  -0.10   0.03    -0.05  -0.04   0.00    -0.07  -0.09   0.05
  66   1    -0.04  -0.03   0.02    -0.08  -0.08   0.01     0.08   0.10   0.02
  67   1     0.15  -0.12   0.08     0.02  -0.03   0.01     0.13  -0.10   0.08
  68   1     0.12   0.13  -0.10     0.01   0.01  -0.01     0.11   0.13  -0.10
  69   1    -0.13  -0.01   0.01    -0.02  -0.02  -0.00    -0.13   0.01   0.02
  70   1     0.02   0.03   0.04     0.09  -0.10  -0.04    -0.13   0.12   0.06
  71   1     0.02  -0.03  -0.04     0.09   0.11   0.03    -0.13  -0.17  -0.04
  72   1     0.09   0.01  -0.01    -0.10  -0.00   0.00     0.13  -0.02   0.01
  73   1    -0.05   0.03   0.02    -0.04   0.01  -0.02    -0.00  -0.01  -0.06
  74   1    -0.04   0.00   0.00    -0.03  -0.01   0.02    -0.01  -0.02  -0.10
  75   1    -0.03  -0.05   0.02     0.02   0.03  -0.04     0.00   0.00  -0.00
  76   1    -0.02   0.00   0.02     0.01   0.02  -0.05     0.00   0.01  -0.01
  77   1    -0.02   0.04  -0.02     0.01  -0.02   0.05     0.00   0.00  -0.00
  78   1    -0.03   0.00  -0.00     0.02  -0.01   0.02     0.00   0.00  -0.00
  79   1    -0.02   0.03  -0.03     0.03  -0.02   0.06    -0.00   0.00  -0.00
  80   1    -0.02   0.00   0.00     0.05  -0.00  -0.00    -0.00  -0.00  -0.00
  81   1     0.01  -0.04   0.03     0.00   0.05  -0.06    -0.00  -0.00   0.00
  82   1     0.01  -0.01   0.02    -0.03   0.01  -0.03    -0.00  -0.00   0.00
  83   1     0.01   0.03  -0.02    -0.04  -0.03   0.04    -0.00   0.00  -0.00
  84   1    -0.01  -0.00   0.02    -0.02   0.00  -0.05    -0.00   0.00   0.00
  85   1    -0.00   0.01  -0.00     0.01  -0.02  -0.00    -0.00   0.00   0.00
  86   1     0.00   0.00  -0.02     0.04  -0.02   0.04    -0.00   0.00  -0.00
  87   1     0.01  -0.02  -0.01    -0.00   0.01   0.02     0.00  -0.00  -0.00
  88   1     0.00  -0.03   0.00    -0.03   0.04  -0.03     0.00  -0.00   0.00
  89   1     0.03  -0.00  -0.00    -0.01  -0.00   0.03     0.00   0.00   0.00
  90   1     0.03   0.03  -0.02    -0.01  -0.02   0.07     0.00   0.00  -0.00
  91   1     0.03  -0.00   0.01    -0.01   0.02  -0.04     0.00  -0.01   0.01
  92   1     0.02  -0.06   0.02    -0.01   0.03  -0.03     0.00  -0.00   0.00
                     28                     29                     30
                        a                      a                      a 
 Frequencies --   216.4677               221.5265               224.8527
 Red. masses --     3.0026                 4.8143                 9.3940
 Frc consts  --     0.0000                 0.0000                 0.0000
 IR Inten    --     0.3847                 0.3889                 0.0186
 Raman Activ --     0.0000                 0.0000                 0.0000
 Depolar     --     0.0000                 0.0000                 0.0000
 Atom AN      X      Y      Z        X      Y      Z        X      Y      Z
   1   6     0.09  -0.05  -0.01     0.11  -0.11  -0.00    -0.14   0.29   0.04
   2   6     0.04  -0.00   0.00     0.00  -0.02   0.03    -0.02   0.14  -0.01
   3   6     0.06  -0.06  -0.00    -0.02   0.06  -0.01     0.02  -0.00  -0.00
   4   6     0.07  -0.03   0.02     0.06  -0.05   0.03    -0.17   0.29  -0.09
   5   6     0.02  -0.00   0.01    -0.04  -0.04   0.04     0.04   0.14  -0.01
   6   6     0.01   0.01   0.00    -0.06  -0.01   0.00     0.05   0.08  -0.02
   7   6    -0.01  -0.00  -0.01    -0.04   0.02  -0.05     0.01   0.02  -0.02
   8   6    -0.05   0.01  -0.01    -0.02   0.01  -0.05     0.03   0.00  -0.02
   9   6    -0.05  -0.00  -0.01    -0.01  -0.02  -0.04     0.02   0.02  -0.01
  10   6    -0.02   0.01  -0.00    -0.04  -0.04   0.01     0.08   0.10  -0.01
  11   6    -0.02  -0.01  -0.01     0.03  -0.02  -0.04     0.01  -0.02   0.01
  12   6     0.01  -0.04   0.02     0.02  -0.00   0.00     0.05  -0.11   0.01
  13   6     0.05  -0.04   0.01    -0.01  -0.00   0.03     0.01  -0.14   0.02
  14   6     0.03  -0.01   0.01    -0.04   0.00   0.02    -0.05  -0.14   0.02
  15   6     0.07   0.08  -0.02    -0.06  -0.03   0.01     0.01  -0.01   0.00
  16   6     0.00  -0.01   0.01    -0.06  -0.00   0.03    -0.21  -0.25   0.11
  17   6    -0.03  -0.02   0.01    -0.13  -0.06   0.00    -0.21  -0.26  -0.01
  18   6     0.05  -0.02  -0.01    -0.00   0.02   0.00     0.03  -0.09   0.01
[...]
  38   6    -0.00   0.00   0.00    -0.04   0.01   0.04    -0.01   0.00   0.01
  39   6    -0.00  -0.00  -0.00    -0.02  -0.04  -0.09    -0.01  -0.01  -0.02
  40   7    -0.00  -0.00  -0.00     0.00   0.00   0.00    -0.00  -0.00   0.00
  41   6    -0.00  -0.00   0.00    -0.00  -0.00   0.00     0.00   0.00  -0.00
  42   6     0.00   0.00  -0.00     0.01   0.02  -0.01    -0.03  -0.07   0.02
  43   6     0.00   0.00  -0.01     0.03   0.00  -0.04    -0.09  -0.00   0.14
  44   6     0.00  -0.00  -0.00    -0.00   0.01   0.01     0.00  -0.01  -0.01
  45   6     0.00   0.01  -0.00     0.02   0.04  -0.01    -0.07  -0.14   0.05
  46   6     0.00   0.00  -0.00     0.01   0.00  -0.02    -0.05  -0.00   0.08
  47   6     0.02   0.03  -0.00    -0.01  -0.01   0.00     0.01   0.02  -0.00
  48   6    -0.02   0.05  -0.00     0.00  -0.01   0.00    -0.01   0.02  -0.00
  49   6    -0.02   0.03   0.03     0.00  -0.00  -0.00    -0.00   0.00   0.00
  50   6     0.06   0.05   0.05    -0.00  -0.00  -0.00     0.01   0.01   0.00
  51   1     0.00  -0.00   0.00    -0.00   0.00  -0.00     0.00  -0.00   0.00
  52   1    -0.00  -0.00   0.00     0.00  -0.00  -0.00    -0.00  -0.00   0.00
  53   1     0.00   0.00   0.00     0.00  -0.00  -0.00     0.00   0.00   0.00
  54   1     0.00   0.00  -0.00     0.00   0.00  -0.00     0.00  -0.00  -0.00
  55   1     0.00  -0.00   0.00    -0.00   0.00  -0.00     0.00  -0.00   0.00
  56   1     0.00   0.00   0.00     0.00   0.00   0.00     0.00   0.00   0.00
  57   1     0.00  -0.00   0.00     0.00  -0.00  -0.00     0.00  -0.00  -0.00
  58   1    -0.00  -0.00   0.00    -0.00  -0.00   0.00    -0.00  -0.00   0.00
  59   1     0.00   0.00  -0.00     0.00   0.00  -0.00     0.00   0.00  -0.00
  60   1    -0.01  -0.03   0.01     0.00   0.00  -0.00    -0.00  -0.00   0.00
  61   1    -0.04  -0.01   0.01     0.00   0.00  -0.00     0.00   0.00  -0.00
  62   1    -0.01  -0.00   0.00    -0.00  -0.00   0.00     0.00   0.00  -0.00
  63   1    -0.00   0.00   0.00    -0.00   0.00   0.00     0.00  -0.00   0.00
  64   1     0.00   0.00  -0.00    -0.00  -0.00   0.00    -0.00  -0.00   0.00
  65   1    -0.00   0.00   0.00     0.00   0.00   0.00     0.00   0.00   0.00
  66   1    -0.00   0.00  -0.00     0.00  -0.00   0.00     0.00   0.00  -0.00
  67   1     0.00   0.00  -0.00     0.00   0.00  -0.00    -0.00  -0.00   0.00
  68   1    -0.00   0.00  -0.00    -0.00   0.00  -0.00    -0.00   0.00  -0.00
  69   1     0.00  -0.00   0.00     0.00  -0.00   0.00     0.00  -0.00   0.00
  70   1     0.00   0.00  -0.00    -0.00  -0.00   0.00    -0.00   0.00   0.00
  71   1    -0.00   0.00  -0.00    -0.00   0.00  -0.00    -0.00   0.00   0.00
  72   1     0.00  -0.00  -0.00     0.00  -0.00  -0.00    -0.00  -0.00  -0.00
  73   1    -0.00   0.03  -0.00    -0.00   0.00  -0.00    -0.00   0.00  -0.00
  74   1    -0.01   0.00   0.00    -0.00   0.00  -0.00     0.00  -0.00   0.00
  75   1     0.29  -0.50  -0.45    -0.00   0.00   0.00    -0.00   0.00   0.00
  76   1    -0.27  -0.26  -0.25     0.00   0.00   0.00     0.00   0.00   0.00
  77   1    -0.01  -0.01   0.00    -0.00  -0.00   0.00     0.00   0.00  -0.00
  78   1     0.01  -0.03  -0.00    -0.01   0.01   0.00    -0.00   0.00   0.00
  79   1    -0.01   0.00   0.01    -0.25   0.04   0.24    -0.11   0.02   0.11
  80   1     0.00   0.00   0.01     0.10   0.21   0.44     0.03   0.06   0.14
  81   1     0.01   0.00   0.00     0.51   0.16   0.11     0.14   0.04   0.03
  82   1     0.00  -0.00  -0.00     0.15  -0.03  -0.14     0.04  -0.01  -0.03
  83   1     0.00   0.00   0.00     0.08   0.16   0.32     0.02   0.04   0.08
  84   1    -0.00  -0.00   0.00    -0.03  -0.07   0.02     0.12   0.24  -0.08
  85   1    -0.01  -0.00   0.02    -0.10  -0.00   0.15     0.31   0.02  -0.48
  86   1    -0.00   0.00   0.00     0.00  -0.02  -0.02    -0.00   0.02   0.02
  87   1    -0.01  -0.02   0.01    -0.07  -0.15   0.05     0.24   0.48  -0.17
  88   1    -0.01  -0.00   0.01    -0.04  -0.00   0.06     0.17   0.01  -0.27
  89   1    -0.07  -0.10   0.01     0.02   0.04  -0.00    -0.05  -0.07   0.01
  90   1     0.07  -0.17   0.00    -0.02   0.04  -0.00     0.02  -0.06   0.00
  91   1     0.06  -0.10  -0.09    -0.00   0.01   0.01     0.01  -0.01  -0.01
  92   1    -0.19  -0.18  -0.18     0.01   0.01   0.01    -0.02  -0.02  -0.02
                    265                    266                    267
                        a                      a                      a 
 Frequencies --  3095.3981              3099.6056              3100.7774
 Red. masses --     1.8760                 1.8702                 1.8829
 Frc consts  --     0.0000                 0.0000                 0.0000
 IR Inten    --    17.2445                38.2214                40.6709
 Raman Activ --     0.0000                 0.0000                 0.0000
 Depolar     --     0.0000                 0.0000                 0.0000
 Atom AN      X      Y      Z        X      Y      Z        X      Y      Z
   1   6     0.00   0.00  -0.00    -0.00  -0.00   0.00    -0.00   0.00   0.00
   2   6     0.00   0.00  -0.00     0.00  -0.00   0.00    -0.00   0.00   0.00
   3   6    -0.00   0.00   0.00     0.00  -0.00   0.00     0.00   0.00   0.00
   4   6     0.00   0.00   0.00    -0.00  -0.00   0.00    -0.00  -0.00  -0.00
   5   6    -0.00   0.00  -0.00     0.00  -0.00   0.00    -0.00   0.00  -0.00
   6   6     0.00   0.01  -0.00    -0.00  -0.00   0.00     0.00   0.00  -0.00
   7   6     0.01   0.00  -0.00    -0.00  -0.00   0.00     0.00  -0.00  -0.00
   8   6     0.00  -0.00  -0.00     0.00  -0.00  -0.00    -0.00   0.00   0.00
   9   6     0.00   0.00   0.00    -0.00  -0.00   0.00     0.00   0.00  -0.00
  10   6     0.00   0.00  -0.00    -0.00  -0.00   0.00    -0.00  -0.00   0.00
  11   6     0.00  -0.00  -0.00    -0.00   0.00  -0.00     0.00  -0.00   0.00
  12   6     0.00  -0.00  -0.00    -0.00   0.00   0.00    -0.00   0.00   0.00
  13   6    -0.00  -0.00   0.00     0.00   0.00  -0.00    -0.00  -0.00   0.00
  14   6    -0.00  -0.00   0.00     0.00   0.00  -0.00    -0.00  -0.00   0.00
  15   6    -0.00  -0.00   0.00     0.00   0.00  -0.00     0.00  -0.00  -0.00
  16   6     0.00  -0.00  -0.00     0.00   0.00   0.00    -0.00  -0.00   0.00
  17   6     0.00  -0.00   0.00    -0.00   0.00  -0.00    -0.00  -0.00  -0.00
  18   6     0.00  -0.01   0.00    -0.00   0.00  -0.00     0.00  -0.00   0.00
  19   6     0.01  -0.01   0.00    -0.00   0.00  -0.00     0.00   0.00   0.00
  20   6     0.00   0.00  -0.00     0.00   0.00   0.00    -0.00  -0.00  -0.00
  21   7     0.00  -0.00   0.00    -0.00   0.00   0.00     0.00  -0.00  -0.00
  22   6    -0.01   0.00   0.00     0.00  -0.00  -0.00    -0.00   0.00   0.00
  23   6    -0.03   0.06   0.05     0.00  -0.01  -0.01    -0.00   0.00   0.00
  24   6     0.03   0.03   0.03    -0.00  -0.00  -0.00     0.00   0.00   0.00
  25   6     0.01   0.00   0.00    -0.00   0.00   0.00     0.00  -0.00  -0.00
  26   6    -0.00  -0.00  -0.00     0.00  -0.00  -0.00    -0.00   0.00   0.00
  27   6    -0.00  -0.00   0.00     0.07   0.09  -0.01    -0.01  -0.01   0.00
  28   6    -0.01   0.03   0.00    -0.11   0.23   0.01     0.01  -0.02  -0.00
  29   6    -0.00   0.00   0.00    -0.01   0.00   0.00     0.00  -0.00  -0.00
  30   6     0.00   0.00   0.00     0.00   0.00   0.00    -0.00   0.00   0.00
  31   7     0.00  -0.00   0.00    -0.00  -0.00   0.00     0.00   0.00  -0.00
  32   7    -0.00  -0.00  -0.00     0.00  -0.00  -0.00    -0.00  -0.00   0.00
  33   6    -0.00   0.00   0.00    -0.00  -0.00  -0.00     0.00  -0.00  -0.00
  34   6     0.00   0.00   0.00    -0.00  -0.00  -0.00    -0.01  -0.00  -0.00
  35   6    -0.00   0.00   0.00    -0.00   0.00   0.00    -0.02   0.00   0.02
  36   6     0.00   0.00   0.00     0.00   0.00   0.00     0.01   0.02   0.04
  37   6     0.00   0.00   0.00     0.01   0.00   0.00     0.06   0.02   0.02
  38   6     0.00  -0.00  -0.00     0.01  -0.00  -0.01     0.08  -0.02  -0.07
  39   6    -0.00   0.00   0.00    -0.01  -0.01  -0.02    -0.06  -0.11  -0.21
  40   7     0.00  -0.00  -0.00     0.00   0.00   0.00     0.00  -0.00  -0.00
  41   6     0.00   0.00  -0.00    -0.00  -0.00  -0.00    -0.00   0.00   0.00
  42   6    -0.00  -0.00   0.00    -0.00  -0.00   0.00     0.00   0.00  -0.00
  43   6    -0.00  -0.00   0.00    -0.00  -0.00   0.00     0.00   0.00  -0.01
  44   6     0.00  -0.00  -0.00    -0.00   0.00   0.00     0.00  -0.01  -0.01
  45   6    -0.00  -0.00   0.00     0.00   0.00  -0.00    -0.00  -0.01   0.00
  46   6    -0.00  -0.00   0.00    -0.00   0.00   0.00    -0.00  -0.00   0.00
  47   6     0.01   0.01  -0.00    -0.01  -0.02   0.00     0.00   0.00  -0.00
  48   6    -0.01   0.01  -0.00     0.01  -0.02   0.00    -0.00   0.00  -0.00
  49   6     0.05  -0.09  -0.08    -0.01   0.01   0.01     0.00  -0.00  -0.00
  50   6    -0.13  -0.13  -0.13     0.01   0.01   0.01    -0.00  -0.00  -0.00
  51   1     0.00  -0.00   0.00    -0.00   0.00  -0.00     0.00  -0.00  -0.00
  52   1    -0.00  -0.00   0.00     0.00   0.00  -0.00     0.00   0.00  -0.00
  53   1     0.00   0.00   0.00     0.00   0.00   0.00    -0.00  -0.00  -0.00
  54   1    -0.00   0.00  -0.00     0.00   0.00  -0.00    -0.00  -0.00   0.00
  55   1     0.00  -0.00   0.00    -0.00   0.00  -0.00     0.00  -0.00   0.00
  56   1     0.00   0.00   0.00     0.00   0.00   0.00    -0.00  -0.00  -0.00
  57   1     0.00  -0.00   0.00    -0.00   0.00  -0.00     0.00  -0.00  -0.00
  58   1    -0.00  -0.00   0.00     0.00   0.00  -0.00     0.00   0.00  -0.00
  59   1     0.00   0.00  -0.00     0.00  -0.00  -0.00    -0.00  -0.00   0.00
  60   1    -0.01  -0.02   0.00     0.00   0.00  -0.00    -0.00  -0.00   0.00
  61   1    -0.02  -0.00   0.00     0.00   0.00  -0.00     0.00   0.00  -0.00
  62   1    -0.01  -0.00   0.00     0.00   0.00  -0.00     0.00   0.00  -0.00
  63   1    -0.01   0.00   0.00     0.00  -0.00  -0.00     0.00  -0.00  -0.00
  64   1     0.00   0.00  -0.00    -0.00  -0.00   0.00     0.00   0.00  -0.00
  65   1    -0.00  -0.00  -0.00     0.00  -0.00  -0.00    -0.00   0.00   0.00
  66   1     0.00  -0.00   0.00     0.00   0.00   0.00    -0.00   0.00  -0.00
  67   1     0.00   0.00  -0.00    -0.00  -0.00   0.00     0.00   0.00  -0.00
  68   1    -0.00   0.00  -0.00     0.00  -0.00  -0.00     0.00  -0.00   0.00
  69   1     0.00  -0.00   0.00     0.00   0.00  -0.00    -0.00   0.00  -0.00
  70   1     0.00   0.00  -0.00    -0.00  -0.00   0.00     0.00   0.00  -0.00
  71   1    -0.00   0.00  -0.00     0.00  -0.00  -0.00     0.00  -0.00  -0.00
  72   1     0.00  -0.00  -0.00     0.00   0.00   0.00    -0.00   0.00   0.00
  73   1    -0.00   0.03  -0.00     0.00  -0.00   0.00    -0.00   0.00  -0.00
  74   1    -0.04   0.02  -0.00     0.00  -0.00   0.00     0.00  -0.00   0.00
  75   1     0.11  -0.19  -0.17    -0.01   0.02   0.02     0.00  -0.00  -0.00
  76   1    -0.11  -0.11  -0.10     0.02   0.02   0.01    -0.00  -0.00  -0.00
  77   1     0.01   0.01  -0.00    -0.21  -0.30   0.02     0.02   0.03  -0.00
  78   1     0.05  -0.10  -0.00     0.36  -0.79  -0.02    -0.04   0.08   0.00
  79   1     0.00  -0.00  -0.00     0.00  -0.00  -0.00     0.07  -0.01  -0.07
  80   1    -0.00  -0.00  -0.00    -0.00  -0.00  -0.01    -0.03  -0.05  -0.12
  81   1    -0.00  -0.00  -0.00    -0.02  -0.01  -0.00    -0.21  -0.07  -0.05
  82   1    -0.00   0.00   0.00    -0.02   0.01   0.02    -0.26   0.05   0.24
  83   1    -0.00  -0.00  -0.00     0.02   0.04   0.07     0.19   0.37   0.73
  84   1     0.01   0.01  -0.00     0.01   0.01  -0.00    -0.00  -0.01   0.00
  85   1     0.01   0.00  -0.01     0.01   0.00  -0.01    -0.01  -0.00   0.02
  86   1    -0.00   0.00   0.00     0.00  -0.01  -0.01    -0.00   0.03   0.02
  87   1     0.01   0.01  -0.01    -0.00  -0.00   0.00     0.01   0.02  -0.01
  88   1     0.01   0.00  -0.01     0.00   0.00  -0.00     0.01   0.00  -0.02
  89   1    -0.02  -0.03   0.00     0.04   0.06  -0.00    -0.01  -0.01   0.00
  90   1     0.02  -0.05  -0.00    -0.03   0.06  -0.00     0.01  -0.01   0.00
  91   1    -0.17   0.30   0.27     0.02  -0.04  -0.04    -0.00   0.00   0.00
  92   1     0.46   0.45   0.43    -0.04  -0.03  -0.03     0.00   0.00   0.00
                    268                    269                    270
                        a                      a                      a 
 Frequencies --  3103.0007              3112.9094              3116.0212
 Red. masses --     1.9250                 1.8209                 1.8157
 Frc consts  --     0.0000                 0.0000                 0.0000
 IR Inten    --    36.4353                 4.2212                82.9548
 Raman Activ --     0.0000                 0.0000                 0.0000
 Depolar     --     0.0000                 0.0000                 0.0000
 Atom AN      X      Y      Z        X      Y      Z        X      Y      Z
   1   6    -0.00  -0.00   0.00    -0.00  -0.00  -0.00     0.00  -0.00   0.00
   2   6    -0.00  -0.00   0.00    -0.00  -0.00   0.00     0.00   0.00  -0.00
   3   6    -0.00  -0.00   0.00    -0.00  -0.00   0.00     0.00   0.00  -0.00
   4   6    -0.00  -0.00   0.00    -0.00  -0.00   0.00     0.00  -0.00  -0.00
   5   6     0.00  -0.00  -0.00    -0.00   0.00  -0.00     0.01  -0.01   0.00
   6   6    -0.00  -0.00   0.00     0.00   0.01  -0.00    -0.01  -0.01   0.00
   7   6    -0.00  -0.00   0.00     0.00   0.00  -0.00    -0.01  -0.00   0.00
   8   6     0.00  -0.00  -0.00     0.00   0.00  -0.00    -0.00  -0.00   0.00
   9   6    -0.00   0.00  -0.00    -0.00  -0.00   0.00     0.00   0.01  -0.00
  10   6     0.00   0.00  -0.00    -0.15  -0.03   0.02     0.22   0.05  -0.02
  11   6     0.00  -0.00   0.00     0.00  -0.01   0.00     0.00  -0.00   0.00
  12   6     0.00  -0.00  -0.00     0.20  -0.09  -0.00     0.14  -0.06  -0.00
  13   6     0.00   0.00  -0.00     0.01   0.00  -0.00     0.00   0.00  -0.00
  14   6     0.00  -0.00  -0.00     0.00  -0.00   0.00     0.00  -0.00  -0.00
  15   6    -0.00   0.00  -0.00     0.00  -0.00   0.00     0.00  -0.00   0.00
  16   6     0.00  -0.00  -0.00     0.00  -0.00   0.00     0.00   0.00   0.00
  17   6     0.00  -0.00   0.00     0.00  -0.00  -0.00     0.00   0.00  -0.00
  18   6     0.00  -0.00   0.00    -0.00   0.01  -0.00    -0.00   0.01  -0.00
  19   6     0.00  -0.00   0.00    -0.00   0.00  -0.00    -0.01   0.00  -0.00
  20   6     0.00   0.00   0.00    -0.00   0.00   0.00    -0.00   0.00  -0.00
  21   7    -0.00   0.00   0.00     0.00   0.00  -0.00     0.00  -0.00  -0.00
  22   6     0.00  -0.00  -0.00    -0.00   0.00  -0.00    -0.00   0.00   0.00
  23   6     0.00  -0.00  -0.00     0.00  -0.00  -0.00     0.00  -0.00  -0.00
  24   6    -0.00  -0.00  -0.00    -0.00  -0.00  -0.00    -0.00  -0.00  -0.00
  25   6    -0.00   0.00   0.00    -0.00   0.00   0.00    -0.00   0.00   0.00
  26   6     0.00  -0.00  -0.00    -0.00   0.00   0.00    -0.00   0.00   0.00
  27   6     0.00   0.00  -0.00     0.00   0.00  -0.00     0.00   0.00  -0.00
  28   6    -0.00   0.00   0.00    -0.00   0.00   0.00    -0.00   0.00   0.00
  29   6    -0.00   0.00  -0.00    -0.00   0.00   0.00    -0.00   0.00   0.00
  30   6     0.00   0.00   0.00    -0.00  -0.00  -0.00    -0.00  -0.00  -0.00
  31   7    -0.00  -0.00  -0.00    -0.00   0.00   0.00    -0.00   0.00   0.00
  32   7     0.00  -0.00  -0.00     0.00   0.00   0.00     0.00   0.00   0.00
  33   6    -0.00   0.00   0.00     0.00  -0.00  -0.00     0.00  -0.00  -0.00
  34   6     0.00   0.00   0.00    -0.00  -0.00  -0.00    -0.00  -0.00  -0.00
  35   6     0.00  -0.00  -0.00    -0.00   0.00   0.00    -0.00   0.00   0.00
  36   6    -0.00  -0.00  -0.00     0.00   0.00   0.00     0.00   0.00   0.00
  37   6    -0.00  -0.00  -0.00     0.00   0.00   0.00     0.00   0.00   0.00
  38   6    -0.00   0.00   0.00     0.00  -0.00  -0.00     0.00  -0.00  -0.00
  39   6     0.00   0.00   0.01    -0.00  -0.00  -0.00    -0.00  -0.00  -0.00
  40   7     0.00  -0.00  -0.00    -0.00   0.00   0.00    -0.00   0.00   0.00
  41   6    -0.00   0.00   0.00     0.00  -0.00  -0.00    -0.00  -0.00  -0.00
  42   6     0.02   0.05  -0.02    -0.00  -0.00   0.00    -0.00  -0.00   0.00
  43   6     0.08   0.01  -0.12    -0.00  -0.00   0.00    -0.00  -0.00   0.00
  44   6     0.02  -0.16  -0.11    -0.00   0.00   0.00    -0.00   0.00   0.00
  45   6    -0.06  -0.11   0.04     0.00   0.00  -0.00     0.00   0.00  -0.00
  46   6    -0.03  -0.00   0.05     0.00   0.00  -0.00     0.00   0.00  -0.00
  47   6    -0.00  -0.00   0.00    -0.00  -0.00   0.00    -0.00  -0.00   0.00
  48   6     0.00  -0.00   0.00    -0.00   0.00  -0.00     0.00  -0.00  -0.00
  49   6    -0.00   0.00   0.00    -0.00   0.00   0.00    -0.00   0.00   0.00
  50   6     0.00   0.00   0.00     0.00   0.00   0.00     0.00   0.00   0.00
  51   1    -0.00   0.00  -0.00     0.00  -0.00   0.00    -0.00   0.00  -0.00
  52   1     0.00   0.00  -0.00     0.00   0.00  -0.00     0.00   0.00  -0.00
  53   1     0.00  -0.00  -0.00     0.00   0.00   0.00    -0.00  -0.00  -0.00
  54   1     0.00   0.00  -0.00     0.00   0.00  -0.01    -0.00  -0.01   0.01
  55   1    -0.00   0.00  -0.00    -0.00   0.00  -0.00     0.00  -0.00   0.00
  56   1     0.00   0.00   0.00     0.00   0.01   0.00    -0.00  -0.01  -0.01
  57   1    -0.00  -0.00  -0.00     0.00  -0.00   0.00    -0.00   0.00  -0.00
  58   1     0.00   0.00  -0.00     0.00   0.00  -0.00     0.00   0.00  -0.00
  59   1     0.00   0.00  -0.00    -0.00   0.00  -0.00     0.00  -0.00   0.00
  60   1     0.00   0.00  -0.00    -0.01  -0.02   0.00     0.02   0.04  -0.01
  61   1     0.00   0.00  -0.00    -0.01  -0.00   0.00     0.02   0.00  -0.00
  62   1    -0.00  -0.00   0.00     0.53   0.11  -0.05    -0.77  -0.15   0.08
  63   1    -0.00   0.00   0.00    -0.72   0.32   0.01    -0.50   0.22   0.01
  64   1    -0.00  -0.00   0.00     0.00   0.00  -0.00     0.00   0.00  -0.00
  65   1     0.00  -0.00  -0.00    -0.00   0.01   0.01    -0.00   0.01   0.00
  66   1     0.00  -0.00   0.00    -0.00   0.01  -0.01    -0.00   0.00  -0.01
  67   1     0.00  -0.00   0.00    -0.00  -0.00   0.00    -0.00  -0.00   0.00
  68   1    -0.00   0.00  -0.00    -0.00   0.00  -0.00     0.00  -0.00   0.00
  69   1     0.00  -0.00   0.00     0.00   0.00  -0.00    -0.00   0.00  -0.00
  70   1     0.00  -0.00   0.00    -0.00  -0.00   0.00    -0.00  -0.00   0.00
  71   1    -0.00   0.00   0.00    -0.00   0.00  -0.00     0.00  -0.00  -0.00
  72   1     0.00  -0.00  -0.00     0.00   0.00   0.00     0.00   0.00   0.00
  73   1    -0.00   0.00  -0.00     0.01  -0.04   0.01     0.01  -0.03   0.01
  74   1    -0.00   0.00  -0.00     0.02  -0.01   0.00     0.02  -0.01   0.00
  75   1    -0.00   0.00   0.00    -0.00   0.00   0.00    -0.00   0.00   0.00
  76   1     0.00   0.00   0.00     0.00   0.00   0.00     0.00   0.00   0.00
  77   1    -0.01  -0.01   0.00    -0.00  -0.00   0.00    -0.00  -0.00   0.00
  78   1     0.01  -0.02  -0.00     0.00  -0.00  -0.00     0.00  -0.00  -0.00
  79   1    -0.00   0.00   0.00     0.00  -0.00  -0.00     0.00  -0.00  -0.00
  80   1     0.00   0.01   0.01    -0.00  -0.00  -0.00    -0.00  -0.00  -0.00
  81   1     0.02   0.00   0.00    -0.00  -0.00  -0.00    -0.00  -0.00  -0.00
  82   1     0.01  -0.00  -0.01    -0.00   0.00   0.00    -0.00   0.00   0.00
  83   1    -0.01  -0.02  -0.03     0.00   0.00   0.00     0.00   0.00   0.00
  84   1    -0.07  -0.15   0.05     0.00   0.00  -0.00     0.00   0.00  -0.00
  85   1    -0.26  -0.01   0.40     0.00  -0.00  -0.00     0.00   0.00  -0.00
  86   1    -0.08   0.54   0.35     0.00  -0.00  -0.00     0.00  -0.00  -0.00
  87   1     0.18   0.38  -0.13    -0.00  -0.00   0.00    -0.00  -0.00   0.00
  88   1     0.10   0.00  -0.15    -0.00  -0.00   0.00    -0.00  -0.00   0.00
  89   1     0.00   0.00   0.00     0.00   0.00  -0.00     0.00   0.00  -0.00
  90   1    -0.00   0.01  -0.00     0.00  -0.00   0.00    -0.00   0.00   0.00
  91   1     0.00  -0.00  -0.00     0.00  -0.00  -0.00     0.00  -0.00  -0.00
  92   1    -0.00  -0.00  -0.00    -0.00  -0.00  -0.00    -0.00  -0.00  -0.00
