$hessian                                                                        
        0.6084693854  -0.1547800934   0.0248337997  -0.2655081651   0.0790791855
        0.1109028664  -0.0584962582   0.0152562411  -0.0430737412  -0.0178689998
        0.0065720639   0.0315730297   0.0340026727  -0.0116692657  -0.0139883868
       -0.0932347739   0.0142796216  -0.0103852958  -0.0029629741   0.0028671892
       -0.0052590549  -0.0004968158   0.0002111401   0.0006070072   0.0000476327
       -0.0002210906  -0.0002846226  -0.0000758078   0.0000664377   0.0004099500
       -0.0003005455  -0.0001472275  -0.0006504016   0.0010403176  -0.0003134926
        0.0003479777  -0.0015495687   0.0004413356  -0.0003171011  -0.0000805917
       -0.0000251240  -0.0001374712  -0.0001602020  -0.0000709793  -0.0000051569
       -0.0000178608   0.0000413458   0.0000148071   0.0000690188  -0.0000310515
       -0.0000022599   0.0000101971  -0.0000789943   0.0000111839   0.0001123977
        0.0001084157  -0.0000279039  -0.0000058324  -0.0001561581  -0.0000342665
        0.0000097968   0.0000254030  -0.0001736883  -0.0000954271   0.0001517084
       -0.0000439110  -0.0000184833  -0.0000332531   0.0000284035   0.0000367731
       -0.0000332420   0.0000007612   0.0000267457  -0.0000141053  -0.0000028101
       -0.0000121892   0.0000129211   0.0000113438   0.0000175575  -0.0000093175
        0.0000048315  -0.0000118014   0.0000048148   0.0000037802  -0.0000095043
       -0.0000006827  -0.0000004678   0.0000008575  -0.0000187484   0.0000088244
        0.0000047890  -0.0000126117   0.0000020873   0.0000626951   0.0000840982
        0.0000069380  -0.1915536056   0.0394269920  -0.1201495636  -0.0040914964
        0.0017888473   0.0029722583  -0.0021185582   0.0029103240  -0.0033200598
       -0.0051514158   0.0041558771   0.0263097323  -0.0000496088   0.0000630273
       -0.0001971583  -0.0000288658   0.0000154950   0.0000110428   0.0000359113
        0.0000305230   0.0000330005   0.0000204030  -0.0000034638  -0.0000086321
        0.0000142121   0.0000495047  -0.0000496179  -0.0000024413   0.0000279804
       -0.0000006608   0.0000015922   0.0000140681  -0.0000099105  -0.0000049759
        0.0000150644   0.0000011733  -0.0000147444  -0.0000414015  -0.0000262632
       -0.0000214909  -0.0000188516   0.0000110717  -0.0000136542  -0.0000118696
        0.0000085184  -0.0000088647  -0.0000034750   0.0000084544  -0.0000055743
       -0.0000034933   0.0000091773  -0.0000103969  -0.0000000184   0.0000071414
       -0.0000014610  -0.0000016140   0.0000092435
       -0.1547800934   0.1676056401   0.0389752078   0.0723824271  -0.0743700365
       -0.0421595241   0.0201105004  -0.0038246098   0.0185024356   0.0063170165
       -0.0090130243  -0.0128487705  -0.0164359773   0.0065284515  -0.0003112236
        0.0207765636  -0.0539899281  -0.0210669425   0.0031805170   0.0065914482
        0.0014722329   0.0002324626  -0.0000954720  -0.0002923890  -0.0001590361
       -0.0005049725   0.0001961453   0.0000194912   0.0000014469  -0.0001581870
       -0.0000958646  -0.0004948591   0.0002890892  -0.0005985797   0.0001807533
       -0.0003158273   0.0005967400  -0.0003133855   0.0000900770   0.0000437007
        0.0000266439   0.0000890404   0.0000297126   0.0000142921   0.0000053138
       -0.0000014951  -0.0000080010  -0.0000163997  -0.0000126510   0.0000139433
       -0.0000011370   0.0000080942   0.0000234454  -0.0000091279  -0.0000366291
       -0.0000463081  -0.0000109122  -0.0000009768   0.0000502326   0.0000160889
       -0.0000093830  -0.0000117866   0.0000103552   0.0000517143  -0.0000729777
        0.0000265370   0.0000175208   0.0000184860   0.0000055814  -0.0000155095
        0.0000119859   0.0000083209  -0.0000120551   0.0000064118   0.0000055534
        0.0000054402  -0.0000069825   0.0000122920  -0.0000044134   0.0000005069
       -0.0000021336   0.0000036465  -0.0000048048   0.0000075381   0.0000024577
        0.0000015669   0.0000006963  -0.0000050761   0.0000052136   0.0000015285
       -0.0000012457  -0.0000003374  -0.0000067304  -0.0000254924  -0.0000249574
        0.0000086434   0.0394138002  -0.0440001188   0.0290450582   0.0038271189
       -0.0007417809  -0.0022933807   0.0028769795   0.0070122495   0.0002552628
        0.0021667521  -0.0008176992  -0.0095370789   0.0000829245   0.0001682867
        0.0000423559   0.0000019010  -0.0000289514  -0.0000006447   0.0000207950
        0.0000842381  -0.0000194522   0.0000068386   0.0000212400  -0.0000100149
       -0.0000072822  -0.0000096795  -0.0000055783  -0.0000020198  -0.0000086249
       -0.0000121633  -0.0000002609  -0.0000079785  -0.0000092591   0.0000039427
       -0.0000050307  -0.0000070622   0.0000004710   0.0000320173   0.0000229421
        0.0000098408   0.0000107605   0.0000056029   0.0000064632   0.0000011756
        0.0000045889   0.0000047716   0.0000021747   0.0000059777   0.0000030566
       -0.0000052437   0.0000017186   0.0000024939  -0.0000035025  -0.0000063976
       -0.0000021138  -0.0000015571  -0.0000058477
        0.0248337997   0.0389752078   0.6504508367   0.0348262999  -0.0178693444
       -0.1263684789   0.0124756248   0.0007905725   0.0554793331   0.0285659395
       -0.0118985204  -0.0376067910  -0.0688121663   0.0171047018  -0.0537411939
        0.0643437920  -0.0448863073  -0.3202326962  -0.0017315704   0.0003509866
        0.0050856386   0.0008676721  -0.0003765889  -0.0011192612   0.0004135557
       -0.0000197392   0.0006370021  -0.0001131116   0.0000110773  -0.0002820706
       -0.0002534504   0.0001843031   0.0004808509  -0.0030507269   0.0007955529
       -0.0023757362   0.0016347547  -0.0005756226  -0.0002759371   0.0000784305
        0.0000731418   0.0000251913   0.0001088359  -0.0000225794   0.0000583982
       -0.0000416350   0.0000032732   0.0000144198  -0.0000082899   0.0000053847
        0.0000039389   0.0000556123   0.0000388189   0.0000162207   0.0000051634
       -0.0000654842  -0.0000003219   0.0000658050   0.0000418852  -0.0000003553
        0.0000239097  -0.0001074072   0.0000803441   0.0000806338  -0.0000318410
        0.0000862967  -0.0000034940   0.0000191780  -0.0000119842  -0.0000685709
       -0.0000318459  -0.0000062808   0.0000535259  -0.0000013974  -0.0000027759
        0.0000137182   0.0000120525  -0.0000172135  -0.0000067703  -0.0000036937
        0.0000054994  -0.0000118929  -0.0000017366   0.0000005021  -0.0000048276
        0.0000134319   0.0000045569   0.0000011790   0.0000135703  -0.0000033158
        0.0000154937   0.0000055712   0.0000099868   0.0000214548  -0.0000215182
       -0.0000062437  -0.1201455507   0.0290824482  -0.1417555794   0.0261034076
       -0.0096667189  -0.0144828954  -0.0037995818   0.0004044230  -0.0013039581
        0.0035282160  -0.0023163250  -0.0126414137   0.0000675779  -0.0000253494
       -0.0000420688  -0.0000035957   0.0000186768   0.0000062843   0.0000067043
       -0.0000083187   0.0000070777   0.0000069855  -0.0000111761  -0.0000763211
       -0.0000873353  -0.0000236956  -0.0000245768   0.0000012566  -0.0000211513
        0.0000130929  -0.0000036746  -0.0000021456   0.0000074781   0.0000058977
       -0.0000226883  -0.0000048823  -0.0000564782   0.0000672367  -0.0000512594
        0.0000021059   0.0000150387  -0.0000104260  -0.0000093667  -0.0000152972
       -0.0000142303   0.0000009335   0.0000051759  -0.0000079486   0.0000054610
       -0.0000001821  -0.0000037102   0.0000028516  -0.0000060937  -0.0000005493
       -0.0000045091   0.0000010591  -0.0000024735
       -0.2655081651   0.0723824271   0.0348262999   0.5932838473  -0.1516192112
        0.0097394854  -0.2282575752   0.0522854756  -0.0686666762   0.0328354209
       -0.0166220961  -0.0726519772  -0.0572834646   0.0155349879  -0.0091637010
        0.0121572953   0.0039717602   0.0856739434  -0.0000164616   0.0000127871
        0.0008387086  -0.0001215579   0.0000318619   0.0000358598  -0.0001237869
        0.0000558814   0.0000809355   0.0000869027  -0.0000412422  -0.0001158046
        0.0000713565   0.0000189652   0.0003033592  -0.0015272600   0.0004032931
       -0.0014730822   0.0047700195   0.0008437126   0.0021384285  -0.0005034813
        0.0006342109   0.0000027603   0.0001269640  -0.0000882909   0.0001085484
       -0.0000737954   0.0000166171  -0.0000094542  -0.0000126000   0.0000440448
        0.0000081129   0.0000091349  -0.0000045491  -0.0000268073   0.0000078605
       -0.0000950003   0.0000644409   0.0001488158   0.0001378442   0.0000323296
       -0.0003573426  -0.0002712415   0.0006149585   0.0001728793  -0.0000347009
        0.0001206432   0.0000026985   0.0000270348  -0.0000190975  -0.0001552343
       -0.0001010446   0.0000115289   0.0001478873   0.0000432014   0.0000104836
        0.0000060766   0.0000354417   0.0000071404  -0.0000057154  -0.0000083430
       -0.0000058757   0.0000015345  -0.0000054479  -0.0000017487   0.0000247037
        0.0000047885  -0.0000068297   0.0000117068   0.0000366418   0.0000019919
       -0.0000084170   0.0000031019  -0.0000229362   0.0000798740   0.0000081243
       -0.0000678225  -0.0235553876   0.0082519480   0.0068039247  -0.0454589456
        0.0059606121   0.0253802443  -0.0233046992   0.0063810171  -0.0145267220
        0.0019305224   0.0019627356   0.0002548744   0.0002247707  -0.0000760036
       -0.0000934430   0.0000489776  -0.0000218887  -0.0000235622   0.0000280235
       -0.0000216296  -0.0000252759   0.0000091437  -0.0000086385  -0.0000606212
        0.0000066955  -0.0000422294  -0.0000240748   0.0000039941  -0.0000242315
       -0.0000150422   0.0000169189  -0.0000167587  -0.0000018713   0.0000367443
       -0.0000192513  -0.0000161130   0.0000088916   0.0000385874  -0.0000190882
        0.0000230778   0.0000234635  -0.0000156321  -0.0000014001  -0.0000130912
        0.0000032729   0.0000019678   0.0000038349  -0.0000017240   0.0000006402
       -0.0000022900  -0.0000017927  -0.0000001619  -0.0000047439  -0.0000019365
       -0.0000098945  -0.0000124779  -0.0000035634
        0.0790791855  -0.0743700365  -0.0178693444  -0.1516192112   0.1673970727
        0.0446930229   0.0455576669  -0.0597850609   0.0106749000  -0.0117547745
        0.0060226300   0.0185700706   0.0157262728  -0.0107654891   0.0038856826
       -0.0009613777  -0.0010510838  -0.0292229238  -0.0000976825  -0.0002543376
       -0.0005003002  -0.0000012985  -0.0000037774   0.0000629786   0.0000122827
        0.0000207449  -0.0000496362  -0.0000226313   0.0000038259   0.0000411676
       -0.0000009489  -0.0000324545  -0.0001394745   0.0005144351  -0.0001166258
        0.0003613676   0.0008426931   0.0066527366  -0.0016518030  -0.0005889658
       -0.0000699770  -0.0009236124  -0.0001068508   0.0001350733   0.0000092576
        0.0000623229  -0.0000351001   0.0000670610  -0.0000208156  -0.0000078904
        0.0000005964  -0.0000388470  -0.0000034135   0.0000937792  -0.0001164678
        0.0002231199   0.0000244351   0.0001354519   0.0000827212  -0.0000506660
        0.0008731286  -0.0000634881   0.0006963127   0.0000159765  -0.0000311564
       -0.0000507126   0.0000316989  -0.0000195648  -0.0000360148  -0.0000138577
        0.0000061424   0.0000116689   0.0000299200   0.0000067139  -0.0000074391
       -0.0000047615   0.0000139380   0.0000188296   0.0000063793  -0.0000004146
        0.0000003807  -0.0000019498   0.0000060644   0.0000076355  -0.0000101108
        0.0000032071   0.0000058287  -0.0000044067  -0.0000055957   0.0000051363
       -0.0000012942   0.0000010137  -0.0000186987   0.0000214907  -0.0000232685
       -0.0000494705   0.0062379618  -0.0016334364  -0.0017205105   0.0059439693
       -0.0381537011  -0.0308728689   0.0083796541  -0.0015509900   0.0051295002
        0.0020115608   0.0072738039  -0.0012724687  -0.0000804710   0.0000190073
        0.0000360174  -0.0000180887   0.0000028958   0.0000102136  -0.0000098498
       -0.0000006683   0.0000069958   0.0000057075  -0.0000084317   0.0000189391
        0.0000327246   0.0000202052  -0.0000426879   0.0000033262   0.0000172449
       -0.0000118344  -0.0000041817   0.0000079744  -0.0000189127  -0.0000163323
        0.0000265736   0.0000125367  -0.0000323507   0.0000198377   0.0000344782
       -0.0000039662   0.0000098192   0.0000134692   0.0000005381  -0.0000021461
        0.0000056287   0.0000010186   0.0000065092   0.0000066657   0.0000024130
        0.0000013801   0.0000045034   0.0000017259   0.0000022098  -0.0000014143
        0.0000019882   0.0000056428   0.0000017342
        0.1109028664  -0.0421595241  -0.1263684789   0.0097394854   0.0446930229
        0.6622100790  -0.1450549040   0.0350260476  -0.1744895527  -0.0165441676
        0.0006904509  -0.0522304892  -0.0071297962   0.0032434686   0.0049690005
        0.0289046175  -0.0110894751  -0.0203671046  -0.0003356003  -0.0001280604
       -0.0029372849  -0.0004093341   0.0001965159   0.0008460515  -0.0004477520
        0.0001178855  -0.0002347362   0.0001095588  -0.0000355667   0.0000506806
        0.0003118446  -0.0001346332  -0.0004112189   0.0000653780  -0.0001330706
       -0.0013967146   0.0020264498  -0.0015434483  -0.0033788338   0.0000203430
       -0.0000289280   0.0002165828   0.0001027001   0.0000291378   0.0001072647
        0.0000164207   0.0000388282  -0.0000156693  -0.0000387688  -0.0000024662
        0.0000056873  -0.0000066297   0.0000368476  -0.0000058115  -0.0000755600
       -0.0001193618   0.0000031727  -0.0000378520   0.0001084215   0.0000164341
       -0.0000624330   0.0000497993   0.0001039196   0.0000282508  -0.0000765389
        0.0001495117   0.0000423822  -0.0000338123   0.0000060564  -0.0001582792
       -0.0000555086  -0.0000052421   0.0001411036   0.0000250965   0.0000090555
        0.0000220270   0.0000284824  -0.0000163660  -0.0000123147  -0.0000039315
        0.0000070337  -0.0000057123  -0.0000088844   0.0000057862   0.0000207707
        0.0000203845   0.0000020192   0.0000031968   0.0000319257   0.0000008481
       -0.0000016757  -0.0000085720   0.0000118999  -0.0000064749   0.0000415007
       -0.0000273878  -0.0162774373   0.0056447965   0.0055494101   0.0253213208
       -0.0308804478  -0.2929239900   0.0080409495  -0.0020973248   0.0062189399
        0.0008148752  -0.0014398309  -0.0055840057  -0.0000616461   0.0000267522
        0.0000708943   0.0000094773   0.0000125170   0.0000213431   0.0000229446
       -0.0000075043  -0.0000216854   0.0000409332  -0.0000225640   0.0000305677
       -0.0000331832   0.0000039618  -0.0000721942  -0.0000006221  -0.0000245317
       -0.0000015924   0.0000168717  -0.0000169951   0.0000004252   0.0000220268
       -0.0000134930  -0.0000132237  -0.0000293154  -0.0000069249  -0.0000877440
        0.0000028689   0.0000175117  -0.0000128614  -0.0000133689  -0.0000184864
       -0.0000033596  -0.0000011450   0.0000087220  -0.0000014013   0.0000045159
        0.0000019598   0.0000005574   0.0000013609  -0.0000050264  -0.0000003270
       -0.0000115679   0.0000008750  -0.0000059457
       -0.0584962582   0.0201105004   0.0124756248  -0.2282575752   0.0455576669
       -0.1450549040   0.6136744819  -0.1605700059  -0.0048813844  -0.0910841064
        0.0203127908   0.0681912329   0.0119302612  -0.0011491646   0.0274369688
       -0.0057373917  -0.0014360587  -0.0240119205  -0.0035651601   0.0034188783
        0.0041319001   0.0004076838   0.0000362788   0.0007262298  -0.0001122993
       -0.0001048070   0.0003755784  -0.0000510272  -0.0000162113  -0.0003787033
        0.0005514624   0.0000717304  -0.0003518988  -0.0022619909   0.0006593764
       -0.0027373864   0.0004184781  -0.0020445040  -0.0180729444   0.0003677189
       -0.0012112913  -0.0011703651  -0.0000760916   0.0003084891  -0.0000881870
        0.0001568518  -0.0000946166   0.0000867206  -0.0001476927  -0.0000271388
        0.0000375857  -0.0000322829   0.0000494419   0.0001212083  -0.0002295763
       -0.0000305009  -0.0000200051  -0.0000388318   0.0001196254   0.0000029172
        0.0007846903   0.0005780701  -0.0012362423  -0.0001856655  -0.0001010090
       -0.0001341103   0.0000789223   0.0000467016   0.0000697221   0.0002599867
        0.0002986371  -0.0000691133  -0.0004008155  -0.0000380634   0.0000542287
       -0.0000016835  -0.0001523536  -0.0000081510   0.0000258450   0.0000319787
       -0.0000072422   0.0000094169  -0.0000014237  -0.0000012757  -0.0000012177
       -0.0000098363  -0.0000025812  -0.0000028709  -0.0000861234   0.0000312091
        0.0000712577   0.0000028284   0.0000096619  -0.0001608724  -0.0001554643
        0.0001339376  -0.0036285140   0.0036795995   0.0018255645   0.0013387123
       -0.0001579118  -0.0000462932  -0.2360156959   0.0722123342   0.0831521512
        0.0004518554  -0.0002427706  -0.0004544639   0.0000883884  -0.0000017267
       -0.0000249735   0.0000312276  -0.0000179536   0.0000521460   0.0000174592
       -0.0000692414  -0.0000992018   0.0000034356   0.0000212380  -0.0000039859
       -0.0000121144  -0.0000411350   0.0000132094   0.0000107327   0.0000792887
       -0.0000018535  -0.0000328699   0.0000639189  -0.0000236183  -0.0000578062
        0.0000589143  -0.0000083021   0.0000130285   0.0000590654   0.0000348731
       -0.0000395333  -0.0000634606  -0.0000007031   0.0000044126   0.0000325052
       -0.0000360793  -0.0000208657  -0.0000263384  -0.0000062181  -0.0000263695
        0.0000008056  -0.0000070957  -0.0000232432   0.0000211883  -0.0000113685
        0.0000041126   0.0000172586  -0.0000120981
        0.0152562411  -0.0038246098   0.0007905725   0.0522854756  -0.0597850609
        0.0350260476  -0.1605700059   0.1691974621   0.0489121660   0.0146758915
       -0.0548039683  -0.0470189021   0.0030092841  -0.0011023049  -0.0106519671
       -0.0011777918  -0.0030394145   0.0033935396   0.0032202701   0.0048801351
       -0.0015504826   0.0000529338   0.0002370379  -0.0004193575  -0.0000726655
       -0.0005296864  -0.0000485392  -0.0000175505  -0.0000043668   0.0000942988
        0.0001270548   0.0008454231  -0.0000022119   0.0008106349   0.0003965562
        0.0006856322  -0.0012234547  -0.0007109716   0.0039874539  -0.0000036631
        0.0004765184   0.0002680571   0.0001088797  -0.0001347353   0.0001122102
       -0.0001001014   0.0001878395   0.0000195702   0.0001106758   0.0000678201
       -0.0000148375  -0.0000116121  -0.0000688369  -0.0000084571  -0.0000350034
       -0.0000999609   0.0000376502   0.0001056130  -0.0001715900  -0.0000155870
       -0.0000750892   0.0000901310   0.0003748669  -0.0000844477   0.0000837645
       -0.0000462371   0.0001223367   0.0000546466  -0.0000680511  -0.0000500977
       -0.0000188419   0.0000329853   0.0000771567   0.0000592860  -0.0000471643
        0.0000144505  -0.0000181524   0.0000369820  -0.0000138762  -0.0000055899
       -0.0000096860  -0.0000009648  -0.0000175730   0.0000037147   0.0000030999
        0.0000077808  -0.0000019012  -0.0000163333   0.0000079489  -0.0000043298
        0.0000249694  -0.0000091854  -0.0000068146   0.0000116956   0.0000344167
       -0.0000504863   0.0037233962   0.0061522464  -0.0012096299  -0.0021643589
        0.0013597558  -0.0020042843   0.0721500645  -0.0596219817  -0.0307627888
       -0.0002425321  -0.0000864691   0.0001406037  -0.0000213532   0.0001031406
        0.0000093501  -0.0000219262  -0.0000153870  -0.0000062741  -0.0000580038
       -0.0001568267   0.0000509074   0.0000232130   0.0000166701   0.0000093215
        0.0000318578   0.0000389977  -0.0000233005  -0.0000026614  -0.0000144231
        0.0000062128   0.0000156575  -0.0000168245  -0.0000094554   0.0000265989
       -0.0000236634  -0.0000078825  -0.0000378224  -0.0000217831  -0.0000185134
        0.0000088294   0.0000250509  -0.0000034080   0.0000016885  -0.0000127986
        0.0000209040   0.0000065143   0.0000061794   0.0000033292   0.0000047037
       -0.0000044306  -0.0000003358  -0.0000000631  -0.0000064226  -0.0000029148
       -0.0000078086  -0.0000029485  -0.0000025763
       -0.0430737412   0.0185024356   0.0554793331  -0.0686666762   0.0106749000
       -0.1744895527  -0.0048813844   0.0489121660   0.6501852976   0.0031848350
       -0.0263430987  -0.3329290910   0.0755749842  -0.0260435889  -0.0210894570
       -0.0209315754   0.0024115157  -0.0526933338   0.0017821433  -0.0008004683
        0.0034656984   0.0010649227  -0.0005201638  -0.0019222669   0.0007763553
       -0.0001713902   0.0003332919  -0.0003717639   0.0000962118  -0.0003253129
        0.0001611444  -0.0001835881  -0.0004389444  -0.0012704953   0.0001945780
       -0.0014503777  -0.0071812910   0.0006845119  -0.0216956240   0.0005932738
       -0.0014853079  -0.0003985263  -0.0003959947  -0.0001773935   0.0000764188
        0.0001012327   0.0000090358   0.0000631603   0.0001278001  -0.0000422557
       -0.0000440887   0.0000114143  -0.0002428761   0.0000111716   0.0001811326
        0.0001302414   0.0000104305   0.0000217589  -0.0001578822  -0.0000031684
        0.0013811730   0.0007117866  -0.0005661684  -0.0001368515   0.0003999050
       -0.0000488694  -0.0000394971  -0.0000964333   0.0000343697   0.0002578416
        0.0000417549  -0.0000114600  -0.0001087557  -0.0000435696  -0.0000214121
       -0.0000199855   0.0000001647   0.0000087214   0.0000053816  -0.0000052720
        0.0000005996   0.0000184569   0.0000130842  -0.0000010870  -0.0000137636
       -0.0000292083   0.0000114648   0.0000225015  -0.0000274449  -0.0000139585
       -0.0000156322  -0.0000288270   0.0000165356   0.0001464141   0.0001277773
        0.0000369018   0.0022419394  -0.0013466892   0.0002247839  -0.0228607063
        0.0052939596  -0.0218090831   0.0828227604  -0.0307030314  -0.0801085176
       -0.0004866269   0.0001449752  -0.0002595034  -0.0002765659   0.0000791567
        0.0000763538  -0.0000764801   0.0000240894   0.0000673219   0.0000275352
        0.0000183934   0.0000429513   0.0001218041  -0.0000282672   0.0001638798
        0.0001796371   0.0002201348  -0.0000993990  -0.0000093076   0.0000661406
        0.0000211735   0.0000184479   0.0000106672  -0.0000095698   0.0000074034
        0.0000519532   0.0000214536   0.0000137978  -0.0003070708   0.0000013935
       -0.0000300430  -0.0000424382   0.0000416180   0.0000042657   0.0000232707
        0.0000101435  -0.0000072565  -0.0000094703   0.0000058130  -0.0000118496
        0.0000008870   0.0000029442  -0.0000045498   0.0000085465   0.0000029218
        0.0000204366  -0.0000165072   0.0000126255
       -0.0178689998   0.0063170165   0.0285659395   0.0328354209  -0.0117547745
       -0.0165441676  -0.0910841064   0.0146758915   0.0031848350   0.5226764873
       -0.1236992039  -0.0253844025  -0.2374250196   0.0657920574   0.0882716115
       -0.0527988849   0.0137915569  -0.0353190965  -0.0055253545   0.0057746541
        0.0314548714   0.0021171562  -0.0004339921  -0.0047420255   0.0014307216
       -0.0002333826   0.0024421674  -0.0013138079   0.0004174993  -0.0001204830
       -0.0015383092   0.0008245686   0.0011803627   0.0028693888   0.0000950846
       -0.0021179639  -0.1070670842   0.0100601791  -0.0706989858  -0.0112686088
        0.0121876242  -0.0071276875   0.0006400506  -0.0016626803  -0.0000152968
       -0.0004981379   0.0002837310   0.0003337845  -0.0000132119  -0.0000396032
       -0.0000013259  -0.0003011472   0.0005663457   0.0003543760   0.0000858730
        0.0000095244  -0.0005579911  -0.0018779804  -0.0012366165  -0.0003551384
       -0.0244948640  -0.0026587992  -0.0147883400   0.0007088726   0.0008287708
       -0.0000613127  -0.0002947451   0.0002799964   0.0006245833  -0.0004617147
       -0.0003269897   0.0001029964   0.0004753775   0.0001493677  -0.0001026033
        0.0001476730   0.0000563446  -0.0000573940  -0.0001467229  -0.0000255660
       -0.0000283730  -0.0000097415  -0.0000997064   0.0000297849   0.0001249652
        0.0000749016  -0.0000337513  -0.0000540862   0.0002505353  -0.0000386087
       -0.0000422748  -0.0000735401   0.0002021833  -0.0007776174   0.0002999866
        0.0007115421   0.0003341245  -0.0000160266   0.0008051488  -0.0024826932
        0.0029405743  -0.0038974390  -0.0053644366   0.0045006762   0.0272804129
       -0.0019094480   0.0029003365  -0.0030437487  -0.0001996184   0.0000617416
        0.0001439366   0.0000034397  -0.0000735689   0.0000065900  -0.0001258813
        0.0000295954   0.0000990059  -0.0002307904   0.0000388052  -0.0002406918
        0.0000206338  -0.0002484582  -0.0000270007   0.0000134544  -0.0003391621
       -0.0000406824   0.0000849762  -0.0001902844  -0.0000711382   0.0001688140
       -0.0001484193   0.0000231735   0.0001168150  -0.0000522194  -0.0003373357
        0.0002056955   0.0002083213  -0.0001014488   0.0000208881  -0.0000432124
        0.0000236774   0.0000450128   0.0000396161  -0.0000161397   0.0000461121
       -0.0000103463   0.0000092339   0.0000365386  -0.0000463284   0.0000187694
       -0.0000332042  -0.0000424223   0.0000015864
        0.0065720639  -0.0090130243  -0.0118985204  -0.0166220961   0.0060226300
        0.0006904509   0.0203127908  -0.0548039683  -0.0263430987  -0.1236992039
        0.1864988593   0.0577577977   0.0610763717  -0.0774593728  -0.0327655154
        0.0177162503  -0.0042777363   0.0156278291   0.0050257284   0.0011884919
       -0.0136518251  -0.0003308604   0.0022954137   0.0011553491  -0.0005285955
        0.0000995053  -0.0010028861   0.0005393463  -0.0001434811  -0.0001106826
        0.0009469637   0.0002569270  -0.0006308318  -0.0004267203   0.0034517139
       -0.0035730096   0.0125176962  -0.0573291156   0.0171829673   0.0174191171
       -0.0075604994   0.0183160124   0.0009088566  -0.0007009717   0.0000005556
       -0.0002114595   0.0002731206  -0.0009802008   0.0002516516   0.0000613652
        0.0000478039   0.0005623741  -0.0002499400  -0.0011376609   0.0009442841
       -0.0027867895  -0.0002840782  -0.0017572687  -0.0013080418   0.0004386812
       -0.0075392796   0.0027265576  -0.0106731456  -0.0012763674  -0.0000427233
        0.0000016364  -0.0000404253   0.0001133080   0.0004415654   0.0006172881
        0.0002937977  -0.0000832671  -0.0007291514  -0.0000893803  -0.0000124418
        0.0000452142  -0.0002709976  -0.0000154613  -0.0000030963   0.0000440702
       -0.0000240220   0.0000170818  -0.0000093779   0.0000045440   0.0000015613
        0.0000178621  -0.0000055951  -0.0000121083  -0.0000994388   0.0000204561
        0.0000676521  -0.0000555752   0.0001274007  -0.0004423447   0.0001878079
        0.0006920509  -0.0000048929   0.0000646039  -0.0002664108   0.0029948909
        0.0068793882   0.0004336870   0.0025137579  -0.0004403125  -0.0099679892
        0.0028843573   0.0071226530   0.0001529744   0.0000303461  -0.0000618214
       -0.0000290988  -0.0000785663  -0.0001889353  -0.0000218157   0.0000415435
       -0.0000514667  -0.0000456001   0.0000635915  -0.0000380922   0.0000777612
       -0.0001849899  -0.0000735319   0.0005308155  -0.0000055223   0.0000293537
        0.0000967971  -0.0000010445   0.0000270667   0.0002029048   0.0000658177
       -0.0001878669  -0.0001165794  -0.0000798116  -0.0003770047  -0.0003007303
       -0.0000751043  -0.0001105130  -0.0000091682  -0.0000010221   0.0000551507
       -0.0000271217  -0.0000240009  -0.0000252157  -0.0000054572  -0.0000263383
        0.0000029868  -0.0000036795  -0.0000247525   0.0000240479  -0.0000023649
       -0.0000115740   0.0000185130  -0.0000117824
        0.0315730297  -0.0128487705  -0.0376067910  -0.0726519772   0.0185700706
       -0.0522304892   0.0681912329  -0.0470189021  -0.3329290910  -0.0253844025
        0.0577577977   0.7106573401   0.0344827314  -0.0155820145  -0.1086156264
        0.0093609498   0.0013897652   0.0502759952   0.0230040253  -0.0110081413
       -0.0382338598  -0.0035809434   0.0007932029  -0.0018415412  -0.0009553059
        0.0000724927  -0.0026550498   0.0013923394  -0.0005854569  -0.0015723717
        0.0026843678  -0.0010565878  -0.0020319556  -0.0061571527  -0.0020421050
       -0.0432964197  -0.0502887826   0.0100584041  -0.1227055119  -0.0066332588
        0.0081777621  -0.0014171334   0.0003310559  -0.0013445560   0.0002226873
       -0.0003582332   0.0001022401   0.0000257564   0.0000418896   0.0000758441
       -0.0000059729  -0.0000051043   0.0002695625  -0.0000826884   0.0007572087
       -0.0005961746  -0.0006408787   0.0012075153   0.0001727070  -0.0007097674
       -0.0074893662  -0.0032613379   0.0019967756   0.0011229600   0.0007610675
        0.0001894904  -0.0001137467   0.0001509943  -0.0001351970  -0.0006113133
       -0.0005073727   0.0001114678   0.0007412354   0.0001489392  -0.0000228223
        0.0001031441   0.0001834130   0.0000035316  -0.0000971888  -0.0000434840
        0.0000120785  -0.0000116687  -0.0000543180   0.0000143186   0.0000877118
        0.0000617813  -0.0000020367  -0.0000041706   0.0002387331  -0.0000348537
       -0.0000086527   0.0000032104  -0.0000377536   0.0000395902  -0.0000087538
       -0.0002815005   0.0008312187  -0.0002944278  -0.0000377061  -0.0033610918
        0.0002649045  -0.0015524527   0.0045492116  -0.0027306278  -0.0131534754
       -0.0033742724   0.0002524108  -0.0014163000  -0.0001921471   0.0000805220
        0.0001460974  -0.0001033009   0.0000007610  -0.0004112445   0.0001385302
       -0.0000676421  -0.0001558731  -0.0000296414   0.0000112135   0.0000288070
        0.0001281865   0.0001051463   0.0000568631   0.0000337084  -0.0002823461
       -0.0000245928   0.0000946476  -0.0001523742   0.0000081270   0.0001801903
       -0.0001799339  -0.0000404093   0.0000068244  -0.0001308113   0.0001399419
        0.0002062251   0.0002057353  -0.0000533257   0.0000145233  -0.0000601233
        0.0000386289   0.0000508157   0.0000462321  -0.0000055104   0.0000520933
       -0.0000107295   0.0000046827   0.0000409696  -0.0000512404   0.0000138985
       -0.0000364108  -0.0000366821  -0.0000062862
        0.0340026727  -0.0164359773  -0.0688121663  -0.0572834646   0.0157262728