$hessian                                                                        
        0.6296190345  -0.2369231538  -0.1331538168  -0.5190012213   0.1985290691
        0.1046754182  -0.0209779378   0.0432335417   0.0128302317  -0.0049721064
       -0.0059797088  -0.0002689934  -0.0004243109   0.0014956342   0.0001229903
       -0.0000467441  -0.0014130432  -0.0002183983  -0.0003352969   0.0020694597
        0.0001688648   0.0049210376   0.0038597121   0.0003259724  -0.0016067061
       -0.0026697183  -0.0004646296   0.0015157212   0.0002401661   0.0000031312
       -0.0006695369  -0.0070652763  -0.0006204231  -0.0049727714  -0.0036261297
        0.0002995974   0.0037406114   0.0043985581  -0.0000723332  -0.0024752958
       -0.0019542250   0.0004846397   0.0003040496  -0.0003004800  -0.0002114727
        0.0002636118   0.0001873112  -0.0003269343  -0.0000708662   0.0003966034
       -0.0002771272   0.0010852847  -0.0009738622   0.0000609636  -0.0011982356
        0.0010046406  -0.0000135894   0.0007154525   0.0001638364  -0.0002656068
       -0.0001816560  -0.0001203484   0.0000101428   0.0001655506   0.0000008836
       -0.0000020901  -0.0000007989   0.0001057761  -0.0000129423  -0.0000269719
       -0.0001016004   0.0000278640  -0.0000033636   0.0002665582  -0.0000260688
       -0.0002547201  -0.0000475766   0.0000257537   0.0000976026   0.0000614757
       -0.0000283337  -0.0001176177  -0.0000299332   0.0000145624   0.0000148156
       -0.0001856753  -0.0000039424   0.0001267005   0.0001843126  -0.0000235010
       -0.0000749199  -0.0006510922   0.0002759789  -0.0003186440  -0.0000158511
        0.0001934842  -0.0002584848  -0.0002640630   0.0002611017  -0.0036557638
        0.0003617230   0.0001093412   0.0003816879   0.0103391416   0.0016674496
       -0.0830330422  -0.0037377868   0.0146135645   0.0017054532   0.0004777186
       -0.0000999500   0.0001717222   0.0001582423   0.0000050405   0.0002069748
       -0.0001343177   0.0000020224   0.0000667717   0.0003226023  -0.0000150840
       -0.0005117198  -0.0006076779  -0.0000640390   0.0000827274  -0.0000438754
       -0.0000989368  -0.0000691889   0.0000327701   0.0000598200   0.0000262120
        0.0000376582  -0.0000088949  -0.0000269031  -0.0000365316   0.0000013574
       -0.0000608930  -0.0000019350   0.0000016043  -0.0000353083   0.0000364028
        0.0000048530  -0.0000490104   0.0000333017   0.0000011295  -0.0000081648
        0.0000622210   0.0000037257   0.0000265220   0.0000110611   0.0000030109
       -0.0000367476  -0.0000338422   0.0000156425  -0.0000399008   0.0000560536
       -0.0000464266   0.0000345342  -0.0000243167   0.0001607892   0.0000355922
       -0.0001030439  -0.0000349362   0.0002071787  -0.0010813703  -0.0000715772
       -0.2369231538   0.1950641202   0.0655095322   0.1959413760  -0.1626882170
       -0.0484833013   0.0477752824  -0.0390894747  -0.0165411696   0.0047365569
        0.0003305296  -0.0007354850   0.0012356090   0.0009706287   0.0002752740
        0.0011354532   0.0006766053  -0.0000459732   0.0016344958  -0.0032931865
       -0.0004597083  -0.0013564671  -0.0061461845  -0.0012978640  -0.0020105150
       -0.0039257426  -0.0001963773   0.0002036076   0.0012090558   0.0000289403
       -0.0033374900   0.0007957124   0.0002490655  -0.0009373161   0.0007524697
        0.0003602324  -0.0012421908  -0.0003782837   0.0000750873   0.0003797742
        0.0005790934  -0.0000153545   0.0000501178  -0.0001111977  -0.0000104342
       -0.0001143172  -0.0000444432   0.0000523809   0.0000006740  -0.0000334001
        0.0000563489  -0.0000832374   0.0000808792  -0.0000203974   0.0001267432
       -0.0000088824   0.0000024989  -0.0000754505   0.0000030974   0.0000103195
        0.0000223717  -0.0000111238   0.0000042160  -0.0000078202  -0.0000032962
        0.0000025959  -0.0000032250  -0.0000000389   0.0000018867  -0.0000065267
        0.0000185329  -0.0000000205   0.0000032714  -0.0000320318   0.0000047645
        0.0000024876   0.0000313636  -0.0000026107  -0.0000109177  -0.0000277276
        0.0000041520   0.0000211654   0.0000150714  -0.0000018510  -0.0000368851
        0.0000009094   0.0000102691  -0.0000021957  -0.0000011740   0.0000070301
        0.0000066281  -0.0000548590  -0.0000107316   0.0000386570  -0.0000159648
       -0.0000112336   0.0000577388   0.0001071019  -0.0000601078   0.0017621888
        0.0014940615   0.0001771817  -0.0032136323  -0.0038582506  -0.0001831389
       -0.0051435378   0.0174502797   0.0011915406   0.0001523000  -0.0003492238
       -0.0001405059  -0.0000811255   0.0000901427   0.0000140043   0.0000260042
       -0.0000116605  -0.0000829612   0.0000362058  -0.0008121053  -0.0000819172
       -0.0002758723  -0.0001142290   0.0001430461  -0.0000197120   0.0000151562
        0.0000120448  -0.0000000837   0.0000063512  -0.0000030733  -0.0000036415
        0.0000063602   0.0000002459   0.0000058437   0.0000097193  -0.0000004984
        0.0000094478   0.0000039945  -0.0000007824   0.0000015951  -0.0000013318
       -0.0000018267   0.0000134668  -0.0000024994  -0.0000033846  -0.0000024395
        0.0000018405  -0.0000047429   0.0000058496   0.0000284048  -0.0000114885
        0.0000023329  -0.0000307107  -0.0000043959  -0.0000136614  -0.0000030271
       -0.0000045743   0.0000093398  -0.0000090020  -0.0000033085   0.0001075672
        0.0001474625   0.0000155907  -0.0006027376   0.0011683250   0.0002109708
       -0.1331538168   0.0655095322   0.0520649043   0.1042912844  -0.0488611637
       -0.0767635531   0.0135464165  -0.0156696534   0.0107876267   0.0015931085
        0.0008037073   0.0003268200   0.0001030325   0.0001861639  -0.0011716557
        0.0002364451   0.0003072160   0.0001609008   0.0001491672  -0.0006367748
       -0.0014672582  -0.0006075602  -0.0019990321   0.0018343879  -0.0002207829
       -0.0001722389  -0.0003073889  -0.0000974742   0.0000856051   0.0005431017
        0.0000803433   0.0007486888   0.0027537792   0.0003404810   0.0008189448
       -0.0011941964  -0.0006405164  -0.0007591921   0.0000533259   0.0004226849
        0.0003246661   0.0001349325  -0.0000871092   0.0000679554   0.0000815457
       -0.0000295915  -0.0000306095   0.0000536568  -0.0000060092  -0.0000415819
        0.0000396401  -0.0001807666   0.0001447807   0.0000074492   0.0001907168
       -0.0001510013   0.0000150508  -0.0001112999  -0.0000254354   0.0000358368
        0.0000288173   0.0000173002   0.0000023369  -0.0000237982   0.0000002474
        0.0000020612   0.0000001592  -0.0000162423   0.0000039312   0.0000039246
        0.0000179002  -0.0000022954   0.0000002865  -0.0000423060   0.0000053331
        0.0000389748   0.0000100500  -0.0000032102  -0.0000160511  -0.0000115513
        0.0000068933   0.0000199126   0.0000070865   0.0000007112  -0.0000045042
        0.0000282020   0.0000070507  -0.0000193632  -0.0000262875   0.0000135428
        0.0000109057   0.0000880145  -0.0000481145   0.0000751090  -0.0000130318
       -0.0000381576   0.0000340664   0.0000330545  -0.0000934531   0.0006108730
        0.0003399391  -0.0010016559  -0.0004398891  -0.0021746701   0.0000264262
        0.0142505770   0.0009162202   0.0133335853  -0.0002031432  -0.0001291295
        0.0001191733  -0.0000352429  -0.0000140508   0.0000430334   0.0000212394
       -0.0000433018   0.0003357992  -0.0000460245  -0.0001183218  -0.0003921844
       -0.0000222670   0.0001569055  -0.0004444499  -0.0000180825   0.0000035498
        0.0000174573   0.0000045432  -0.0000078020  -0.0000094764  -0.0000042381
       -0.0000049264  -0.0000005581   0.0000038987   0.0000055709  -0.0000010900
        0.0000092337   0.0000007007  -0.0000009616   0.0000053141  -0.0000054795
       -0.0000018516   0.0000083698  -0.0000052855  -0.0000016391   0.0000007413
       -0.0000095283  -0.0000026328  -0.0000043144   0.0000009300  -0.0000057710
        0.0000053393   0.0000010437  -0.0000101333   0.0000086406  -0.0000185506
        0.0000048902  -0.0000077906   0.0000081440  -0.0000251266   0.0000124634
        0.0000340446   0.0000415296  -0.0001274341   0.0003209843   0.0001301003
       -0.5190012213   0.1959413760   0.1042912844   0.7537780861  -0.1164268047
       -0.1100769389  -0.0641820574  -0.0074942508  -0.0013455180   0.0065253439
       -0.0197327068  -0.0041915304  -0.0034679722  -0.0060153590   0.0005663477
       -0.0018457232   0.0009870732   0.0003452057  -0.0041173300   0.0025037730
        0.0019902263  -0.0088281570   0.0197357784   0.0044310961   0.0062514047
        0.0069284823   0.0000122326  -0.0018901335  -0.0019203270  -0.0002364356
       -0.0382884529  -0.0077614369   0.0044512843   0.0024092615   0.0104907322
        0.0018370364  -0.0082708046  -0.0070946688   0.0006190321   0.0052558546
        0.0042288161  -0.0012347574  -0.0007727129   0.0005796539   0.0004391575
       -0.0002668083  -0.0003080015   0.0004579959   0.0001091218  -0.0006478248
        0.0004383562  -0.0017827384   0.0016166654  -0.0000733791   0.0019378510
       -0.0017596669   0.0000251041  -0.0011630862  -0.0002851247   0.0004641418
        0.0002889166   0.0002023745  -0.0000211979  -0.0002808423   0.0000108450
       -0.0000010101   0.0000095643  -0.0001878210   0.0000199573   0.0000458006
        0.0001527399  -0.0000490098  -0.0000067985  -0.0004345305   0.0000404048
        0.0004487836   0.0000452949  -0.0000422466  -0.0001518457  -0.0000524753
        0.0000426248   0.0001786927   0.0000255966  -0.0000222258  -0.0000067574
        0.0003159435  -0.0000054146  -0.0001635826  -0.0003186252   0.0000220348
        0.0001257274   0.0012407910  -0.0004802869   0.0005386700  -0.0000141301
       -0.0003286867   0.0004572757   0.0002457583  -0.0004174480   0.0100285306
        0.0027121955   0.0005572650  -0.0028899404  -0.0276655872  -0.0039769137
       -0.1286268867  -0.0506448476   0.0019304878  -0.0017017658  -0.0020586088
       -0.0005293341  -0.0002279130  -0.0015344779  -0.0002498841  -0.0002816636
        0.0001495375  -0.0002029490  -0.0002079004   0.0013128281   0.0003627769
       -0.0007027119  -0.0001053023   0.0002114972  -0.0001300348   0.0000940964
        0.0001430774   0.0001223873  -0.0000543641  -0.0001016888  -0.0000329277
       -0.0000596336   0.0000138046   0.0000447024   0.0000512824  -0.0000027423
        0.0000946428  -0.0000009734  -0.0000026192   0.0000616476  -0.0000622308
       -0.0000061687   0.0000691208  -0.0000558793   0.0000019755   0.0000117678
       -0.0001065458  -0.0000000047  -0.0000548106  -0.0000637116   0.0000112891
        0.0000571626   0.0000754003  -0.0000125816   0.0000897754  -0.0001051855
        0.0001072697  -0.0001055094   0.0000527725  -0.0001749650   0.0004536154
        0.0006550421   0.0000884213   0.0000553817   0.0026162527  -0.0001354501
        0.1985290691  -0.1626882170  -0.0488611637  -0.1164268047   0.5197307884
        0.0768498036   0.0025785060  -0.1709919250  -0.0182562918  -0.0180027826
       -0.0360254370  -0.0037964499  -0.0052729703   0.0016581915  -0.0005115468
       -0.0022374292  -0.0023185979  -0.0000571681   0.0031276334   0.0083825379
       -0.0004445939   0.0141749948  -0.0208468284  -0.0051734034   0.0072026465
        0.0146052099   0.0019442662  -0.0027624312  -0.0039022968  -0.0001518370
       -0.0027922376   0.0032450287   0.0012024683   0.0073782623   0.0053097564
       -0.0015364359  -0.0027761100  -0.0050423591   0.0000935749   0.0031190139
        0.0016962042  -0.0006108359  -0.0006327671   0.0006523052   0.0004012431
        0.0000346258  -0.0000768992   0.0001640416   0.0000288321  -0.0003030351
        0.0001759201  -0.0008778908   0.0007870534  -0.0000002140   0.0008505315
       -0.0010380961   0.0000145186  -0.0005212118  -0.0001766475   0.0002495285
        0.0001184294   0.0001390242  -0.0000215259  -0.0001551502   0.0000173003
       -0.0000065746   0.0000099424  -0.0001093225   0.0000073204   0.0000395972
        0.0000469697  -0.0000283775  -0.0000153001  -0.0001789868   0.0000129907
        0.0002636356  -0.0000452096  -0.0000194985  -0.0000591978   0.0000352497
        0.0000145859   0.0000563686  -0.0000180436  -0.0000085343   0.0000743189
        0.0001794388  -0.0000247460  -0.0000749613  -0.0001840121  -0.0000048859
        0.0000575675   0.0008779979  -0.0002580986   0.0002322628   0.0000233943
       -0.0001898743   0.0001424626  -0.0000563251  -0.0001531717   0.0031561071
       -0.0057797258  -0.0021608020  -0.0261338810  -0.0308714241  -0.0007526341
       -0.0633719554  -0.1159194419   0.0010709386   0.0012118500   0.0002942550
        0.0003935280   0.0003438052  -0.0002497100  -0.0000423165   0.0000212823
        0.0001209236   0.0003895043   0.0000424443   0.0003933817  -0.0000093155
        0.0009134114   0.0007209372  -0.0002915110  -0.0000429987   0.0000215691
        0.0000687801   0.0000535888  -0.0000386033  -0.0000479933  -0.0000124413
       -0.0000504706   0.0000079506   0.0000092398   0.0000083535   0.0000000455
        0.0000287668  -0.0000069414   0.0000009658   0.0000278241  -0.0000287183
        0.0000004713   0.0000038113  -0.0000225886   0.0000100784   0.0000090889
       -0.0000589109   0.0000112762  -0.0000521752  -0.0001007672   0.0000322074
        0.0000239065   0.0001071962   0.0000022946   0.0000751446  -0.0000449699
        0.0000707661  -0.0000578714   0.0000490544  -0.0000951246  -0.0010137490
       -0.0008792609  -0.0000064238  -0.0006466549  -0.0010483498   0.0003322796
        0.1046754182  -0.0484833013  -0.0767635531  -0.1100769389   0.0768498036
        0.1926226163   0.0002518700  -0.0168747804  -0.0671433129  -0.0038087286
       -0.0036536775   0.0010157480   0.0007469581  -0.0003831647   0.0083714098
       -0.0001974006  -0.0004861538  -0.0004664731   0.0021490828  -0.0002570839
        0.0075320448   0.0033987339  -0.0059875646  -0.0026796121  -0.0002241741
        0.0019352759  -0.0038384846  -0.0003284720  -0.0002541194  -0.0003590387
        0.0051288386   0.0020483788  -0.0023426556   0.0020213840  -0.0018032069
        0.0064996334   0.0004992244   0.0004785173  -0.0002819494  -0.0003049445
       -0.0000529558  -0.0010457476   0.0000702476  -0.0001418348  -0.0002114956
       -0.0000161963   0.0000237771  -0.0000231559   0.0000476476   0.0000002598
       -0.0000141373   0.0001400198  -0.0000945820  -0.0000360517  -0.0001468277
        0.0000996758  -0.0000164612   0.0000839428   0.0000148086  -0.0000261416
       -0.0000245025  -0.0000084215  -0.0000028995   0.0000167621   0.0000014159
       -0.0000017788   0.0000005119   0.0000107777  -0.0000032182  -0.0000036688
       -0.0000153950   0.0000017873   0.0000005284   0.0000336432  -0.0000041629
       -0.0000261857  -0.0000125353   0.0000028892   0.0000129470   0.0000128464
       -0.0000056590  -0.0000174142  -0.0000061651  -0.0000006110   0.0000077344
       -0.0000187936  -0.0000076237   0.0000100846   0.0000180172  -0.0000136979
       -0.0000082441  -0.0000485531   0.0000371444  -0.0000990241   0.0000524064
        0.0000437829   0.0000015944  -0.0000040626   0.0001286285   0.0001902671
       -0.0024198845   0.0069797473  -0.0035191244  -0.0006908925   0.0007941600
       -0.0002489122  -0.0006327944  -0.0623006285   0.0000650801   0.0008635006
       -0.0028526561   0.0000659930   0.0001989690  -0.0001764833  -0.0002372277
        0.0003569395  -0.0020293323   0.0001005692  -0.0002293112   0.0005456691
        0.0003289195  -0.0000184409   0.0006845049   0.0000153399  -0.0000065061
       -0.0000145063   0.0000023595   0.0000077487   0.0000073377   0.0000032723
        0.0000006367   0.0000008331  -0.0000043782  -0.0000055021   0.0000012167
       -0.0000085171  -0.0000006086   0.0000010886  -0.0000042801   0.0000045277
        0.0000021171  -0.0000081668   0.0000045937   0.0000025926  -0.0000000321
        0.0000067081   0.0000036940   0.0000017515  -0.0000041137   0.0000079307
       -0.0000026418   0.0000043336   0.0000114136  -0.0000041284   0.0000242359
       -0.0000008258   0.0000154585  -0.0000090956   0.0000023238  -0.0002135884
       -0.0002636898   0.0000039852  -0.0005188221  -0.0001846070  -0.0026419455
       -0.0209779378   0.0477752824   0.0135464165  -0.0641820574   0.0025785060
        0.0002518700   0.6564019490   0.0108794208  -0.0712521901  -0.2428153611
       -0.0730050047   0.0135485449   0.0321772589  -0.0696305121  -0.0156880801
       -0.0575846990  -0.0064526805   0.0057596902   0.0152482173   0.0722955583
        0.0109396066  -0.2518458193   0.0559395410   0.0366898085  -0.0350769788
       -0.0005501321   0.0043824343  -0.0021495070  -0.0031752164  -0.0000615150
        0.0008385527   0.0022920106   0.0001364359  -0.0004722581   0.0001625833
       -0.0000985395   0.0001616181  -0.0001325036  -0.0000354654   0.0000659809
        0.0001319770   0.0000619466   0.0000061783   0.0000011916  -0.0000266662
       -0.0000236540  -0.0000083748   0.0000175148  -0.0000061687  -0.0000256606
        0.0000339133  -0.0000990698   0.0000768008  -0.0000119694   0.0001140549
       -0.0000703355   0.0000042346  -0.0000949941  -0.0000175484   0.0000223886
        0.0000205190   0.0000137766  -0.0000008597  -0.0000165950  -0.0000013772
        0.0000001605  -0.0000023864  -0.0000061625   0.0000015665  -0.0000003256
        0.0000100461  -0.0000016114   0.0000084534  -0.0000305006   0.0000034752
        0.0000312868   0.0000080264  -0.0000014377  -0.0000106296  -0.0000059889
        0.0000034010   0.0000194423   0.0000110483  -0.0000020932   0.0000112772
        0.0000366612   0.0000017522  -0.0000517393   0.0000050199   0.0000085560
        0.0000115757   0.0000438041  -0.0000222744   0.0000369111   0.0000097638
       -0.0000129024   0.0000024135   0.0000287735   0.0000041830   0.0000233066
       -0.0012997040  -0.0003480953  -0.0040733564  -0.0029290913   0.0005039805
        0.0006331055  -0.0218368072  -0.0016553057  -0.0268449910  -0.0130811076
        0.0014998901   0.0010807459   0.0004886812   0.0009994663  -0.0006748703
       -0.0002051275  -0.0000679566   0.0008093927  -0.0001330578   0.0008223498
       -0.0000878258  -0.0000663091   0.0000070108  -0.0000019235   0.0000043183
       -0.0000092610   0.0000036205   0.0000000375  -0.0000102416   0.0000010560
       -0.0000040992  -0.0000002093   0.0000043581   0.0000072478  -0.0000007367
        0.0000117092   0.0000015878  -0.0000001206   0.0000059707  -0.0000058317
       -0.0000001557   0.0000127968  -0.0000071466   0.0000013328   0.0000046350
       -0.0000141490   0.0000022314  -0.0000120238   0.0000180020   0.0000037306
        0.0000012886  -0.0000199591  -0.0000043432  -0.0000110088  -0.0000001709
       -0.0000030324   0.0000061344  -0.0000196545  -0.0000102321  -0.0003447835
       -0.0002270125  -0.0000162274  -0.0002928451   0.0001415600   0.0000836306
        0.0432335417  -0.0390894747  -0.0156696534  -0.0074942508  -0.1709919250
       -0.0168747804   0.0108794208   0.5767315535   0.0763312173  -0.1295475548
       -0.1556895030  -0.0008706640  -0.0167017273  -0.0468439775  -0.0062429758
       -0.0053309647   0.0049203864   0.0025567413   0.0272752538  -0.0282125917
       -0.0090359851   0.0976071001  -0.1159395702  -0.0237236945  -0.0067182368
        0.0043092479   0.0021752201  -0.0075964681   0.0008414729   0.0004142736
        0.0030833545   0.0001927586  -0.0006367008  -0.0005019103  -0.0006089305
        0.0002203748   0.0021427616   0.0004065644  -0.0004463968  -0.0010268279
       -0.0004260539   0.0003044220   0.0002800292  -0.0002830780  -0.0001560907
       -0.0000784122   0.0000224923  -0.0000391342   0.0000025818   0.0000845992
       -0.0000497676   0.0003363214  -0.0002733165  -0.0000220574  -0.0003038923
        0.0003813337  -0.0000050740   0.0001934327   0.0000695940  -0.0000918058
       -0.0000415226  -0.0000562965   0.0000086145   0.0000533657  -0.0000085146
        0.0000033013  -0.0000054534   0.0000378180  -0.0000021036  -0.0000104660
       -0.0000162872   0.0000103355  -0.0000020499   0.0000641145  -0.0000034775
       -0.0001016434   0.0000208672   0.0000076576   0.0000181555  -0.0000209113
       -0.0000045377  -0.0000177055   0.0000066770   0.0000046981  -0.0000480739
       -0.0000714717   0.0000152283   0.0000518838   0.0000566426  -0.0000019825
       -0.0000216968  -0.0003222118   0.0000930211  -0.0000784514  -0.0000133874
        0.0000649700  -0.0000416017   0.0000761119   0.0000459887  -0.0018970639
       -0.0010953598   0.0002718002  -0.0023481680   0.0018138368   0.0003973256
       -0.0128923041  -0.0278830234  -0.0049135784   0.0075650004   0.0075983225
        0.0001574911   0.0001390230  -0.0055515636  -0.0023071562  -0.0001709998
        0.0009840654   0.0003082915  -0.0000081395  -0.0057730208  -0.0023068212
        0.0000323151   0.0000054149   0.0000556739   0.0000132854   0.0000010901
       -0.0000249804  -0.0000154640   0.0000174807   0.0000207550   0.0000018579
        0.0000233290  -0.0000032694  -0.0000017424   0.0000006329  -0.0000001602
       -0.0000076555   0.0000025853  -0.0000005656  -0.0000101230   0.0000095121
       -0.0000006468   0.0000001837   0.0000071495  -0.0000045782  -0.0000083748
        0.0000263466  -0.0000058667   0.0000221028   0.0000320172  -0.0000171186
        0.0000045770  -0.0000354569   0.0000058076  -0.0000221157   0.0000153714
       -0.0000215185   0.0000132390  -0.0000103633   0.0000384735  -0.0002068773
       -0.0001362450  -0.0000073744   0.0003091507   0.0005931459  -0.0000211662
        0.0128302317  -0.0165411696   0.0107876267  -0.0013455180  -0.0182562918
       -0.0671433129  -0.0712521901   0.0763312173   0.1405667843   0.0039781791
       -0.0082997111  -0.0517622163  -0.0068014102   0.0007825474   0.0041408706
        0.0060407826   0.0026781622  -0.0063149805   0.0031035101  -0.0152054588
        0.0011740612   0.0437290591  -0.0182017118  -0.0599069937   0.0030821017
        0.0010568628  -0.0015787279  -0.0007080681   0.0000932701   0.0023626581
        0.0004090850  -0.0003989947   0.0004104160  -0.0002431980   0.0001019556
       -0.0012627418   0.0002449575   0.0000050768  -0.0002010773  -0.0001390303
       -0.0000757161   0.0003022891   0.0000401926  -0.0000278588   0.0000000010
       -0.0000050840   0.0000083992  -0.0000106831  -0.0000039659   0.0000162691
       -0.0000101595   0.0000593446  -0.0000518965   0.0000043359  -0.0000565305
        0.0000659222   0.0000007383   0.0000365562   0.0000111172  -0.0000162720
       -0.0000087891  -0.0000102888   0.0000017782   0.0000101575  -0.0000004365
        0.0000005159   0.0000002447   0.0000058162  -0.0000004209  -0.0000019201
       -0.0000036859   0.0000017589  -0.0000014701   0.0000121141  -0.0000008340
       -0.0000190075   0.0000031987   0.0000010543   0.0000036098  -0.0000028790
       -0.0000010181  -0.0000044813  -0.0000006950   0.0000010242  -0.0000098521
       -0.0000135539   0.0000027083   0.0000150377   0.0000066227   0.0000004489
       -0.0000048018  -0.0000517327   0.0000145274  -0.0000088476  -0.0000066535
        0.0000028867  -0.0000061407   0.0000045264   0.0000001222  -0.0004112881
        0.0002113244  -0.0011122754   0.0004249572   0.0004226680   0.0017429819
        0.0000059353  -0.0034050160   0.0129465982   0.0050586882   0.0028682349
        0.0009329483   0.0009410190  -0.0023898916   0.0074222636  -0.0000429514
        0.0003233383  -0.0007050114   0.0008914488  -0.0022346597   0.0071089090
        0.0000014754   0.0000227836  -0.0000700395   0.0000019804  -0.0000000140
       -0.0000021103  -0.0000051769   0.0000027317   0.0000041816  -0.0000001419
        0.0000046352  -0.0000006581  -0.0000006642  -0.0000006766  -0.0000000383
       -0.0000025709   0.0000003460  -0.0000003312  -0.0000019498   0.0000021022
       -0.0000005971  -0.0000011779   0.0000015125  -0.0000013895  -0.0000018252
        0.0000051911  -0.0000018673   0.0000051000   0.0000014289  -0.0000046028
        0.0000018923  -0.0000023468  -0.0000015850  -0.0000018145   0.0000008290
       -0.0000032272  -0.0000017562   0.0000044559   0.0000077023   0.0000223853
        0.0000378585  -0.0000152509   0.0001536904   0.0000888210   0.0001862306
       -0.0049721064   0.0047365569   0.0015931085   0.0065253439  -0.0180027826
       -0.0038087286  -0.2428153611  -0.1295475548   0.0039781791   0.6408368910
       -0.0094084913  -0.0721645566  -0.0949908528   0.0551368152   0.0156608601
        0.0176062472   0.0306327419   0.0030187990  -0.0080303388  -0.0234950346
       -0.0037676292  -0.0610818283   0.0084175766   0.0101872499   0.0001614976
        0.0055932686   0.0020271893  -0.0041594358  -0.0007837716   0.0001172652
       -0.0006284049   0.0000673370  -0.0001167210   0.0002370233   0.0003211892
       -0.0000046133  -0.0006947363  -0.0001241820   0.0002007890   0.0003783711
        0.0001988249  -0.0001117967  -0.0001136641   0.0001046856   0.0000473813
        0.0000176301  -0.0000010914   0.0000196606   0.0000090191  -0.0000395392
        0.0000087639  -0.0001073143   0.0001023764   0.0000055007   0.0001153834
       -0.0001398308  -0.0000020749  -0.0000626155  -0.0000186611   0.0000395660
        0.0000143544   0.0000136161  -0.0000029512  -0.0000214067   0.0000044808
       -0.0000007640   0.0000034147  -0.0000158385   0.0000012369   0.0000040752
        0.0000048718  -0.0000043809  -0.0000086135  -0.0000236509   0.0000018139
        0.0000278640  -0.0000012675  -0.0000027897  -0.0000067520   0.0000068209
        0.0000024838   0.0000039456  -0.0000097896  -0.0000006285  -0.0000087304
        0.0000253227  -0.0000065045   0.0000128079  -0.0000358542  -0.0000082336
        0.0000019608   0.0001252234  -0.0000395975   0.0000307727   0.0000020107
       -0.0000204234   0.0000087389  -0.0000147858  -0.0000252771   0.0008646038
        0.0000986105  -0.0001082246  -0.0000112552  -0.0011661831  -0.0001261411
        0.0021360729   0.0023335354   0.0001999690  -0.2480766554   0.0964836582
        0.0451465498   0.0006507206  -0.0239256700  -0.0039517131  -0.0044710611
        0.0027608494   0.0021566616   0.0004622723  -0.0004983874  -0.0001436705
        0.0001286402   0.0001079906  -0.0000228345   0.0000005698   0.0000054110
        0.0000018233   0.0000124444  -0.0000085725  -0.0000068495   0.0000026709
       -0.0000073077   0.0000012709   0.0000025677  -0.0000020890   0.0000001580
        0.0000023547  -0.0000026980   0.0000002718   0.0000033105  -0.0000033221
        0.0000003859  -0.0000030258  -0.0000013311   0.0000010037  -0.0000009392
       -0.0000036989   0.0000006868   0.0000024116  -0.0000235456   0.0000047597
        0.0000247208   0.0000197172   0.0000084368   0.0000165142  -0.0000129052
        0.0000158821  -0.0000200491   0.0000032934   0.0000030918   0.0000123674
        0.0000406686  -0.0000153584  -0.0000324360  -0.0000296169   0.0000116640
       -0.0059797088   0.0003305296   0.0008037073  -0.0197327068  -0.0360254370
       -0.0036536775  -0.0730050047  -0.1556895030  -0.0082997111  -0.0094084913
        0.6525851738   0.0928903311  -0.0212776845  -0.3235991718  -0.0441987579
        0.0855737223  -0.0237113037  -0.0156465250  -0.0241049922  -0.0475491688
       -0.0038443954  -0.0365824624   0.0444345205   0.0115417538   0.0072210202
        0.0032239786  -0.0018483155  -0.0020142773   0.0005836068   0.0006513502
        0.0001275537   0.0000937859   0.0002509734   0.0001129310  -0.0002789003
       -0.0000011506  -0.0003151569   0.0007070001   0.0001881439   0.0000724781
       -0.0000461093  -0.0000573267  -0.0000305404   0.0000291506   0.0000098144
        0.0000453003   0.0000222906  -0.0000407186  -0.0000179443   0.0000625776
       -0.0000450815   0.0001538810  -0.0001243750   0.0000105086  -0.0001678287
        0.0001095205  -0.0000005462   0.0001250665   0.0000254988  -0.0000338574
       -0.0000267169  -0.0000160871   0.0000011843   0.0000238268  -0.0000001973
       -0.0000006894   0.0000004172   0.0000147234  -0.0000018849   0.0000023603
       -0.0000170646   0.0000035120  -0.0000088177   0.0000460641  -0.0000040198
       -0.0000346237  -0.0000191018   0.0000055950   0.0000125270   0.0000118918
       -0.0000047569  -0.0000207310  -0.0000079565   0.0000035047  -0.0000041961
       -0.0000341498   0.0000006845   0.0000602540   0.0000013760  -0.0000131917
       -0.0000111863  -0.0000574703   0.0000347841  -0.0000487355  -0.0000190986
        0.0000283905  -0.0000361643  -0.0000455456   0.0000161726   0.0008388209
       -0.0003161750  -0.0001638022  -0.0016316116  -0.0020792754  -0.0001391258
        0.0024878054  -0.0042776272  -0.0012384607   0.0969984442  -0.0882307165
       -0.0221235702  -0.0012003944  -0.0200323814  -0.0035330731   0.0024732113
        0.0000207355  -0.0016846073  -0.0005564997  -0.0002621565   0.0000686170
        0.0000968650   0.0000858881  -0.0000330037   0.0000104435  -0.0000036568
       -0.0000048447  -0.0000063387   0.0000010003   0.0000106570   0.0000047251
        0.0000044303  -0.0000008352  -0.0000051170  -0.0000071228   0.0000008586
       -0.0000112181  -0.0000011831   0.0000010386  -0.0000068619   0.0000070964
        0.0000008413  -0.0000124791   0.0000067974   0.0000005431  -0.0000086234
        0.0000189915  -0.0000000695   0.0000066006  -0.0000102788   0.0000015262
        0.0000009823   0.0000148395   0.0000129869   0.0000066068   0.0000070678
        0.0000003659   0.0000007642   0.0000011579   0.0000256192  -0.0001046555
       -0.0001087012   0.0000118634  -0.0000848385   0.0001202216   0.0000406705
       -0.0002689934  -0.0007354850   0.0003268200  -0.0041915304  -0.0037964499
        0.0010157480   0.0135485449  -0.0008706640  -0.0517622163  -0.0721645566
        0.0928903311   0.1425322555   0.0026875163  -0.0545437703  -0.0579803945
        0.0123462806  -0.0083089058  -0.0018286624  -0.0038551248  -0.0039010499
       -0.0064319992   0.0023685475   0.0059676255   0.0049114171   0.0022671712
       -0.0016518460   0.0074222920   0.0001921273   0.0004643074  -0.0013637399