$hessian                                                                        
        0.1883190936   0.4384771058  -0.0312978059  -0.1955824672  -0.4141843011
        0.0285921176   0.0066808836  -0.0248732566   0.0026798796  -0.0011179810
        0.0003909756  -0.0040236387  -0.0016651528  -0.0012449840   0.0009811025
        0.0006570012   0.0017451671   0.0002475795   0.0000485636  -0.0013050184
       -0.0002702585  -0.0004396604   0.0008337847  -0.0002028531   0.0000363214
       -0.0000359559   0.0000110195  -0.0000551086  -0.0000335894  -0.0000635788
        0.0000246472  -0.0001297428   0.0000983334  -0.0003772894  -0.0000149967
        0.0000008669   0.0004670843   0.0001626402   0.0000276313  -0.0000596897
        0.0001573716  -0.0000236021  -0.0000064461  -0.0000589289  -0.0000172044
       -0.0000553497   0.0000248781   0.0000051142   0.0000373052   0.0000300213
        0.0000048302   0.0000266858  -0.0000326117  -0.0000037685   0.0000011448
        0.0000517936   0.0000104204   0.0001027898  -0.0000308822  -0.0000030333
       -0.0000371441  -0.0000064853  -0.0000087092   0.0000286788   0.0000240626
        0.0000006483  -0.0000171606  -0.0001273207  -0.0000535133   0.0000410022
        0.0000731667  -0.0000185611  -0.0002372187  -0.0003221168   0.0000051994
        0.0000944382   0.0000721592  -0.0000243063  -0.0000507765   0.0000816755
       -0.0000232163  -0.0001809121  -0.0006151082   0.0001385476   0.0001241454
       -0.0000535974  -0.0000363277   0.0000112795  -0.0000225835  -0.0000361533
       -0.0000404539   0.0000203497  -0.0000100226  -0.0000098038   0.0000163693
        0.0000036792   0.0000122957  -0.0000093759  -0.0000009057   0.0000358876
       -0.0000080289   0.0000103316  -0.0000012432  -0.0000360633   0.0000047248
        0.0000200626   0.0000435982  -0.0000253627   0.0000070975  -0.0000165164
       -0.0000002378   0.0000175115  -0.0000026227   0.0000070500  -0.0000239894
       -0.0000190700   0.0000028705   0.0000886579   0.0000422311   0.0000426540
       -0.0001031037   0.0000164957   0.0000147537   0.0004993949   0.0002510545
        0.0001577924  -0.0010187694  -0.0008679979   0.0012333615   0.0032440525
        0.0020216189   0.0017508834   0.0003370290  -0.0002765953   0.0000148386
       -0.0001782270  -0.0002809997   0.0000684715  -0.0000462942   0.0000050602
        0.0000641332   0.0000509589  -0.0000023468  -0.0000442426   0.0000107676
        0.0000140913   0.0000048426   0.0000015828   0.0000052017  -0.0000007190
        0.0000048055   0.0000036697  -0.0000005959   0.0000117928  -0.0000000623
        0.0000014479  -0.0000021536   0.0000175979   0.0000037170   0.0000156048
        0.0000200123   0.0000104520   0.0000426188   0.0000863075   0.0000521939
       -0.0000522426  -0.0000836298   0.0000266531   0.0000240224  -0.0000073925
        0.0000102889  -0.0000027900   0.0000007818  -0.0000113968   0.0000066799
        0.0000041504   0.0000001083  -0.0000043160  -0.0000253749   0.0000001657
       -0.0000141520  -0.0000157888  -0.0000043771  -0.0000078994   0.0000053222
        0.0000001262  -0.0000222793  -0.0000132865  -0.0000021354  -0.0000223202
        0.0000007575  -0.0000005941   0.0000224891  -0.0000053795  -0.0000071990
       -0.0000177471   0.0000050490  -0.0000289435  -0.0000492921  -0.0000024892
        0.0000373581   0.0003450575   0.0000599790  -0.0000829259
        0.4384771058   1.1365291048  -0.0794247157  -0.4141088314  -1.0909666118
        0.0752136277  -0.0248585268  -0.0473383985   0.0042857665  -0.0029751455
        0.0052114330  -0.0074019200  -0.0015508991  -0.0035257519  -0.0005643350
        0.0015754625   0.0044775675  -0.0002482261  -0.0006860527  -0.0029210847
       -0.0000545096  -0.0009500260   0.0020796202  -0.0004645003   0.0001761872
       -0.0000849448   0.0000479816  -0.0001248350  -0.0000600456  -0.0001989178
        0.0000954220  -0.0002272734   0.0000872658  -0.0007332552  -0.0000206472
        0.0000102246   0.0008485895   0.0000793625   0.0000412016  -0.0002252728
        0.0003628847  -0.0000372598   0.0000106211  -0.0001140832  -0.0000309451
       -0.0000842429   0.0000483472   0.0000108516   0.0000497941   0.0000478553
        0.0000067715  -0.0000081308  -0.0000443005  -0.0000033565   0.0000782232
        0.0000973102   0.0000202480   0.0001491108  -0.0000939277  -0.0000148403
       -0.0000441702   0.0000305812  -0.0000054772   0.0000332348  -0.0000389593
       -0.0000086847  -0.0000601455  -0.0001080328  -0.0000406663  -0.0000451084
        0.0001502343   0.0000239693  -0.0002724071  -0.0004100083   0.0000260043
        0.0001669607   0.0001372193  -0.0000502071  -0.0001016324   0.0001820509
       -0.0000512755  -0.0005479417  -0.0013317140   0.0003017873   0.0002299280
       -0.0002074869  -0.0000991685   0.0000873542   0.0000059082  -0.0000898004
       -0.0000986658   0.0000098462  -0.0000270190  -0.0000097264   0.0000487165
        0.0000106931   0.0000144807  -0.0000000543  -0.0000026342   0.0000843037
       -0.0000250472   0.0000270048  -0.0000240498  -0.0000582355   0.0000151022
       -0.0000035069   0.0000972767  -0.0000585001   0.0000562608  -0.0000006844
        0.0000046807   0.0000111237   0.0000033149   0.0000200988  -0.0000286910
       -0.0001827021  -0.0000214890   0.0001128079   0.0001279377   0.0001043813
       -0.0001061578  -0.0000614029   0.0000199110   0.0011939831   0.0005341700
        0.0004167264  -0.0005254257  -0.0041071001   0.0003045142   0.0052541301
        0.0022867962   0.0076253572   0.0000238967   0.0001399077   0.0001195194
       -0.0001543808  -0.0003872043   0.0000433757   0.0000147647   0.0000267545
        0.0001958708   0.0000072138   0.0000264504  -0.0000117062   0.0000166084
        0.0000311858   0.0000079064   0.0000029941  -0.0000125214  -0.0000071096
        0.0000221569  -0.0000151425  -0.0000063190   0.0000285247   0.0000013507
        0.0000020729   0.0000265613   0.0000017717   0.0000015054   0.0000376383
        0.0000256777   0.0000140213  -0.0000045290   0.0000284651   0.0000282145
       -0.0000201956  -0.0000390674   0.0000020720   0.0000469133  -0.0000295859
        0.0000300763  -0.0000089686  -0.0000163423  -0.0000039288   0.0000110052
        0.0000294396  -0.0000010004  -0.0000126174  -0.0000554173   0.0000000360
       -0.0000413391  -0.0000363246  -0.0000122059  -0.0000394972   0.0000110199
       -0.0000014891  -0.0000602124  -0.0000127619  -0.0000059951  -0.0000785566
        0.0000211587   0.0000019219  -0.0000434105   0.0000719727   0.0000062941
        0.0000778546  -0.0000925381  -0.0000766404  -0.0001393164  -0.0004613000
       -0.0000065351  -0.0002453450   0.0001240107  -0.0000456783
       -0.0312978059  -0.0794247157   0.0221079750   0.0286404755   0.0753606495
       -0.0396321933   0.0026782527   0.0041922479   0.0171761034  -0.0017007991
       -0.0021361294   0.0000467799   0.0009225250  -0.0007386019   0.0002986267
        0.0001645369  -0.0004044557   0.0003639517  -0.0001296452   0.0002878376
        0.0001719987   0.0000817828  -0.0001366801   0.0000251645   0.0000081641
       -0.0000064770   0.0000060801  -0.0000229383   0.0000273057  -0.0000124000
        0.0000202951   0.0000261953  -0.0000160657   0.0000072522  -0.0000018309
       -0.0000102102  -0.0000207906   0.0000133610   0.0000266801   0.0000214852
       -0.0000153166  -0.0000107870  -0.0000052409   0.0000024950   0.0000065663
        0.0000042782  -0.0000031156   0.0000029968  -0.0000012659  -0.0000004337
        0.0000030751   0.0000022119   0.0000005036   0.0000038451  -0.0000079738
       -0.0000038290   0.0000004565   0.0000004706   0.0000101878   0.0000037473
       -0.0000078669  -0.0000028532   0.0000031160  -0.0000026572   0.0000074749
        0.0000083051   0.0000096491  -0.0000264366   0.0000133718   0.0000111856
       -0.0000043924   0.0000282965  -0.0000076612  -0.0000025910  -0.0000210020
        0.0000007581  -0.0000092621   0.0000150203  -0.0000035248  -0.0000133978
        0.0000125005   0.0000403279   0.0001315877  -0.0000109183  -0.0000344671
        0.0000096374  -0.0000005693  -0.0000019182   0.0000005557   0.0000085561
        0.0000074273  -0.0000044706   0.0000048061   0.0000018730  -0.0000046528
        0.0000017182  -0.0000036165   0.0000016162   0.0000025134  -0.0000072973
        0.0000018798   0.0000011495  -0.0000002490   0.0000067166   0.0000000009
       -0.0000006403  -0.0000061959   0.0000064336  -0.0000024370   0.0000012943
        0.0000024172  -0.0000038214   0.0000026102   0.0000018697   0.0000081586
        0.0000069448   0.0000111488  -0.0000236099  -0.0000211122   0.0000066321
        0.0000206436  -0.0000005593  -0.0000040970  -0.0000866226  -0.0000632762
       -0.0000369499   0.0013071890   0.0005115037   0.0001672034  -0.0006485616
        0.0023103908  -0.0013582796  -0.0001585296  -0.0002519124   0.0003503693
       -0.0000363807  -0.0002439943   0.0000247172   0.0000289768   0.0000160513
       -0.0000192456  -0.0000316048   0.0000053107  -0.0000039052   0.0000011860
        0.0000002278  -0.0000026243  -0.0000003495   0.0000026834   0.0000004905
       -0.0000019566   0.0000020434  -0.0000000579  -0.0000016252  -0.0000001412
       -0.0000019570  -0.0000039939   0.0000043562  -0.0000027650  -0.0000013577
        0.0000013009  -0.0000065133   0.0000158282   0.0000149470  -0.0000193144
       -0.0000008892  -0.0000157468  -0.0000344805  -0.0000014864  -0.0000069343
        0.0000021584   0.0000008918  -0.0000067528   0.0000048624  -0.0000018349
       -0.0000010932  -0.0000012087   0.0000008490   0.0000053902   0.0000004434
        0.0000039883   0.0000034365   0.0000010677   0.0000031133  -0.0000014330
       -0.0000009130   0.0000056232   0.0000034146  -0.0000009680   0.0000073622
       -0.0000007608  -0.0000028761  -0.0000054959   0.0000000068  -0.0000119068
        0.0000015649   0.0000022615  -0.0000208496   0.0001491004   0.0002689719
       -0.0000048673   0.0000894885   0.0003161571   0.0003247096
       -0.1955824672  -0.4141088314   0.0286404755   0.2851359593   0.5107583817
       -0.0243838451  -0.0828880946  -0.0717468332   0.0026742734   0.0036083995
       -0.0025743336   0.0082674229   0.0068707615   0.0018913802  -0.0035855802
       -0.0011635579  -0.0031693014  -0.0008819244  -0.0009481845   0.0027110893
        0.0010450376   0.0008019636  -0.0012622778   0.0003902511  -0.0000528749
        0.0000700061  -0.0000340811   0.0000834235   0.0000781469   0.0000821929
       -0.0000692809   0.0001654939  -0.0001140734   0.0005161416   0.0000203356
       -0.0000097847  -0.0006104404  -0.0001797357  -0.0000300184   0.0000949143
       -0.0002177623   0.0000351454   0.0000037264   0.0000770888   0.0000236508
        0.0000662462  -0.0000337993  -0.0000068763  -0.0000417704  -0.0000436831
       -0.0000062025  -0.0000160238   0.0000368890   0.0000043816  -0.0000159545
       -0.0000624946  -0.0000128562  -0.0001397856   0.0000451227   0.0000046978
        0.0000557942  -0.0000065900   0.0000080774  -0.0000337101  -0.0000063665
        0.0000012017   0.0000294602   0.0001166259   0.0000498368  -0.0000469133
       -0.0001048421   0.0000134070   0.0002881234   0.0003960457  -0.0000094480
       -0.0001001761  -0.0001027335   0.0000389521   0.0000428899  -0.0001259845
        0.0000346201   0.0003610066   0.0011098765  -0.0002747648  -0.0003036614
        0.0001026698   0.0000468392  -0.0000195985   0.0000104081   0.0000576688
        0.0000578592  -0.0000285930   0.0000168598   0.0000209090  -0.0000340220
       -0.0000048222  -0.0000217052   0.0000046081   0.0000019215  -0.0000647878
        0.0000199332  -0.0000164186   0.0000075948   0.0000565677  -0.0000073777
       -0.0000122003  -0.0000556759   0.0000446105  -0.0000328758   0.0000140052
       -0.0000002270  -0.0000242979  -0.0000026892  -0.0000130088   0.0000555660
        0.0000667520   0.0000018180  -0.0001224748  -0.0001109096  -0.0000562859
        0.0001537427   0.0000019580  -0.0000241353  -0.0008094632  -0.0005216924
       -0.0002503142   0.0029256428  -0.0007602111  -0.0069489146  -0.0150462689
       -0.0242153818  -0.0062885635  -0.0017064503   0.0016924336   0.0004404470
        0.0003365573   0.0004801019  -0.0001796299   0.0000189001  -0.0000438209
       -0.0000866917  -0.0000489297  -0.0000086798   0.0000461251  -0.0000131972
       -0.0000193301  -0.0000053497  -0.0000008736  -0.0000020922   0.0000031880
       -0.0000099085   0.0000006003   0.0000029478  -0.0000180263  -0.0000012892
       -0.0000013338  -0.0000025532  -0.0000156570  -0.0000036776  -0.0000111972
       -0.0000227028  -0.0000118165  -0.0000345259  -0.0000821254  -0.0000484742
        0.0000741312   0.0000877034  -0.0000271151  -0.0000363093   0.0000115859
       -0.0000143720   0.0000101808  -0.0000021398   0.0000153240  -0.0000110290
       -0.0000115489  -0.0000003829   0.0000048087   0.0000391336   0.0000000666
        0.0000250030   0.0000260023   0.0000073880   0.0000211928  -0.0000073642
        0.0000000181   0.0000352118   0.0000175985   0.0000024123   0.0000439072
       -0.0000052431  -0.0000009293  -0.0000206446  -0.0000118394   0.0000032369
        0.0000230640  -0.0000010129   0.0000170965  -0.0001862519  -0.0008254688
       -0.0000490789  -0.0015066168   0.0004265149   0.0013667825
       -0.4141843011  -1.0909666118   0.0753606495   0.5107583817   1.3878764597
       -0.0957302233  -0.0717909302  -0.2377458960   0.0133745082  -0.0028740727
       -0.0411837467   0.0233633181   0.0034916176   0.0056448485   0.0060859111
       -0.0028140751  -0.0079241014   0.0005908549   0.0016562637   0.0051910523
       -0.0001746050   0.0015775512  -0.0034307205   0.0008113401  -0.0002961913
        0.0001729997  -0.0000933977   0.0001557263   0.0001146335   0.0003518276
       -0.0001960532   0.0003849132  -0.0001415949   0.0011903123   0.0000348601
       -0.0000171298  -0.0013865155  -0.0001901668  -0.0000733422   0.0003652686
       -0.0005919024   0.0000685178  -0.0000238489   0.0001901122   0.0000529704
        0.0001444830  -0.0000836896  -0.0000176918  -0.0000771991  -0.0000846224
       -0.0000109002   0.0000050184   0.0000772932   0.0000085352  -0.0001265922
       -0.0001566499  -0.0000325917  -0.0002563817   0.0001434998   0.0000216636
        0.0000871626  -0.0000308901   0.0000115521  -0.0000620765   0.0000484262
        0.0000110073   0.0000923260   0.0002041934   0.0000732796   0.0000836049
       -0.0002242364  -0.0000396287   0.0004730114   0.0007053421  -0.0000387181
       -0.0002709838  -0.0002246823   0.0000816351   0.0001567609  -0.0002936704
        0.0000673448   0.0009418266   0.0021739396  -0.0005435821  -0.0004095335
        0.0003811551   0.0001981945  -0.0001331148   0.0000171513   0.0001665032
        0.0001671941  -0.0000357248   0.0000486358   0.0000222799  -0.0000875774
       -0.0000194255  -0.0000391423  -0.0000030219   0.0000051399  -0.0001452160
        0.0000477712  -0.0000480622   0.0000256464   0.0001035529  -0.0000242010
        0.0000136684  -0.0001551015   0.0001090361  -0.0001104766   0.0000076935
       -0.0000083293  -0.0000279271  -0.0000116752  -0.0000380121   0.0000848197
        0.0002722416   0.0000308643  -0.0001555125  -0.0001952916  -0.0001571991
        0.0002406270   0.0001062838  -0.0000393636  -0.0019064488  -0.0007438385
       -0.0007767860  -0.0024922722   0.0084264178  -0.0031085868  -0.0238371353
       -0.0283338879  -0.0185578107   0.0002661865   0.0005475222  -0.0015897747
       -0.0001567796  -0.0004332493   0.0000084684  -0.0000700494  -0.0000720277
       -0.0003094791   0.0000092036  -0.0000409967   0.0000124381  -0.0000289410
       -0.0000477403  -0.0000089364  -0.0000043520   0.0000174523   0.0000134029
       -0.0000368168   0.0000218825   0.0000117323  -0.0000480230  -0.0000032055
       -0.0000021786  -0.0000399378  -0.0000094442  -0.0000044218  -0.0000604128
       -0.0000434015  -0.0000252268   0.0000019410  -0.0000589355  -0.0000619241
        0.0000629199   0.0000591686   0.0000001843  -0.0000743891   0.0000492138
       -0.0000450362   0.0000176986   0.0000355085   0.0000040366  -0.0000254286
       -0.0000370419   0.0000032956   0.0000164549   0.0000928480   0.0000008840
        0.0000664052   0.0000585829   0.0000222420   0.0000654182  -0.0000165481
        0.0000027416   0.0000914714   0.0000202338   0.0000101662   0.0001124371
       -0.0000338299  -0.0000040299   0.0000476346  -0.0001118013  -0.0000099355
       -0.0001280295   0.0000435352   0.0000833233  -0.0000929288  -0.0000873906
        0.0000809707   0.0018907671   0.0004225296   0.0006049499
        0.0285921176   0.0752136277  -0.0396321933  -0.0243838451  -0.0957302233
        0.1051069085   0.0025277716   0.0135402919  -0.0586603126   0.0085051390
        0.0235853846  -0.0032658488  -0.0042097218   0.0048437962  -0.0018011466
       -0.0007619906   0.0008496819  -0.0012463606   0.0007607284  -0.0007158652
       -0.0005249873  -0.0002105263   0.0001872751  -0.0001206225  -0.0000257663
       -0.0000133046   0.0000109306   0.0000126904  -0.0000158288   0.0000194731
        0.0000089743  -0.0000174209   0.0000184104  -0.0000201133   0.0000031083
        0.0000006371   0.0000382075  -0.0000020131  -0.0000165322  -0.0000151290
        0.0000138660   0.0000018903   0.0000032062  -0.0000032384  -0.0000045927
       -0.0000055685   0.0000019635  -0.0000019843   0.0000018449   0.0000004571
       -0.0000024284  -0.0000005894  -0.0000016755  -0.0000027181   0.0000064105
        0.0000042495   0.0000005384   0.0000089833  -0.0000109242  -0.0000028822
        0.0000043205  -0.0000033759  -0.0000024952   0.0000003333  -0.0000062930
       -0.0000051149  -0.0000015847   0.0000199921  -0.0000096053  -0.0000217502
       -0.0000007234  -0.0000207864   0.0000071509  -0.0000041715   0.0000164316
       -0.0000014521   0.0000035633  -0.0000025073   0.0000189621   0.0000145582
       -0.0000031460  -0.0000648350  -0.0003096174   0.0000823244   0.0001087483
        0.0000026742  -0.0000061554  -0.0000053140   0.0000002988  -0.0000042656
       -0.0000087841   0.0000134580  -0.0000025302  -0.0000071135   0.0000082615
       -0.0000022729   0.0000083711  -0.0000043735  -0.0000019830   0.0000142066
       -0.0000026307   0.0000014627   0.0000001887  -0.0000144354   0.0000014277
        0.0000148543   0.0000189535  -0.0000129901   0.0000062632   0.0000015271
       -0.0000000058   0.0000017859  -0.0000043525  -0.0000008756  -0.0000177406
       -0.0000316819  -0.0000103356   0.0000508651   0.0000490429   0.0000413255
       -0.0000438358   0.0000128410   0.0000078892   0.0001668440   0.0002050978
        0.0000043633  -0.0062992296  -0.0020100973  -0.0006836410  -0.0062712108
       -0.0188609012   0.0026016805   0.0013630325   0.0005030327  -0.0008790191
        0.0003230423   0.0012671039  -0.0001436048  -0.0000545264   0.0000053276
        0.0000065474   0.0000288293  -0.0000044891   0.0000050236   0.0000011710
       -0.0000002441   0.0000006543   0.0000005603  -0.0000003768  -0.0000013443
        0.0000009938  -0.0000008336  -0.0000010534   0.0000012698   0.0000000318
        0.0000009873   0.0000025685  -0.0000035581   0.0000020859   0.0000022904
       -0.0000020020   0.0000053106  -0.0000183105  -0.0000157352   0.0000143597
        0.0000003165   0.0000290024   0.0000287678   0.0000048653   0.0000050740
       -0.0000034221  -0.0000043833   0.0000008025  -0.0000070191   0.0000033262
        0.0000002082  -0.0000003896  -0.0000008947  -0.0000091051  -0.0000016681
       -0.0000063287  -0.0000056324  -0.0000022313  -0.0000036517   0.0000025388
        0.0000002988  -0.0000100705  -0.0000050569   0.0000011386  -0.0000141611
        0.0000007486   0.0000019486   0.0000037287  -0.0000004491   0.0000116977
       -0.0000148568  -0.0000196638  -0.0000206714  -0.0005629273  -0.0011130127
       -0.0000004684   0.0004612498  -0.0014645340  -0.0008823022
        0.0066808836  -0.0248585268   0.0026782527  -0.0828880946  -0.0717909302
        0.0025277716   0.3085181447   0.1484019978   0.1980179399  -0.0771949525
        0.0100089887  -0.0525962979   0.0199118651   0.0186694975   0.0151684576
       -0.0173768833   0.0093330797  -0.0248139827  -0.0007834282  -0.0016743206
        0.0006431883  -0.0004278672   0.0011150030  -0.0003723326   0.0000198148
       -0.0000446120   0.0000460193  -0.0000441870   0.0000466426   0.0000090318
        0.0000948324  -0.0001031022   0.0000674618  -0.0002194223   0.0000138109
       -0.0000487974   0.0002607865   0.0000389222   0.0000111325  -0.0000566131
        0.0000936813  -0.0000113176   0.0000042087  -0.0000338671  -0.0000089125
       -0.0000255426   0.0000171293   0.0000037276   0.0000128136   0.0000156995
        0.0000022498  -0.0000021092  -0.0000176849  -0.0000014127   0.0000162841
        0.0000330432   0.0000068281   0.0000431218  -0.0000216000  -0.0000027773
       -0.0000222771   0.0000066478  -0.0000026622   0.0000084169  -0.0000088935
       -0.0000011191  -0.0000144921  -0.0000267038  -0.0000042550   0.0000091331
        0.0000292761   0.0000160102  -0.0000847921  -0.0001272793   0.0000017033
        0.0000022865   0.0000343852  -0.0000027234   0.0000281351   0.0000282468
       -0.0000268019  -0.0001989413  -0.0005775278   0.0002443156   0.0001168597
        0.0000394321  -0.0001023817   0.0000115471  -0.0000429827  -0.0000523449
       -0.0000433013   0.0000313686  -0.0000183135  -0.0000161109   0.0000185692
        0.0000079109   0.0000139137  -0.0000083051  -0.0000030197   0.0000370071
       -0.0000038985   0.0000259612   0.0000029911  -0.0000353574   0.0000137807
        0.0000554021   0.0000926788  -0.0000801580   0.0000175230   0.0000026497
        0.0000035908  -0.0000005786   0.0000151435   0.0000245526  -0.0000380150
       -0.0001251771  -0.0000062027  -0.0000486900   0.0001461567   0.0001053719
       -0.0000437185  -0.0000552051  -0.0000029696   0.0005861598   0.0002364717
        0.0003480585  -0.0158701102  -0.0512860470   0.0054339052  -0.1407760825
       -0.0364560317  -0.1199669886  -0.0045727449   0.0092680192  -0.0150667611
        0.0045505528  -0.0041884502  -0.0024967866   0.0000578881  -0.0001701185
        0.0000822159   0.0000140102   0.0000147115  -0.0000052037   0.0000040822
        0.0000077089   0.0000018660  -0.0000004511  -0.0000011816  -0.0000017888
        0.0000049059  -0.0000032252  -0.0000016976   0.0000071309   0.0000004127
        0.0000002842   0.0000046351   0.0000024579   0.0000005165   0.0000048787
        0.0000075585   0.0000030681   0.0000036948   0.0000103736   0.0000035650
       -0.0000002801  -0.0000216765  -0.0000132422   0.0000172513  -0.0000061606
        0.0000166806  -0.0000098021   0.0000016486  -0.0000128822   0.0000040643
        0.0000109866  -0.0000009013  -0.0000071542  -0.0000257692   0.0000016526
       -0.0000202094  -0.0000172069  -0.0000080464  -0.0000192140   0.0000010863
       -0.0000006120  -0.0000295543  -0.0000018045   0.0000009942  -0.0000360606
        0.0000126587  -0.0000050573  -0.0000465311   0.0000570477   0.0000048215
       -0.0003033243  -0.0001152931   0.0000706025   0.0047373182  -0.0041978090
       -0.0024733543  -0.0046410066  -0.0018164443  -0.0073813843
       -0.0248732566  -0.0473383985   0.0041922479  -0.0717468332  -0.2377458960
        0.0135402919   0.1484019978   0.5901552119  -0.0894814948   0.0363493369
       -0.1431711571   0.1220075755  -0.0100204516  -0.0476605341   0.0198557377
        0.0091653929   0.0077111357   0.0057403665  -0.0006465712  -0.0045468512
       -0.0004952205  -0.0012565693   0.0024674431  -0.0009810825  -0.0000203447
       -0.0001153525   0.0001194155   0.0000728946  -0.0001299855   0.0000180294
        0.0001267085  -0.0001887637   0.0000877572  -0.0006015978  -0.0000535305
        0.0000196480   0.0006982126   0.0001670994   0.0000193554  -0.0001277510
        0.0002406446  -0.0000301777   0.0000020566  -0.0000906048  -0.0000251129
       -0.0000668198   0.0000409644   0.0000078953   0.0000472806   0.0000461271
        0.0000077502   0.0000037914  -0.0000468199  -0.0000034825   0.0000279299
        0.0000802591   0.0000164977   0.0001411608  -0.0000674508  -0.0000087223
       -0.0000437329   0.0000124910  -0.0000085442   0.0000190463  -0.0000122896
       -0.0000020052  -0.0000496135  -0.0000725862  -0.0000241199   0.0000721175
        0.0000829903   0.0000131194  -0.0002783879  -0.0003909050   0.0000028388
        0.0001483119   0.0001705071  -0.0000820882  -0.0000819764   0.0002365935
       -0.0000406458  -0.0005719205  -0.0014509360   0.0005144087   0.0003848006
        0.0000010128  -0.0001755391   0.0000490068  -0.0000512289  -0.0001673847
       -0.0000995206   0.0000497108  -0.0000429006  -0.0000360906   0.0000603424
        0.0000223679   0.0000345510   0.0000034944  -0.0000062572   0.0000747077
       -0.0000244406   0.0000468448   0.0000211998  -0.0000729663   0.0000237123
        0.0000099769   0.0001346902  -0.0000949944   0.0000865988   0.0000069526
        0.0000020468   0.0000599379  -0.0000024270   0.0000359125   0.0000249004
       -0.0001191221  -0.0000230790  -0.0000831831   0.0000069467   0.0000868705
        0.0000336996  -0.0001345755   0.0000293296   0.0012301876   0.0007204790
        0.0009079988  -0.0225307499  -0.0233526682  -0.0195401552  -0.0628490798
       -0.0987048304  -0.0642056756  -0.0017056251   0.0056107726  -0.0062901167
       -0.0042979815  -0.0040442664   0.0015099313   0.0000232167  -0.0001445037
       -0.0000377438   0.0000823456   0.0000485420  -0.0000633905   0.0000089581
        0.0000191542   0.0000076700  -0.0000003102  -0.0000026381  -0.0000044954
        0.0000120829  -0.0000073101  -0.0000038985   0.0000223591   0.0000002639
        0.0000013742   0.0000080145   0.0000071597   0.0000011374   0.0000133398
        0.0000200883   0.0000100010   0.0000071919   0.0000571572   0.0000216573
       -0.0000214438  -0.0000428360   0.0000014526   0.0000405043  -0.0000285206
        0.0000085294  -0.0000330801   0.0000540824  -0.0000647557   0.0000098404
        0.0000406659   0.0000008874  -0.0000143897  -0.0000600286   0.0000030390
       -0.0000501949  -0.0000362729  -0.0000154954  -0.0000476768   0.0000032167
       -0.0000012082  -0.0000520069  -0.0000058754  -0.0000112640  -0.0000503151
        0.0000402872   0.0000004771  -0.0000739725   0.0000946208   0.0000044616
       -0.0001871348  -0.0001075230  -0.0000357506  -0.0041036318  -0.0040932968
        0.0016106798   0.0091085549   0.0057262850   0.0114674846
        0.0026798796   0.0042857665   0.0171761034   0.0026742734   0.0133745082
       -0.0586603126   0.1980179399  -0.0894814948   0.4901878981  -0.0708167359
        0.0802802844  -0.2136772706   0.0352119538   0.0633822519   0.0121716961
       -0.0232486956   0.0050509154  -0.0493854432  -0.0003816986   0.0002571509
        0.0010438733   0.0001406758  -0.0000601747   0.0000909604  -0.0001086419
        0.0001340963   0.0000265557  -0.0001973142   0.0003666977   0.0001063587
        0.0001117554   0.0000124397   0.0000708390   0.0001048969   0.0001066860
       -0.0001346052  -0.0001197975  -0.0000322604  -0.0000022194   0.0000311339
       -0.0000459524   0.0000042415  -0.0000066031   0.0000160286   0.0000033103
        0.0000133565  -0.0000112557  -0.0000016825  -0.0000100227  -0.0000070465
       -0.0000020894  -0.0000030079   0.0000089466   0.0000002016  -0.0000029633
       -0.0000153849  -0.0000031988  -0.0000197061   0.0000127275   0.0000022839
       -0.0000013461   0.0000008617   0.0000014053  -0.0000008424   0.0000018796
       -0.0000004224   0.0000206351   0.0000162047   0.0000055116  -0.0000323591
       -0.0000060370  -0.0000011697   0.0000520396   0.0000713901  -0.0000026948
       -0.0001529169  -0.0000846676   0.0000623950   0.0001929964  -0.0001796545
        0.0000333196   0.0000555510   0.0000109046   0.0000640984   0.0000120112
        0.0000874170  -0.0000347165  -0.0000342621  -0.0000461507   0.0000285226
        0.0000026631   0.0000244129  -0.0000016386  -0.0000210116  -0.0000114930
       -0.0000026996   0.0000134570  -0.0000170450  -0.0000010748   0.0000197443
        0.0000064859   0.0000138792  -0.0000152124  -0.0000165172   0.0000086263
        0.0001203452   0.0000705417  -0.0000782717  -0.0000453132   0.0000160141
        0.0000062918  -0.0000334768   0.0000136362   0.0000147291  -0.0000922292
       -0.0001548940   0.0000323460  -0.0000329249   0.0002781003   0.0001813183
       -0.0002020557   0.0000294158  -0.0000159080   0.0000953577  -0.0000672034
       -0.0000823619  -0.0129279911  -0.0637445376   0.0236525775  -0.1024593969
       -0.0221987943  -0.1925297555  -0.0076620817   0.0115034563  -0.0184559188
       -0.0026049599   0.0015420799   0.0030946949  -0.0000026087  -0.0001063943
        0.0001678358  -0.0000207556  -0.0000117621   0.0000361558  -0.0000004929
       -0.0000034791  -0.0000026059  -0.0000012324   0.0000030464   0.0000010841
       -0.0000027545   0.0000019216   0.0000004414  -0.0000038392   0.0000013174
       -0.0000002318  -0.0000000573  -0.0000006895   0.0000005270  -0.0000024641
       -0.0000004023  -0.0000010655  -0.0000028903  -0.0000162879  -0.0000041943
       -0.0000286929   0.0000044511  -0.0000094836  -0.0000045058   0.0000133397
        0.0000213876  -0.0000034038  -0.0000258245   0.0000185695  -0.0000005965
       -0.0000118497  -0.0000020372   0.0000010065  -0.0000009252   0.0000007740
        0.0000030575  -0.0000047835  -0.0000036772   0.0000072727   0.0000007342
        0.0000000697  -0.0000100608  -0.0000022973   0.0000091880  -0.0000276029
       -0.0000138825  -0.0000165118  -0.0000156545   0.0000072860   0.0000049690
       -0.0005084714  -0.0001620021   0.0001533372  -0.0025806216   0.0016599492
        0.0030672585  -0.0151317308  -0.0061122024  -0.0184523742
       -0.0011179810  -0.0029751455  -0.0017007991   0.0036083995  -0.0028740727
        0.0085051390  -0.0771949525   0.0363493369  -0.0708167359   0.3214216763