29
 energy: -47.421683758244 gnorm: 0.000073075371 xtb: 6.7.1 (edcfbbe)
C            2.95931108036273       -2.07939499131148       -0.00000596605054
C            3.26489755733068       -0.73280387931577       -0.00001001104603
C            2.25483322489217        0.23408354506687       -0.00000840672982
C            2.55697907438070        1.62793727174015       -0.00001155642245
C            1.57587844790678        2.55844896483333       -0.00000968369635
C            0.20021272524966        2.18161816940940       -0.00000454040982
C           -0.81884842796945        3.13923667386535       -0.00000330558149
C           -2.14642706376512        2.76219651555229        0.00000213215629
C           -2.49478333456226        1.42172282879079        0.00000588943379
C           -1.50947030241621        0.43750051943032        0.00000451717948
C           -1.77354019910596       -0.95915176138742        0.00000792007465
N           -2.95232693639134       -1.65736078448694        0.00001313243547
C           -2.61904730026838       -2.97560623735629        0.00001483478687
N           -1.33349809103643       -3.17513775198219        0.00001197445947
C           -0.77263668641489       -1.92765199618166        0.00000607592157
C            0.60744761504956       -1.56551355440923        0.00000035231763
C            1.63903021765739       -2.49799032480958       -0.00000099048712
C            0.89788744964506       -0.17566446295783       -0.00000302490414
C           -0.13553270551435        0.80512744285856       -0.00000087452382
H            3.75394780996544       -2.81159025973817       -0.00000912489352
H            4.29662336396261       -0.41049206597241       -0.00001478720344
H            3.59727311004840        1.92177308556576       -0.00001520758912
H            1.81299254674661        3.61305536154882       -0.00001233086093
H           -0.55303377974272        4.18663583776098       -0.00000548232171
H           -2.92108371697389        3.51540810424905        0.00000450848666
H           -3.53796448597997        1.13982370767018        0.00001019120189
H           -3.88207298722230       -1.27070119694365        0.00001480727308
H           -3.35191135361842       -3.75867646939820        0.00001886451021
H            1.38486514779265       -3.54683129209974        0.00000109247452
