$hessian                                                                        
        0.5230603774  -0.0089104007   0.0076783331  -0.0694769590  -0.0193608277
        0.0161393094   0.0010351758   0.0182238820  -0.0155386109  -0.0028103326
        0.0004330475  -0.0015537815  -0.0008861210   0.0010909965  -0.0018202756
        0.0002760002   0.0004380384   0.0003844225  -0.0001330643  -0.0000548437
       -0.0000676078   0.0000329295   0.0000351860   0.0000468344  -0.0000108046
       -0.0000200195  -0.0000275829   0.0000473075   0.0000140112   0.0000341175
        0.0000141618  -0.0000752519  -0.0000437940  -0.0001235500   0.0000248322
       -0.0000263395  -0.0000272857  -0.0000365451  -0.0000085310   0.0000058169
       -0.0000096728  -0.0000095115  -0.0000065695  -0.0000019408   0.0000048327
       -0.0000021300  -0.0000095757   0.0000058197   0.0000166123   0.0000175438
       -0.0000084930  -0.0000139004   0.0000160567  -0.0000040883   0.0000111037
        0.0000141771  -0.0000182471   0.0000363971   0.0000142815   0.0000120754
        0.0000246803  -0.0000103733  -0.0000093268  -0.0000121144   0.0000062249
        0.0000109865  -0.0000084369  -0.0000072413  -0.0000044488  -0.0000095433
        0.0000079474   0.0000066782   0.0000884424  -0.0000980720  -0.0001073771
       -0.0000526931   0.0000501522   0.0001017900   0.0000130161   0.0000186684
       -0.0000181393   0.0000293513   0.0000320398  -0.0000422690  -0.0000073274
        0.0000262916  -0.0000067243   0.0000141594   0.0000168967  -0.0000049914
       -0.0000163747   0.0000060490  -0.0000188101   0.0000551310  -0.0000199874
        0.0000015425  -0.0000130453  -0.0000195415   0.0000283380  -0.0000108118
       -0.0000005548   0.0000519057  -0.0001302989   0.0000743261   0.0000088580
       -0.0000380456  -0.0000182798  -0.0000184180  -0.0632972792  -0.0518311012
       -0.0359780221  -0.2136042031   0.0440296839  -0.1005278769  -0.1694191412
        0.0396850505   0.1118669827  -0.0011027857  -0.0080868381   0.0048398740
       -0.0052434757  -0.0171876733   0.0155736584   0.0006470654   0.0008212711
        0.0000495153   0.0008702868   0.0004886962  -0.0008420342   0.0000111603
        0.0001336042  -0.0000522194   0.0000337858   0.0001267270  -0.0001639072
        0.0000254575  -0.0000061401  -0.0000060243  -0.0000056243  -0.0000058966
       -0.0000072448   0.0000032032  -0.0000082925  -0.0000125724   0.0000056521
       -0.0000147063  -0.0000233696   0.0000025112  -0.0000127375   0.0000160841
        0.0000035983  -0.0000047994   0.0000027096   0.0000062592  -0.0000039477
        0.0000018945   0.0000114287   0.0000021262  -0.0000027638  -0.0000007346
        0.0000054956   0.0000076040  -0.0000051900   0.0000054874   0.0000073512
       -0.0000083071   0.0000064213   0.0000066520  -0.0000000489   0.0000000281
        0.0000042916  -0.0000185159  -0.0000080952   0.0000102794   0.0000073739
       -0.0000081149   0.0000113978  -0.0000182552  -0.0000205094   0.0000163441
        0.0000227132   0.0000197661   0.0000266495  -0.0000084108   0.0000022070
       -0.0000180554  -0.0000050303  -0.0000198113   0.0000101559  -0.0000002907
       -0.0000057689   0.0000030596  -0.0000244354   0.0000072286  -0.0000062988
       -0.0000036066  -0.0000170110   0.0000068270   0.0000221640  -0.0000069207
        0.0000054876   0.0000557391  -0.0000180173   0.0000007571  -0.0000067339
       -0.0000056532   0.0000010618   0.0000724160   0.0000307201   0.0000132758
       -0.0089104007   0.4836573525   0.0307450817  -0.0201210598  -0.1499254430
        0.0625382837   0.0025828565  -0.0093505909   0.0093757541   0.0011165146
       -0.0000635212   0.0006304685   0.0003440822  -0.0001728071   0.0006308119
       -0.0001094473  -0.0002151979  -0.0001487781   0.0000208716   0.0000203359
        0.0000295513   0.0000001432  -0.0000187217  -0.0000179664   0.0000092622
        0.0000007132   0.0000014167  -0.0000268960  -0.0000198966  -0.0000142273
        0.0000083630   0.0000413974   0.0000202428   0.0000503282  -0.0000385542
       -0.0000196968  -0.0000249194  -0.0000102381   0.0000084602   0.0000386217
        0.0000063926  -0.0000082737  -0.0000083672   0.0000029022   0.0000022551
        0.0000132634   0.0000005244   0.0000025818  -0.0000297414   0.0000120483
        0.0000035663   0.0000310664  -0.0000248626   0.0000049912  -0.0000228032
       -0.0000014974   0.0000006349  -0.0000119785   0.0000333012   0.0000193498
        0.0000099488  -0.0000011109  -0.0000040622  -0.0000059605   0.0000066593
        0.0000023166   0.0000016782  -0.0000151970  -0.0000165455  -0.0000210252
        0.0000146598   0.0000140132   0.0000946587  -0.0001417852  -0.0001355033
       -0.0000778504   0.0001333160   0.0001096623   0.0000019424  -0.0000459141
       -0.0000265241   0.0000664137   0.0000437629  -0.0000528681   0.0000180146
        0.0000251840  -0.0000030862   0.0000416973   0.0000464125  -0.0000389339
       -0.0000087923  -0.0000141184   0.0000066978  -0.0000198945  -0.0000792627
        0.0000150678   0.0000215729  -0.0000595951  -0.0000053344   0.0000269318
        0.0000042601   0.0000616458  -0.0000461652  -0.0000141956   0.0000165832
       -0.0000061133   0.0000056915  -0.0000367025  -0.0516471747  -0.1929959984
       -0.1046739051   0.0442961146  -0.0541337981   0.0243170674   0.0396789656
       -0.0560013205  -0.0368814963  -0.0061975322  -0.0253850638   0.0148223765
       -0.0002247056   0.0029458967  -0.0004927630  -0.0004959708   0.0010825744
       -0.0007559073  -0.0005258329   0.0002731420  -0.0001699948   0.0000567734
        0.0002316726   0.0000524856   0.0001204483  -0.0000631638  -0.0000415560
       -0.0000107908   0.0000078440   0.0000142327   0.0000153879   0.0000112749
        0.0000101194   0.0000071217   0.0000095437   0.0000093170   0.0000066512
        0.0000144357   0.0000124799  -0.0000152870   0.0000065632  -0.0000022035
       -0.0000017805   0.0000023117   0.0000012846  -0.0000068705  -0.0000007606
        0.0000031653   0.0000002169   0.0000009095   0.0000042734   0.0000009689
        0.0000102059   0.0000049382  -0.0000027639   0.0000073194   0.0000082333
       -0.0000081625   0.0000087171   0.0000067401  -0.0000012199   0.0000063802
        0.0000032228  -0.0000238388   0.0000136406   0.0000129213  -0.0000086461
       -0.0000030042   0.0000097684  -0.0000219469  -0.0000051085   0.0000181659
        0.0000191242  -0.0000203106   0.0000093805  -0.0000043579  -0.0000119122
       -0.0000204967  -0.0000185413  -0.0000165628   0.0000220930  -0.0000137078
       -0.0000129852   0.0000069791  -0.0000287904   0.0000112278   0.0000118251
       -0.0000151606  -0.0000135194   0.0000128220   0.0000022240   0.0000298071
       -0.0000069760  -0.0000062827   0.0000635118  -0.0000090597   0.0000415820
        0.0000204679  -0.0000020407  -0.0000130313   0.0000636578  -0.0000284266
        0.0076783331   0.0307450817   0.5000616390   0.0167403416   0.0625622756
       -0.1156544216  -0.0019519517   0.0151052300  -0.0136670636  -0.0021733730
        0.0004685403  -0.0010174685  -0.0007097535   0.0008740186  -0.0010051293
        0.0001837779   0.0002644022   0.0002364955  -0.0000420487  -0.0000255222
       -0.0000456969   0.0000026855   0.0000007970   0.0000105743   0.0000054618
       -0.0000200606  -0.0000184095   0.0000154598   0.0000071235   0.0000187081
        0.0000238120  -0.0000558779  -0.0000163447   0.0000075670   0.0000055110
        0.0000313243  -0.0000156830  -0.0000201889   0.0000081095   0.0000059083
       -0.0000253972  -0.0000004717  -0.0000011304  -0.0000059539   0.0000006887
       -0.0000018255  -0.0000060995   0.0000048623  -0.0000118079  -0.0000143676
        0.0000081728  -0.0000043176  -0.0000050656   0.0000074141  -0.0000232105
       -0.0000211282   0.0000200591  -0.0000224951  -0.0000046602  -0.0000081631
       -0.0000018078   0.0000160379   0.0000149260   0.0000026246   0.0000003675
        0.0000014569  -0.0000018430  -0.0000056536  -0.0000048880  -0.0000129317
       -0.0000032159  -0.0000069836  -0.0000313631   0.0000458414   0.0000568548
        0.0000491967  -0.0000075368  -0.0000276809  -0.0000532818  -0.0000381732
       -0.0000193178  -0.0000366261  -0.0000218205   0.0000243114  -0.0000146815
       -0.0000302974  -0.0000128269  -0.0000131294  -0.0000314615   0.0000168848
       -0.0000238799   0.0000243712   0.0000100293   0.0000127341  -0.0000017915
        0.0000067598  -0.0000300337  -0.0000296126  -0.0000222195   0.0000059839
        0.0000548204   0.0000419726  -0.0000198604   0.0000382600   0.0000323563
        0.0000056914   0.0000136427   0.0000106168  -0.0359234696  -0.1043477961
       -0.1150757233  -0.1007475448   0.0242379039  -0.1030221913   0.1117488382
       -0.0371085589  -0.1445489148  -0.0025509936  -0.0102732593   0.0083799172
        0.0068208291   0.0173882768  -0.0158251692   0.0006388722   0.0005828389
        0.0003756399   0.0004958932  -0.0004457212   0.0008036158  -0.0000520267
        0.0000706974  -0.0001564308  -0.0001476875  -0.0000329064   0.0001484041
        0.0000020504   0.0000003204  -0.0000025833  -0.0000237338  -0.0000018098
       -0.0000063498  -0.0000211121  -0.0000062565  -0.0000142611  -0.0000091237
       -0.0000052813  -0.0000165070   0.0000055966   0.0000022631   0.0000028088
        0.0000006635   0.0000149839  -0.0000066132   0.0000064881   0.0000144997
       -0.0000071875   0.0000093698   0.0000105105  -0.0000082812   0.0000080621
        0.0000016616  -0.0000037297   0.0000142362  -0.0000049881  -0.0000059174
        0.0000146445  -0.0000012755  -0.0000029677   0.0000103087   0.0000019036
        0.0000005936   0.0000168212   0.0000100934   0.0000064832   0.0000115435
        0.0000022611   0.0000054566   0.0000244660   0.0000183333  -0.0000016766
        0.0000162468  -0.0000086988  -0.0000463148   0.0000044613   0.0000077275
        0.0000228916   0.0000060603   0.0000129838  -0.0000023471   0.0000068649
        0.0000194533   0.0000047454   0.0000076233   0.0000091071  -0.0000280886
       -0.0000006452   0.0000004586   0.0000070252   0.0000014443  -0.0000064427
       -0.0000076647   0.0000330560  -0.0000146667  -0.0000102772   0.0000132937
       -0.0000204223  -0.0000263439   0.0000160607   0.0000193692  -0.0000291722
       -0.0694769590  -0.0201210598   0.0167403416   0.4900522157   0.0053167577
       -0.0211977449  -0.1574557742   0.0227553846  -0.0539826240  -0.0010228043
        0.0040308087  -0.0039073502   0.0027601796  -0.0007403249   0.0026745261
       -0.0003350544  -0.0009250226  -0.0006373097   0.0002350720   0.0001959144
        0.0002405706  -0.0000645632  -0.0000195203  -0.0000509103  -0.0000068850
        0.0000170411   0.0000265033  -0.0000136037  -0.0000970418  -0.0001158561
       -0.0001112880   0.0002009619   0.0001820026   0.0001036282  -0.0000612901
        0.0000215958  -0.0000012705  -0.0000457258   0.0000700444  -0.0000539017
        0.0000572520   0.0000180815  -0.0000256060  -0.0000062901   0.0000041204
       -0.0000290881   0.0000333483  -0.0000083953   0.0000219665   0.0000230201
       -0.0000166652  -0.0000116294  -0.0000114226   0.0000078390  -0.0000526358
       -0.0000326318   0.0000261932  -0.0000056743   0.0000332726   0.0000015116
        0.0000414312  -0.0000158720  -0.0000242733   0.0000099074   0.0000083422
        0.0000125513  -0.0000007915  -0.0000276987  -0.0000301604  -0.0000011197
        0.0000060689   0.0000015374   0.0000956988  -0.0001650885  -0.0000995952
       -0.0000794774   0.0001796405   0.0000803332   0.0000023750  -0.0000283021
       -0.0000213716   0.0000837999   0.0001235133  -0.0001087826  -0.0000541419
        0.0000785828  -0.0000510906  -0.0000206075   0.0000648726  -0.0000316640
       -0.0000997647  -0.0000867177   0.0000298891  -0.0001620592  -0.0000186403
       -0.0000583602  -0.0000744185   0.0000587294  -0.0000756059   0.0000526460
        0.0001193424  -0.0000670424   0.0000984722   0.0000603598   0.0000501466
        0.0000874620  -0.0000266866   0.0000295213  -0.0017050692  -0.0082619768
        0.0044832051   0.0028165844   0.0194998722  -0.0157343549  -0.0057690811
       -0.0172436133   0.0155507903  -0.0621696895  -0.0490943278  -0.0329453004
       -0.1640545172   0.0387879096   0.1060616539  -0.0109361941   0.0000205036
       -0.0088441847  -0.0243650032   0.0072133294  -0.0102483988   0.0004848508
       -0.0004275783   0.0007422748   0.0010244183  -0.0010923635   0.0009168679
        0.0000613115  -0.0000582849  -0.0000575207   0.0000315721  -0.0000111465
       -0.0000171762   0.0000216770   0.0000016716   0.0000008912  -0.0000040997
        0.0000107533   0.0000039551   0.0000444828  -0.0000034396  -0.0000119766
        0.0000213049  -0.0000135383   0.0000020678   0.0000179299  -0.0000120798
        0.0000057564   0.0000044566  -0.0000089476   0.0000040884   0.0000019518
        0.0000166659   0.0000247712  -0.0000058334   0.0000080596   0.0000138402
       -0.0000098236   0.0000089556   0.0000103807  -0.0000051621  -0.0000018949
        0.0000131075  -0.0000254920  -0.0000020154  -0.0000067096   0.0000095933
       -0.0000125629   0.0000214535  -0.0000044263  -0.0000077442   0.0000223758
       -0.0000863238  -0.0001280429   0.0000592642   0.0000175270  -0.0000289054
        0.0000158229   0.0000089423  -0.0000297705   0.0000417784   0.0000049912
       -0.0000153421  -0.0000034951   0.0000095467  -0.0000238453   0.0000316171
        0.0000235827  -0.0000260582   0.0000043484   0.0000265762   0.0000026470
        0.0000293577   0.0000327595  -0.0000026521   0.0000206859   0.0000240914
       -0.0000310437   0.0000424412  -0.0000331718   0.0000329281   0.0000138143
       -0.0193608277  -0.1499254430   0.0625622756   0.0053167577   0.4994301869
        0.0357663483   0.0242285590  -0.0694788980   0.0103529542   0.0156011753
       -0.0070797113   0.0128352231   0.0023428309  -0.0038250437   0.0052363911
       -0.0006488099  -0.0011189113  -0.0007650624   0.0003487335   0.0001246076
        0.0001281064  -0.0000425798  -0.0000713541  -0.0001528406   0.0000209494
        0.0000722769   0.0000709983  -0.0000518789  -0.0000123012  -0.0000565382
       -0.0000344350   0.0001849705   0.0001977202   0.0000408120  -0.0000603350
        0.0000014723  -0.0000232470   0.0000029422   0.0000081991   0.0000154035
        0.0000292432  -0.0000095939  -0.0000155507   0.0000035894   0.0000000649
        0.0000134966   0.0000037488  -0.0000053552   0.0000028682   0.0000083567
       -0.0000013237   0.0000244154  -0.0000011175  -0.0000162582   0.0000020262
        0.0000042153  -0.0000156393   0.0000130664   0.0000243448   0.0000220046
        0.0000085383  -0.0000256547  -0.0000191185  -0.0000164233  -0.0000018873
       -0.0000047238   0.0000092589  -0.0000125286  -0.0000101269  -0.0000055550
        0.0000109754   0.0000152643   0.0001244821  -0.0001403165  -0.0001678041
       -0.0001344140   0.0000961649   0.0001641290   0.0000647091  -0.0000130835
       -0.0000489010   0.0001060287   0.0000320414  -0.0000939118   0.0000185141
        0.0000332253  -0.0000268768   0.0000370740   0.0000536098  -0.0000719428
       -0.0000178983   0.0000018303   0.0000179633   0.0000248289  -0.0000318322
        0.0000557409   0.0000341251   0.0000057917   0.0000547965   0.0000360356
       -0.0000237100   0.0000485703  -0.0000480385  -0.0000865055  -0.0000835824
       -0.0000302089  -0.0000020912  -0.0000434873  -0.0064394818  -0.0258043463
        0.0141315264   0.0001584150  -0.0079606795   0.0071536886  -0.0010071937
        0.0037636026  -0.0005948496  -0.0491670192  -0.1837046472  -0.1009795938
        0.0379467410  -0.0572679520  -0.0376385942  -0.0191602188   0.0038500570
       -0.0124350701   0.0087995272  -0.0020369002   0.0040051784   0.0006589251
        0.0003721299   0.0004965278   0.0005316524   0.0004908739  -0.0004194945
       -0.0000337690   0.0000034303   0.0000175277   0.0000313737   0.0000131896
        0.0000154675   0.0000079314   0.0000082337   0.0000270292  -0.0000019045
        0.0000249091   0.0000260683   0.0000010394   0.0000070006  -0.0000192635
        0.0000051349  -0.0000081363   0.0000093539  -0.0000102786  -0.0000110684
        0.0000113199  -0.0000138264   0.0000010749   0.0000058332   0.0000029059
        0.0000118194   0.0000055699  -0.0000051222   0.0000082082   0.0000073496
       -0.0000108864   0.0000084723   0.0000058920  -0.0000094139   0.0000054461
       -0.0000007436  -0.0000325081   0.0000010241   0.0000064763  -0.0000147246
        0.0000080176   0.0000083829  -0.0000476079  -0.0000214054   0.0000098833
       -0.0001250382  -0.0000130147   0.0001496966  -0.0000106674   0.0000024143
       -0.0000023832  -0.0000040613  -0.0000093419   0.0000293409  -0.0000160740
       -0.0000295441  -0.0000032698  -0.0000154866  -0.0000379565   0.0000676778
        0.0000046975  -0.0000045995  -0.0000026110  -0.0000034767   0.0000111314
       -0.0000297691  -0.0000071631   0.0000206757  -0.0000212942   0.0000020464
        0.0000118563   0.0000030645  -0.0000192896   0.0000746284   0.0000089467
        0.0161393094   0.0625382837  -0.1156544216  -0.0211977449   0.0357663483
        0.5011362529  -0.0546324676   0.0095847643  -0.0981119697  -0.0142798524
        0.0076042421  -0.0128382330  -0.0013659199   0.0035192300  -0.0035136169
        0.0004169688   0.0006352092   0.0003765994  -0.0000859363  -0.0000631079
       -0.0000428077   0.0000126299   0.0000511946   0.0000867964   0.0000220628
       -0.0000419859  -0.0000484513   0.0000694250   0.0000096617   0.0000295680
       -0.0000712525  -0.0000912440   0.0000334492  -0.0001175109   0.0000483510
       -0.0000378723   0.0000054650  -0.0000081841   0.0000055340  -0.0000650146
       -0.0000076765   0.0000067025  -0.0000190748  -0.0000173099   0.0000060298
        0.0000255689  -0.0000111066   0.0000025476   0.0000222601  -0.0000155489
        0.0000094423   0.0000094226   0.0000277480  -0.0000050546   0.0000380605
        0.0000020497  -0.0000132623  -0.0000064108  -0.0000102127   0.0000061901
       -0.0000152549   0.0000071153   0.0000152842  -0.0000191765  -0.0000089146
       -0.0000055887   0.0000089427  -0.0000018067   0.0000058503  -0.0000211610
        0.0000075304   0.0000128493   0.0000397115   0.0000009360  -0.0000527410
       -0.0000148389  -0.0000423932   0.0000835815  -0.0000087911   0.0000166235
       -0.0000569535  -0.0000303570  -0.0000547982  -0.0000215414  -0.0000056611
       -0.0000315946  -0.0000099262  -0.0000155551  -0.0000467002  -0.0000283814
        0.0000192499   0.0000691404  -0.0000094048   0.0000958521   0.0000594775
        0.0000353463   0.0000487948  -0.0000586402   0.0000620772  -0.0000474382
       -0.0000589592   0.0000115209  -0.0001705090   0.0000014636  -0.0000052296
        0.0000470948   0.0000762321  -0.0000230162  -0.0023900718  -0.0102558460
        0.0091960154   0.0007805592   0.0143734868  -0.0117045753   0.0069316788
        0.0170967891  -0.0161116591  -0.0322514783  -0.1003392150  -0.1127273512
        0.1062077966  -0.0378932692  -0.1379040116  -0.0172653781   0.0017073716
       -0.0115645353   0.0139129610  -0.0035991938   0.0084948935   0.0000050003
       -0.0006238331   0.0006202544  -0.0008826634   0.0000329844   0.0002913829
        0.0000186281  -0.0000144303  -0.0000582912  -0.0000216769  -0.0000162566
       -0.0000229527  -0.0000139137  -0.0000071373  -0.0000198688  -0.0000270133
       -0.0000224918  -0.0000389970   0.0000302473  -0.0000148989   0.0000196561
        0.0000066424   0.0000013071  -0.0000042566   0.0000083912   0.0000042283
       -0.0000049017   0.0000131236   0.0000145858  -0.0000123118   0.0000115968
       -0.0000026299  -0.0000064426   0.0000117450  -0.0000013227  -0.0000013417
        0.0000071179   0.0000006202   0.0000008776   0.0000100282   0.0000049756
       -0.0000011570   0.0000083730  -0.0000075859   0.0000166093   0.0000177487
        0.0000102340   0.0000065735  -0.0000120775  -0.0000105161   0.0000099617
       -0.0000096159   0.0001044694   0.0000777156  -0.0000027086   0.0000281691
       -0.0000030217   0.0000123057   0.0000122394  -0.0000085478  -0.0000065881
        0.0000033003   0.0000086734   0.0000166821   0.0000042555   0.0000348978
       -0.0000026160   0.0000113813  -0.0000068614   0.0000113779  -0.0000348869
       -0.0000229713   0.0000029365  -0.0000282500  -0.0000107543   0.0000077347
       -0.0000176068   0.0000026539   0.0000222355   0.0000235543   0.0000074951
        0.0010351758   0.0025828565  -0.0019519517  -0.1574557742   0.0242285590
       -0.0546324676   0.4981335782   0.0005795970  -0.0174504724  -0.0667427582
       -0.0274942224   0.0245615666  -0.0072364129   0.0221161529  -0.0262981539
        0.0022717106   0.0036442593   0.0012500098  -0.0006531163  -0.0001737348
       -0.0002526412   0.0003038197   0.0002105794   0.0004619107   0.0000326632
       -0.0001070669  -0.0001158716   0.0000675382   0.0000212589   0.0001311085
       -0.0003576342  -0.0003066737  -0.0002746095  -0.0002134563   0.0000523664
       -0.0000575759   0.0000920723  -0.0001005730   0.0001143706  -0.0000381459
        0.0000870191  -0.0000271967  -0.0000104578  -0.0000018518   0.0000092269
        0.0000278914   0.0000052809   0.0000056355  -0.0000071349  -0.0000004897
        0.0000010760   0.0001468003  -0.0000344477   0.0000385367   0.0000062538
       -0.0000272912  -0.0000108674  -0.0000574390   0.0000206279  -0.0000110321
        0.0000009021   0.0000357420   0.0000243002   0.0000066183   0.0000027092
        0.0000074801   0.0000007523  -0.0000252570  -0.0000251564  -0.0000333641
        0.0000176001   0.0000187250   0.0000804483  -0.0001344247  -0.0001176900
       -0.0000177545   0.0001040495   0.0000803711  -0.0000247590  -0.0000064235
       -0.0000324253   0.0000207372   0.0000191600  -0.0000251691  -0.0000110864
        0.0000249857   0.0000232013  -0.0000147122   0.0000073555  -0.0000231758
        0.0000090589  -0.0000321463  -0.0000334100  -0.0000776353   0.0000575062
       -0.0000287061  -0.0000846469  -0.0000342608  -0.0000505174  -0.0000244387
        0.0000157712   0.0000030008   0.0000285162   0.0001909367   0.0002545478
        0.0002250806   0.0000525280   0.0001684049   0.0005818799  -0.0004129192
        0.0007236605   0.0009422281  -0.0009781584   0.0009328483   0.0010119684
       -0.0008244841   0.0006761726  -0.0111143061   0.0000236662  -0.0086266821
       -0.0257971875   0.0072041282  -0.0101205456  -0.0620017593  -0.0513901296
       -0.0328295149  -0.1651627698   0.0432066211   0.1046238329  -0.0009237220
       -0.0060179985   0.0035157982  -0.0070230922  -0.0163096358   0.0154618175
        0.0000575397  -0.0000154391  -0.0000793985  -0.0000642519  -0.0000237015
       -0.0000269992  -0.0000058928  -0.0000277316  -0.0000856445   0.0000153773
       -0.0000680364  -0.0000906617  -0.0000629979  -0.0000229444   0.0000558421
       -0.0000127261   0.0000127172  -0.0000080182   0.0000112009   0.0000124288
       -0.0000082791   0.0000288923   0.0000044984  -0.0000033975  -0.0000040306
        0.0000007075   0.0000023060   0.0000009073   0.0000023889   0.0000040552
       -0.0000059006   0.0000036454   0.0000025494   0.0000108785   0.0000016687
        0.0000044187   0.0000003568  -0.0000056867  -0.0000001284   0.0000123358
       -0.0000042570   0.0000095864  -0.0000029346   0.0000010634   0.0000064251
       -0.0000261853  -0.0000225064   0.0000222855   0.0000529429  -0.0000034699
       -0.0000351017  -0.0000082609  -0.0000212365  -0.0000120575  -0.0000208119
       -0.0000185087   0.0000096807   0.0000412474   0.0000146087   0.0000545689
       -0.0000024888   0.0000194271  -0.0000207966   0.0000483079  -0.0000083603
        0.0000106243   0.0000276101  -0.0000167030   0.0000130370   0.0000217225
        0.0000111189   0.0000292248  -0.0000549677   0.0000751807   0.0000541090
        0.0182238820  -0.0093505909   0.0151052300   0.0227553846  -0.0694788980
        0.0095847643   0.0005795970   0.4925585069   0.0418126781  -0.0246736515
       -0.1350128159   0.0503813864   0.0086128872  -0.0078414584   0.0136646635
       -0.0003118369   0.0007214517  -0.0011877387  -0.0001030893   0.0002001600
       -0.0000484775  -0.0000768768  -0.0001058491   0.0001394177   0.0000240628
       -0.0000287956  -0.0000073774   0.0000011290  -0.0001018770  -0.0000083067
        0.0000860786  -0.0001619465   0.0000119918   0.0002523983   0.0000396114
       -0.0001887908  -0.0000970226  -0.0001414628  -0.0000322372   0.0000893771
       -0.0000556209  -0.0000197030  -0.0000151734  -0.0000032454   0.0000088317
        0.0000212108  -0.0000095668  -0.0000047075  -0.0000459497  -0.0000219919
        0.0000218235   0.0000059026  -0.0000358030   0.0000163444   0.0000010286
       -0.0000213951   0.0000130396  -0.0000406825   0.0000179898   0.0000057748
       -0.0000135798   0.0000091013   0.0000124452  -0.0000037741  -0.0000008820
       -0.0000056006   0.0000013254  -0.0000100187  -0.0000117140  -0.0000042887
        0.0000018319   0.0000009002   0.0000033314  -0.0000210385  -0.0000131985
        0.0000213008   0.0000489211   0.0000036677  -0.0000260302  -0.0000398923
       -0.0000131922   0.0000279735  -0.0000152266   0.0000176466   0.0000397668
       -0.0000045034   0.0000363654   0.0000340576   0.0000088950  -0.0000395528
       -0.0000265999   0.0000225963  -0.0000314998  -0.0000417063   0.0000258488
       -0.0000003378  -0.0000225213  -0.0000742921  -0.0000173664  -0.0001606723
        0.0000918640  -0.0000892119   0.0002766118  -0.0002165117  -0.0000703881
        0.0001343468  -0.0000981472  -0.0001447044   0.0009503483   0.0006346683
        0.0005579655   0.0000814356  -0.0038243714   0.0038060961   0.0003326277
        0.0006479231  -0.0006166187  -0.0191937348   0.0037769035  -0.0121869992
        0.0091236217  -0.0019655432   0.0037700364  -0.0511373146  -0.1873778810
       -0.0991603798   0.0424288647  -0.0602661016  -0.0395374477  -0.0076890742
       -0.0258243670   0.0145847030  -0.0003967205   0.0030719708  -0.0000963983
        0.0000140070   0.0000495727   0.0000015203   0.0000459799   0.0000221593
        0.0000250706   0.0000153201   0.0000499922   0.0000009234   0.0000039150
        0.0000646095   0.0000290123  -0.0000464503   0.0000333947  -0.0000284465
       -0.0000102402   0.0000264912   0.0000026758  -0.0000149504   0.0000109740
        0.0000046121  -0.0000021184   0.0000085043   0.0000049609   0.0000055967
       -0.0000004377  -0.0000074229   0.0000018758   0.0000022186   0.0000019383
       -0.0000030423   0.0000023562   0.0000021536  -0.0000020992   0.0000017419
       -0.0000003429   0.0000014899   0.0000115993  -0.0000024009  -0.0000150121
        0.0000066811   0.0000023677  -0.0000056541   0.0000139424  -0.0000034836
       -0.0000134103  -0.0000082739  -0.0000301364  -0.0000008652  -0.0000265220
       -0.0000128112  -0.0000177067   0.0000100120  -0.0000077245  -0.0000434423
       -0.0000266697   0.0000229892   0.0000595444   0.0000246626   0.0000419113
       -0.0000193228   0.0000307705  -0.0000220877  -0.0000105666   0.0000158355
        0.0000053431   0.0000054397   0.0000223658   0.0000026117   0.0000289123
        0.0000241987  -0.0000052993  -0.0000054509  -0.0001383292  -0.0000517570
       -0.0155386109   0.0093757541  -0.0136670636  -0.0539826240   0.0103529542
       -0.0981119697  -0.0174504724   0.0418126781   0.4929115717   0.0231716319
        0.0485020403  -0.1051567487  -0.0122758210   0.0192233754  -0.0192365979
        0.0011077353   0.0024298584   0.0007853887  -0.0002551366  -0.0000542715
       -0.0000440096   0.0001407735   0.0000621254   0.0001422817   0.0000584115
       -0.0001158390  -0.0001050665  -0.0000132012  -0.0000029465   0.0000159076
       -0.0002273564  -0.0002311524  -0.0000888666  -0.0000234115   0.0000976601
        0.0000275664   0.0001050804   0.0000441115  -0.0001898466  -0.0000443701
       -0.0001052015   0.0000499563   0.0000250565  -0.0000191921   0.0000017622
       -0.0000367727   0.0000027272   0.0000085938   0.0000018521  -0.0000306324
        0.0000222638  -0.0001055285   0.0000571370  -0.0000309981  -0.0000088976
       -0.0000339436   0.0000331717  -0.0000234250  -0.0000075902   0.0000091523
        0.0000062361   0.0000147950   0.0000150756  -0.0000010488   0.0000024800
        0.0000067864  -0.0000011909  -0.0000136442  -0.0000101707  -0.0000220223
        0.0000021355   0.0000036731   0.0000242179  -0.0000262522  -0.0000230198
       -0.0000006661   0.0000263773   0.0000380392  -0.0000343660  -0.0000134801
       -0.0000264497  -0.0000127303   0.0000236476  -0.0000207815  -0.0000395703
       -0.0000062382  -0.0000406916  -0.0000367455  -0.0000212779  -0.0000110069
        0.0000074148   0.0000239247  -0.0000344178  -0.0000541772  -0.0000322665
        0.0000387730   0.0000733501  -0.0000041507  -0.0000067201  -0.0000994017
        0.0000882019  -0.0001000039   0.0001654744  -0.0002880123  -0.0000951967
        0.0000794621  -0.0000913537  -0.0001337204   0.0001538306  -0.0009231956
        0.0008394861   0.0000404434   0.0034274388  -0.0023694804  -0.0008536297
       -0.0001535874   0.0004314708  -0.0178807437   0.0016848822  -0.0117864818
        0.0140034003  -0.0032893617   0.0083835428  -0.0321495322  -0.0992053764
       -0.1100501602   0.1049954099  -0.0399345330  -0.1341655418  -0.0027208642
       -0.0089976988   0.0078191379   0.0094063301   0.0165732586  -0.0159245126
        0.0001060163  -0.0000445151  -0.0000141864  -0.0000363458  -0.0000042384
       -0.0000156042  -0.0000237448  -0.0000227093  -0.0000366236  -0.0000045301
       -0.0000286500  -0.0000563829   0.0000308333  -0.0000164270   0.0000281830
        0.0000141390   0.0000008298  -0.0000086511   0.0000211811   0.0000050475
       -0.0000081045   0.0000175360   0.0000080609  -0.0000176525   0.0000071388
        0.0000025760   0.0000001077   0.0000065797  -0.0000027257  -0.0000027304