$hessian                                                                        
        0.4963260970   0.0304963111  -0.0248041166  -0.0988155488   0.0491083788
       -0.0335021561   0.0053638982  -0.0054278323   0.0043415128  -0.0045769616
        0.0084073233  -0.0017777087  -0.0264851418   0.0124032071  -0.0147476733
       -0.0009692340  -0.0013174770  -0.0018756018  -0.0010996233  -0.0010325318
        0.0009463733   0.0002730057   0.0005152120   0.0004152084   0.0001917460
       -0.0001442043   0.0009137459  -0.0007493648   0.0010447619  -0.0004999211
        0.0000482677   0.0000273402   0.0000312947  -0.0000418534   0.0000104350
        0.0000204661  -0.0000252870  -0.0000023599   0.0000009639  -0.0000224597
        0.0000157680   0.0000118938  -0.0000054891  -0.0000063752  -0.0000082687
        0.0000060223   0.0000028280  -0.0000076617   0.0000079778  -0.0000077683
        0.0000041511   0.0000319859  -0.0000316397  -0.0000139052  -0.0000120270
       -0.0000172574  -0.0000051023  -0.0000555075   0.0000442366  -0.0000658153
       -0.0004567211  -0.0001717079  -0.0002109467   0.0001930822   0.0000185220
       -0.0000764429  -0.0001436399   0.0000185953  -0.0000117017   0.0001147986
        0.0000030693   0.0001009735   0.0000081979  -0.0000539112  -0.0000758771
       -0.0000171865   0.0000311753   0.0000300554  -0.0000203926   0.0000028436
        0.0000020222   0.0000513921  -0.0000420932  -0.0000024405  -0.0000989688
        0.0000727265  -0.0000830169   0.0000753247  -0.0000547363  -0.0000414997
        0.0000501739   0.0000544663   0.0000331734  -0.0001015848  -0.0000208005
       -0.0001398066   0.0000172318   0.0000592249   0.0000835041   0.0000042937
       -0.0000030109   0.0000108963   0.0000006816  -0.0000416319  -0.0000168457
        0.0000019317   0.0000516595   0.0000386328   0.0000429035   0.0000024660
       -0.0000028438  -0.0000092079  -0.0000084349  -0.0000267238  -0.0000009399
       -0.0000039833   0.0000066374   0.0000017122   0.0000159500  -0.0000150173
        0.0000005215  -0.0000002723   0.0000033585  -0.0000045532  -0.0000019812
        0.0000034386   0.0000003419   0.0000011072   0.0000003668   0.0000057562
        0.0000036851  -0.0000024329  -0.0000089953  -0.0000036956   0.0000045193
       -0.0000026339   0.0000010515   0.0000001580   0.0000026464   0.0000011643
       -0.0000008307   0.0000002429  -0.0000029396   0.0000019345  -0.0000030901
       -0.0000001620   0.0000020269   0.0000042691   0.0000053569  -0.0000014939
        0.0000029766  -0.0000079063   0.0000039932   0.0000139356  -0.0000053983
        0.0000139456   0.0000070128  -0.0000025525   0.0000196462  -0.0000020822
       -0.0000012836  -0.0000043662   0.0000113093   0.0000064677   0.0000014753
       -0.0000074752   0.0000023262  -0.0000018876  -0.0000000929  -0.0000014677
        0.0000004392   0.0000030001  -0.0000044570   0.0000020262   0.0000011473
       -0.0000003827   0.0000000635   0.0000008127   0.0000010967   0.0000016028
        0.0000006782  -0.0000011672  -0.0000018654   0.0000030397   0.0000027823
       -0.0000003206  -0.0000029060   0.0000021325  -0.0000010377  -0.0000065504
       -0.0000043236   0.0000008549   0.0000036222  -0.0000024205   0.0000015598
        0.0000005982  -0.0000001553   0.0000003563   0.0000049432   0.0000030688
       -0.0000013762   0.0000000962   0.0000012845   0.0000002009   0.0000008787
       -0.0000011955   0.0000021121   0.0000015178  -0.0000011580  -0.0000012927
       -0.0000048353   0.0000009257  -0.0000018246   0.0000000145  -0.0000014410
        0.0000010444   0.0000044445   0.0000068722  -0.0000006322  -0.0000625078
       -0.0000129186   0.0000182348   0.0000248252   0.0000059409  -0.0000429489
       -0.0000175735  -0.0000046282   0.0000170210  -0.2253915348  -0.0877480660
       -0.0486676016  -0.0493398908   0.0301899843   0.0235338531  -0.0952108366
       -0.0343623474   0.0933968436   0.0007489564  -0.0005114535   0.0006435611
       -0.0002459151  -0.0013081290   0.0024783499   0.0003438416  -0.0003724044
        0.0001844588   0.0000650577   0.0000002481  -0.0004505705   0.0000811429
        0.0010012874   0.0006285207   0.0006622117  -0.0012090300  -0.0002188989
       -0.0000106114   0.0001894628  -0.0003649531  -0.0002212806  -0.0001247407
        0.0000412496  -0.0005055128   0.0004012595  -0.0004057398  -0.0000117935
        0.0000105812   0.0000169239  -0.0000026685  -0.0000017417   0.0000063293
       -0.0000009795   0.0000062735   0.0000024149   0.0000035957  -0.0000040833
       -0.0000035315   0.0000029364   0.0000021893   0.0000038609   0.0000027077
       -0.0000092995  -0.0000009407  -0.0000027278   0.0000042860  -0.0000018484
        0.0000002305   0.0000007701   0.0000051869   0.0000012610  -0.0000048473
       -0.0000073069  -0.0000012908   0.0000040790   0.0000028751  -0.0000075425
       -0.0000045300  -0.0000031253  -0.0000045046  -0.0000043569  -0.0000103115
        0.0000265944   0.0000016056   0.0000013830   0.0000152258  -0.0000083826
       -0.0000005462  -0.0000031369   0.0000166927   0.0000170460  -0.0000503761
       -0.0000182741   0.0001116962  -0.0000523020  -0.0001368484   0.0000482514
       -0.0000059564  -0.0000081013  -0.0000035535   0.0000049236   0.0000171103
        0.0000045236   0.0000223903   0.0000038678  -0.0000014274  -0.0000071203
       -0.0000047995  -0.0000002338   0.0000056377   0.0000002448  -0.0000024298
       -0.0000005176  -0.0000010624   0.0000012723   0.0000002101  -0.0000014601
       -0.0000007162  -0.0000001514  -0.0000011028  -0.0000001549  -0.0000017038
        0.0000003587  -0.0000009476  -0.0000010455  -0.0000014137   0.0000002347
        0.0000003126  -0.0000004938  -0.0000000359   0.0000050700  -0.0000003007
       -0.0000008678   0.0000055684  -0.0000004500   0.0000003776   0.0000033032
       -0.0000029155   0.0000007857   0.0000001894  -0.0000008281  -0.0000012842
       -0.0000005227   0.0000000321   0.0000014158  -0.0000017205   0.0000008776
       -0.0000011094  -0.0000009991   0.0000004518  -0.0000014478   0.0000004163
       -0.0000003650   0.0000001726  -0.0000002733   0.0000003842   0.0000010179
       -0.0000014074   0.0000010898  -0.0000002357  -0.0000001599  -0.0000005312
       -0.0000010947   0.0000002412  -0.0000006019  -0.0000000838  -0.0000015535
       -0.0000003257  -0.0000001145  -0.0000003766  -0.0000009603   0.0000006146
       -0.0000000912   0.0000005236   0.0000002729   0.0000003363   0.0000004719
       -0.0000000377  -0.0000002383  -0.0000007016  -0.0000000031   0.0000001180
        0.0000007244   0.0000002941   0.0000012169  -0.0000003549   0.0000004479
       -0.0000009003  -0.0000008845  -0.0000003866  -0.0000011026  -0.0000002400
        0.0000002147   0.0000011359  -0.0000005796   0.0000001568   0.0000005478
        0.0000003798  -0.0000005403  -0.0000004777  -0.0000013742   0.0000000046
        0.0000049225   0.0000010444  -0.0000010126
        0.0304963111   0.4940272303   0.0299930438   0.0426723076  -0.1154597489
        0.0350108106   0.0053156627  -0.0095686157   0.0098187503   0.0166077053
       -0.0257391828   0.0068957139  -0.0016262861   0.0072538713  -0.0022471320
       -0.0012261048  -0.0005437461  -0.0002895208  -0.0001949828  -0.0003601711
        0.0003128276   0.0003085658   0.0003199361   0.0001486597   0.0003507077
        0.0001803689   0.0002175574  -0.0011101432  -0.0009883870  -0.0008499194
        0.0000331679  -0.0000108658   0.0000548595  -0.0000984518   0.0000477942
        0.0000798580  -0.0000240687   0.0000093842  -0.0000002976  -0.0000347918
        0.0000004596   0.0000066739   0.0000068241  -0.0000128014  -0.0000160428
        0.0000112873  -0.0000039816  -0.0000159487   0.0000159708  -0.0000092396
       -0.0000000876   0.0000354115  -0.0000172063  -0.0000065010   0.0000272956
        0.0000306344   0.0000093375  -0.0000957291   0.0001114145   0.0000161520
       -0.0004504323  -0.0002910565  -0.0000930481   0.0003133127  -0.0000120623
       -0.0001578229  -0.0000970249   0.0000471970   0.0000641995   0.0000653986
        0.0000478667   0.0000767227  -0.0000525446  -0.0000624687  -0.0000688428
        0.0000138496   0.0000072226   0.0000241746  -0.0000413750  -0.0000161831
       -0.0000106496   0.0000208311   0.0000073416   0.0000161484  -0.0000265648
        0.0000628575  -0.0000973697   0.0000414074  -0.0000904788  -0.0000578392
        0.0000103548  -0.0000796613  -0.0000504135   0.0002136158   0.0000241197
        0.0001383636  -0.0000834271   0.0000575811   0.0000048730   0.0000039415
       -0.0000080836  -0.0000087630   0.0000060460  -0.0000122014  -0.0000010723
       -0.0000464810   0.0000701200   0.0000327834   0.0000863302   0.0000174885
       -0.0000115703   0.0000228606   0.0000148715  -0.0000990552  -0.0000892838
       -0.0000067896   0.0000488258   0.0000057053   0.0000294713  -0.0000375045
        0.0000018177  -0.0000115407   0.0000068213   0.0000041054   0.0000085277
       -0.0000034825  -0.0000026801   0.0000037149  -0.0000010622   0.0000033347
       -0.0000013392   0.0000020095  -0.0000136533   0.0000080278   0.0000014525
       -0.0000074348  -0.0000096872   0.0000081887   0.0000021156   0.0000029699
       -0.0000033708  -0.0000033892  -0.0000044227   0.0000040473   0.0000088502
       -0.0000050058   0.0000001182  -0.0000063661   0.0000101683  -0.0000028576
        0.0000363713  -0.0000235413   0.0000178110   0.0000721293  -0.0000204453
        0.0000620218  -0.0000856800   0.0000150400  -0.0000334193   0.0000145419
       -0.0000374936   0.0000371089   0.0000020377   0.0000106194  -0.0000031119
        0.0000048197  -0.0000088943   0.0000041488  -0.0000018921  -0.0000065250
        0.0000026254  -0.0000015763  -0.0000037084   0.0000025040  -0.0000024643
        0.0000014672  -0.0000018227  -0.0000011804   0.0000020487  -0.0000013893
       -0.0000018170   0.0000020081  -0.0000019504   0.0000017298   0.0000025607
       -0.0000023217  -0.0000106682  -0.0000072429   0.0000004814  -0.0000042933
        0.0000095186  -0.0000080626  -0.0000014966  -0.0000062452   0.0000043627
        0.0000017550   0.0000054127  -0.0000035079   0.0000016611   0.0000027246
       -0.0000007426  -0.0000014364  -0.0000001425   0.0000002463  -0.0000014537
       -0.0000013507   0.0000008988  -0.0000012073  -0.0000020537   0.0000003050
        0.0000059834   0.0000042579  -0.0000004184  -0.0000054803  -0.0000094730
        0.0000038613   0.0000349722   0.0000234083  -0.0000189205  -0.0000624374
       -0.0000303228  -0.0000426106   0.0000013873  -0.0000093247   0.0000922826
       -0.0000030912   0.0000087151  -0.0000454582  -0.0884155351  -0.0848806494
       -0.0242705522   0.0300066218  -0.1950652916  -0.1128423606  -0.0342959139
       -0.0649919720   0.0588510493   0.0005860524   0.0001315274  -0.0002325778
       -0.0006561727  -0.0006779166   0.0020961470   0.0000767010   0.0006937420
       -0.0010263511  -0.0001165480   0.0006609464   0.0009372225   0.0014108569
       -0.0049999008  -0.0026286324   0.0009449483   0.0003376352   0.0009240424
       -0.0000441428   0.0000564595  -0.0000698926  -0.0001212249  -0.0000249277
        0.0000114198  -0.0006032719  -0.0000718139  -0.0006679195   0.0000178826
       -0.0000076252  -0.0000231601  -0.0000061267   0.0000080904  -0.0000082793
        0.0000012890  -0.0000121598   0.0000121634   0.0000055330  -0.0000019628
       -0.0000053151  -0.0000015736   0.0000008925   0.0000071153   0.0000039230
       -0.0000148747  -0.0000068527   0.0000051625   0.0000095830  -0.0000007362
       -0.0000041773   0.0000025910   0.0000006046   0.0000039459  -0.0000105358
       -0.0000126274   0.0000058111   0.0000056877   0.0000066760  -0.0000033097
       -0.0000051452  -0.0000075875  -0.0000115935  -0.0000040587  -0.0000024720
        0.0000131894   0.0000076889  -0.0000000930   0.0000080491   0.0000027678
        0.0000016019   0.0000030583   0.0000239137   0.0000190898  -0.0000041435
       -0.0000810811   0.0001026272  -0.0001124525  -0.0000583545  -0.0000874431
        0.0000083141  -0.0000104252   0.0000081133  -0.0000257865  -0.0000163694
       -0.0000153972  -0.0000011676   0.0000083514   0.0000030199  -0.0000071589
       -0.0000054362   0.0000068949  -0.0000035792   0.0000015150  -0.0000021494
        0.0000004428  -0.0000022594   0.0000004873  -0.0000023504  -0.0000020926
        0.0000009060  -0.0000027092  -0.0000002202   0.0000004558  -0.0000021237
       -0.0000002766  -0.0000003112  -0.0000024025   0.0000011431  -0.0000005154
       -0.0000015705   0.0000012977  -0.0000011663  -0.0000020713  -0.0000038924
        0.0000008080  -0.0000048354  -0.0000045663   0.0000006371  -0.0000000586
        0.0000011706  -0.0000005997  -0.0000003801  -0.0000018411   0.0000001398
        0.0000001098  -0.0000014745   0.0000009741  -0.0000021741   0.0000021466
       -0.0000014726  -0.0000024045   0.0000014032  -0.0000020024   0.0000022869
        0.0000009002   0.0000007443  -0.0000000292  -0.0000008808   0.0000013486
       -0.0000028551   0.0000021706  -0.0000008634  -0.0000001916  -0.0000020631
       -0.0000002068   0.0000026450   0.0000002983  -0.0000005349  -0.0000019299
        0.0000004070  -0.0000007437  -0.0000021858   0.0000011866  -0.0000004171
        0.0000005104   0.0000008337   0.0000003633   0.0000001623   0.0000002689
       -0.0000019204  -0.0000025985  -0.0000013301   0.0000005652   0.0000005424
        0.0000005728   0.0000002691   0.0000009417   0.0000000849   0.0000003368
       -0.0000030964  -0.0000015870  -0.0000003174  -0.0000034401  -0.0000010205
        0.0000009944   0.0000011867  -0.0000003670  -0.0000002097   0.0000004371
       -0.0000002309  -0.0000017359   0.0000002963  -0.0000002194   0.0000007934
       -0.0000027087   0.0000028165  -0.0000019152
       -0.0248041166   0.0299930438   0.5033642420  -0.0308492070   0.0375839916
       -0.0873781193  -0.0116256056   0.0207022827  -0.0185519857   0.0077496873
       -0.0109752276   0.0048763748  -0.0096205451   0.0034369204  -0.0037437290
        0.0003031431   0.0000044810  -0.0008707464  -0.0003821465  -0.0003184605
        0.0001842435  -0.0000198674   0.0001535406   0.0001277822   0.0000734879
        0.0001257560   0.0002641693  -0.0002482649  -0.0001204618   0.0000278725
        0.0000359656   0.0000173916   0.0000093446  -0.0000463016  -0.0000106084
        0.0000235896   0.0000055125   0.0000043132   0.0000002303  -0.0000219235
        0.0000048981   0.0000073411  -0.0000016630   0.0000021908  -0.0000170907
        0.0000014191   0.0000051075  -0.0000071033   0.0000049771   0.0000000783
        0.0000072877   0.0000168056  -0.0000064144  -0.0000079681  -0.0000201459
       -0.0000238549  -0.0000131788  -0.0000021777   0.0000217454   0.0000107054
       -0.0000591798  -0.0000376386  -0.0000979135  -0.0000449957  -0.0000089283
        0.0000206175   0.0000491254  -0.0000091621   0.0000220038  -0.0000984795
       -0.0000903259  -0.0000730006   0.0001031189   0.0000912653   0.0000766856
       -0.0000258051  -0.0000012963  -0.0000090642   0.0000108156   0.0000046812
       -0.0000109369  -0.0000453745  -0.0000081049  -0.0000475215  -0.0000265145
       -0.0001090695   0.0001381309   0.0000232606   0.0000085588   0.0000355238
        0.0000589411   0.0000091444   0.0000646558  -0.0000923512  -0.0000813835
        0.0000848277  -0.0000839370   0.0000391370  -0.0000713343  -0.0000104410
       -0.0000104770  -0.0000157724   0.0000131780  -0.0000251608  -0.0000128890
        0.0000521257   0.0000113457  -0.0000171785  -0.0000338929   0.0000041584
        0.0000045559   0.0000025571  -0.0000002589   0.0000111314   0.0000068559
       -0.0000026625  -0.0000147423   0.0000030716   0.0000077260  -0.0000003844
        0.0000012325  -0.0000011947  -0.0000023538  -0.0000017777  -0.0000020912
        0.0000001097  -0.0000011159   0.0000005564  -0.0000004703   0.0000020972
        0.0000000544  -0.0000015955  -0.0000015729  -0.0000015648   0.0000008393
       -0.0000017566   0.0000009294   0.0000002075   0.0000017317   0.0000006598
       -0.0000007854   0.0000016465  -0.0000007741  -0.0000000359  -0.0000009107
       -0.0000012783   0.0000017169  -0.0000004867   0.0000009173  -0.0000004434
        0.0000055845  -0.0000056218  -0.0000000793  -0.0000043645   0.0000051554
        0.0000057072   0.0000026966  -0.0000011565   0.0000018375  -0.0000001381
       -0.0000044079   0.0000030734   0.0000040689   0.0000019414   0.0000003191
       -0.0000036279   0.0000028826  -0.0000017403   0.0000007542  -0.0000012117
        0.0000007983   0.0000016661  -0.0000016745   0.0000017434   0.0000011615
        0.0000000209   0.0000009633   0.0000008360   0.0000012873   0.0000013319
        0.0000008598  -0.0000006356  -0.0000008867   0.0000038407  -0.0000001262
        0.0000004310  -0.0000037100   0.0000014716  -0.0000010711  -0.0000024633
       -0.0000015668   0.0000003266   0.0000033110  -0.0000000051  -0.0000000661
        0.0000002748   0.0000008903  -0.0000005509   0.0000015594   0.0000012924
        0.0000002330   0.0000001527   0.0000006136   0.0000004307   0.0000000714
       -0.0000005321   0.0000003485   0.0000008678  -0.0000003230  -0.0000007378
       -0.0000010662  -0.0000007662  -0.0000009309   0.0000012598  -0.0000002708
       -0.0000009163   0.0000036785   0.0000050105  -0.0000002604  -0.0000138286
        0.0000013627   0.0000081423   0.0000049519   0.0000060850  -0.0000304475
       -0.0000005715  -0.0000075253   0.0000085735  -0.0484063722  -0.0241112059
       -0.0573214372   0.0235574933  -0.1133837689  -0.1269469911   0.0932987085
        0.0591884863  -0.2096110504  -0.0007830886  -0.0003726112   0.0006462646
        0.0018153653   0.0026520774  -0.0049641598  -0.0008787872   0.0005745420
        0.0007945275   0.0003274981  -0.0009864595   0.0007067805   0.0009051023
       -0.0036031534  -0.0012695398   0.0006747268  -0.0004122892   0.0003809695
       -0.0001204823  -0.0000573626  -0.0000506217  -0.0000129439  -0.0000698893
        0.0000446411  -0.0007346362   0.0000547756  -0.0005687515   0.0000127159
       -0.0000043606  -0.0000285852  -0.0000007245   0.0000045023  -0.0000059879
        0.0000056070  -0.0000139721   0.0000097105  -0.0000008250   0.0000047650
        0.0000064059  -0.0000023094  -0.0000040868   0.0000060551  -0.0000017808
       -0.0000028183   0.0000012218   0.0000047246   0.0000034673   0.0000004930
        0.0000000567   0.0000016870   0.0000009166  -0.0000007568  -0.0000017080
       -0.0000002033   0.0000030540   0.0000018854   0.0000024522   0.0000000426
        0.0000032330   0.0000021738   0.0000120150   0.0000001308  -0.0000013826
       -0.0000150001   0.0000047248   0.0000024440  -0.0000132948   0.0000104242
        0.0000121885  -0.0000037301   0.0000085300   0.0000178754   0.0000066139
       -0.0000045378  -0.0002200501  -0.0000492942   0.0002351590  -0.0000192652
        0.0000290842  -0.0000794386  -0.0000083214   0.0000013250  -0.0000180405
       -0.0000044709  -0.0000026625  -0.0000140804  -0.0000012654   0.0000070700
        0.0000008192  -0.0000081396   0.0000026871   0.0000011176   0.0000016076
       -0.0000004473   0.0000004857   0.0000009959  -0.0000007460  -0.0000011350
        0.0000005173  -0.0000013783  -0.0000003009   0.0000005328  -0.0000017204
       -0.0000002370   0.0000003869  -0.0000016245   0.0000000432   0.0000004469
       -0.0000003106   0.0000010588  -0.0000003747   0.0000035160  -0.0000000071
        0.0000005645   0.0000045106   0.0000006784   0.0000005403   0.0000025401
       -0.0000006975  -0.0000000080  -0.0000003074  -0.0000006057  -0.0000009619
        0.0000010438   0.0000000537  -0.0000000071  -0.0000006899   0.0000009176
       -0.0000002762  -0.0000002878   0.0000005639  -0.0000008651   0.0000000572
       -0.0000004295   0.0000003511   0.0000009159   0.0000001457  -0.0000001512
       -0.0000007276   0.0000010110   0.0000000032  -0.0000003776  -0.0000007345
       -0.0000008506   0.0000002381  -0.0000004610   0.0000003145  -0.0000014053
       -0.0000000097   0.0000002030  -0.0000010354  -0.0000001391   0.0000003441
        0.0000002199  -0.0000001584  -0.0000005524   0.0000000078   0.0000004259
       -0.0000004639  -0.0000006074  -0.0000002756  -0.0000003196   0.0000003144
        0.0000000766  -0.0000004988   0.0000006726  -0.0000000010  -0.0000001092
       -0.0000002931  -0.0000002665  -0.0000007080  -0.0000005915  -0.0000001990
       -0.0000001324   0.0000006096  -0.0000002412  -0.0000003174   0.0000003188
       -0.0000001586  -0.0000007509  -0.0000004441  -0.0000008561   0.0000004142
        0.0000028030   0.0000002424   0.0000008097
       -0.0988155488   0.0426723076  -0.0308492070   0.4670148402   0.0074566585
        0.0016253044  -0.0831764430  -0.0155935907   0.0413797999  -0.0654136127
        0.0108638269   0.0083479747  -0.1519194723  -0.0429426938  -0.0200547101
       -0.0279494025  -0.0078505841  -0.0020476755  -0.0021331217   0.0017125776
        0.0019151172  -0.0010573774   0.0000644549   0.0003077716   0.0023438020
        0.0008983388   0.0008867967  -0.0035106539  -0.0097944436  -0.0070117860
        0.0000569557  -0.0000647894  -0.0000422858   0.0001052826   0.0000262693
       -0.0000141283   0.0000252685  -0.0000272267  -0.0000219180   0.0000275300
        0.0000187991   0.0000116813  -0.0000136925   0.0000244785   0.0000149019
       -0.0000117170   0.0000191141   0.0000302782  -0.0000234388   0.0000081337
        0.0000162773  -0.0000258523   0.0000335572   0.0000115659  -0.0000965543
       -0.0001196613  -0.0000653252   0.0001050444   0.0001375917   0.0000654931
        0.0003017700   0.0002232706  -0.0001028801  -0.0002447067   0.0000225399
        0.0001758548   0.0000870304  -0.0000255048  -0.0000009639  -0.0001410623
        0.0000034166  -0.0000524850  -0.0000043154   0.0000864379   0.0000451412
       -0.0000560117   0.0000133170  -0.0000261878   0.0000285541   0.0000338206
        0.0000158283  -0.0000293741   0.0000176193  -0.0000255717   0.0000006414
       -0.0000051724   0.0000390424  -0.0000470374   0.0000379554  -0.0000017214
        0.0000383993  -0.0000737743  -0.0000535877   0.0000274346  -0.0000406962
        0.0000448990  -0.0000433625   0.0000107273  -0.0000087057   0.0000677568
       -0.0000181829   0.0000039764  -0.0000468557  -0.0000210122  -0.0000340518
        0.0000687619  -0.0000558545  -0.0000401944  -0.0000693052  -0.0000118681
        0.0000033344  -0.0000411615  -0.0000292587   0.0001060226   0.0001215943
        0.0000103290  -0.0000834466  -0.0000103334  -0.0000250623   0.0000423407
        0.0000062841   0.0000167535  -0.0000114862  -0.0000108679  -0.0000198074
        0.0000099356   0.0000038649  -0.0000026987   0.0000004485   0.0000049073
        0.0000069155  -0.0000075835   0.0000091324  -0.0000153843   0.0000019595
        0.0000025627   0.0000169804  -0.0000106853   0.0000074499  -0.0000055409
        0.0000028678   0.0000049865   0.0000023899  -0.0000036706  -0.0000162565
        0.0000074551   0.0000027141   0.0000137427  -0.0000113657   0.0000029969
       -0.0000381924   0.0000171754  -0.0000194500  -0.0000796460   0.0000300500
       -0.0000596607   0.0001230758  -0.0000144906   0.0000559113  -0.0000167828
        0.0000356055  -0.0000417144   0.0000081404  -0.0000115421   0.0000050518
       -0.0000149220   0.0000169598  -0.0000092450   0.0000036395   0.0000061577
       -0.0000027586   0.0000062824  -0.0000024432   0.0000002158   0.0000079756
       -0.0000017106   0.0000010121   0.0000029286  -0.0000013460   0.0000033575
        0.0000030137  -0.0000050061  -0.0000004683   0.0000114048  -0.0000066246
        0.0000061131   0.0000044777   0.0000184901  -0.0000055048   0.0000020688
       -0.0000195792   0.0000144799   0.0000090307   0.0000050187  -0.0000040005
       -0.0000001071  -0.0000057207   0.0000046175   0.0000055289   0.0000004400
        0.0000001990   0.0000047286   0.0000023995   0.0000007703   0.0000041278
       -0.0000020344   0.0000009885   0.0000049356   0.0000018249  -0.0000024866
       -0.0000129393  -0.0000043025  -0.0000030541   0.0000127111   0.0000105714
       -0.0000053837  -0.0000460038  -0.0000229359   0.0000243804   0.0000123673
        0.0000253210   0.0000321476   0.0000045814   0.0000203793  -0.0001241047
        0.0000047485  -0.0000188236   0.0000468942  -0.0207169471   0.0166720755
       -0.0145395030  -0.0040006714   0.0058812229  -0.0012825365   0.0066797056
       -0.0072035328   0.0047814733  -0.0163533508  -0.0105225691   0.0220394843
        0.0068425898   0.0049244453  -0.0131162155  -0.0031894796  -0.0001249739
        0.0061874248  -0.0018950315   0.0101551090   0.0093434159  -0.0025370901
        0.0145790616   0.0091671074  -0.0006344848  -0.0223109698  -0.0167088714
        0.0009812280  -0.0005561845  -0.0007205705  -0.0007628144  -0.0004454684
       -0.0001267312  -0.0001644493   0.0011120785   0.0005496175  -0.0000505596
       -0.0000120696   0.0000107314   0.0000080007  -0.0000167314   0.0000077680
        0.0000013559   0.0000026854  -0.0000107634  -0.0000144500   0.0000168027
        0.0000157439   0.0000041253  -0.0000025258  -0.0000043590  -0.0000081430
        0.0000209116   0.0000125724  -0.0000120114  -0.0000098046  -0.0000029953
        0.0000081433  -0.0000012943   0.0000022246  -0.0000084233   0.0000178320
        0.0000189597  -0.0000134318  -0.0000046486  -0.0000099619  -0.0000045295
        0.0000080148   0.0000118912   0.0000428667   0.0000077880  -0.0000100620
        0.0000262940  -0.0000064418   0.0000053334   0.0000114596  -0.0000126591
        0.0000080888   0.0000139202  -0.0000120531  -0.0000146477   0.0000623529
        0.0000089745  -0.0000419547   0.0000139254   0.0000446912  -0.0000440411
       -0.0000167761   0.0000287586   0.0000160110   0.0000059431   0.0000083021
        0.0000022893   0.0000026822  -0.0000136017   0.0000095147   0.0000101717
        0.0000001819  -0.0000212947   0.0000117909  -0.0000014895   0.0000052190
       -0.0000023802   0.0000064856   0.0000006346   0.0000039288   0.0000020836
       -0.0000029329   0.0000034969  -0.0000001767  -0.0000009842   0.0000018648
        0.0000028643  -0.0000025824   0.0000033479  -0.0000040710   0.0000007730
        0.0000000598  -0.0000024287   0.0000022302   0.0000105071   0.0000023441
        0.0000020609   0.0000143376   0.0000042869   0.0000024647   0.0000020999
       -0.0000051661  -0.0000005148  -0.0000019097   0.0000010204  -0.0000024352
       -0.0000026288   0.0000013895  -0.0000008486   0.0000022942  -0.0000030403
        0.0000009899   0.0000037156  -0.0000032295   0.0000014923   0.0000000364
       -0.0000002974  -0.0000008263  -0.0000021171   0.0000016196  -0.0000002101
        0.0000036429  -0.0000032243   0.0000012896  -0.0000021501   0.0000004936
       -0.0000028169  -0.0000004685  -0.0000003542  -0.0000002673   0.0000030253
        0.0000011400   0.0000004079   0.0000025889  -0.0000040705   0.0000024802
       -0.0000025534   0.0000008064   0.0000009299  -0.0000007285   0.0000002935
        0.0000013307   0.0000048132   0.0000021928  -0.0000013204  -0.0000020019
        0.0000007142   0.0000013744   0.0000003937  -0.0000009083   0.0000001355
        0.0000055674   0.0000018753  -0.0000003146   0.0000061465   0.0000021172
       -0.0000017211   0.0000000109  -0.0000008598   0.0000006048  -0.0000002353
        0.0000001513   0.0000002937  -0.0000018372  -0.0000000738  -0.0000019009
        0.0000099882  -0.0000015922   0.0000014464
        0.0491083788  -0.1154597489   0.0375839916   0.0074566585   0.4840734452
        0.0166840442  -0.0166453246  -0.0728908118   0.0278101214   0.0092646133
       -0.1398920114  -0.0584579787  -0.0460344273  -0.0834253367  -0.0155144677
        0.0034749419   0.0056900074   0.0026083151   0.0018091827   0.0015910268
       -0.0035442620  -0.0003847640  -0.0004406802  -0.0004722867  -0.0001332433
       -0.0010330467  -0.0057380998  -0.0204830267  -0.0152426786  -0.0074663515
       -0.0008970277  -0.0001633825  -0.0002821202  -0.0000220764  -0.0000631290
       -0.0000040395   0.0000531404  -0.0000196297   0.0000028734  -0.0000022447
        0.0000137842  -0.0000106947  -0.0000056767   0.0000122649  -0.0000073437
       -0.0000084956   0.0000086560   0.0000118157  -0.0000071396   0.0000054732
        0.0000091597  -0.0000122132   0.0000453038  -0.0000008318  -0.0000923675
       -0.0000502290   0.0000220232   0.0000724943  -0.0004341722   0.0000071273
        0.0006203335  -0.0000018159   0.0005312201  -0.0002437263  -0.0000758041
        0.0001332500  -0.0000267482  -0.0000381513  -0.0000870892   0.0000898305
       -0.0001093300  -0.0001165244   0.0000758347   0.0000817994   0.0001132375
       -0.0000311690   0.0000088487  -0.0000229954   0.0000543555   0.0000045619
        0.0000187786   0.0000325874  -0.0000374904   0.0000592567  -0.0000197409
        0.0001091402   0.0000264025  -0.0000817306   0.0000753335  -0.0000047375
       -0.0000025837   0.0000278601   0.0000029170  -0.0000358352   0.0000140585
       -0.0000935702   0.0000073635  -0.0000125591  -0.0000389437   0.0000102068
       -0.0000321953  -0.0000160760  -0.0000070406  -0.0000316538  -0.0000371736
       -0.0001265284   0.0000000953  -0.0000100134  -0.0000820368  -0.0000225029
        0.0000125797  -0.0000463158  -0.0000318624   0.0001444226   0.0001404521
        0.0000018529  -0.0000684133  -0.0000092750  -0.0000369499   0.0000480135
       -0.0000044657   0.0000207298  -0.0000089394  -0.0000129458  -0.0000154899
        0.0000086796   0.0000083911  -0.0000052294   0.0000001714   0.0000004096
        0.0000068802  -0.0000065520   0.0000131960  -0.0000147819   0.0000006675
        0.0000123132   0.0000168090  -0.0000145508   0.0000002242  -0.0000052563
        0.0000041190   0.0000041191   0.0000041933  -0.0000051353  -0.0000135291
        0.0000106339  -0.0000015972   0.0000145663  -0.0000165986   0.0000039906