$hessian                                                                        
        0.4534981666  -0.0019092518   0.0209705626  -0.1754733922   0.0074819189
        0.0333846571  -0.0223877277   0.0072279540   0.0014747487  -0.0080459216
        0.0016530319   0.0069873901  -0.0188130106  -0.0054440110   0.0037021091
       -0.0005076360  -0.0022137472  -0.0002401300  -0.0008886910  -0.0002750369
        0.0001712578  -0.0001829671   0.0000477053   0.0000855340  -0.0002171236
        0.0004464967   0.0002157164  -0.0002441277   0.0002246573  -0.0001494368
        0.0000576158   0.0000308214  -0.0000078428  -0.0000585601  -0.0000006377
       -0.0000120799   0.0000078474  -0.0000208124  -0.0000104456  -0.0000192546
       -0.0000000877   0.0000080023   0.0000089431   0.0000074747  -0.0000036490
        0.0000061213  -0.0000025872   0.0000002307  -0.0000010382  -0.0000180059
        0.0000038514  -0.0000027153  -0.0000015807  -0.0000123906   0.0000100489
       -0.0000067155  -0.0000022018  -0.0000302084   0.0000233245   0.0000191297
       -0.0000116977   0.0000191195  -0.0000005514   0.0000124609   0.0000018406
       -0.0000098440   0.0000987945   0.0000783526  -0.0000608867  -0.0000169946
       -0.0000117337  -0.0000040031   0.0000294768   0.0000217029   0.0000263875
       -0.0000165312   0.0000130043  -0.0000022671   0.0000026410   0.0000254514
        0.0000020045  -0.0000101791   0.0000112815   0.0000089461  -0.0000058282
       -0.0000081956  -0.0000083100  -0.0000071765   0.0000185405  -0.0000008805
        0.0000152226  -0.0000169624   0.0000038957  -0.0000045325   0.0000199586
        0.0000023242  -0.0000076534  -0.0000117486   0.0000021384   0.0000043234
       -0.0000106446  -0.0000000592  -0.0000043681   0.0000035958   0.0000037051
       -0.0000005299   0.0000096618  -0.0000077993  -0.0001096526  -0.0000441582
        0.0000164200   0.0000192292  -0.0000356995   0.0000228190   0.0000164420
        0.0000006391  -0.0000064527  -0.0000015166  -0.0000031559   0.0000019598
        0.0000053662   0.0000017172  -0.0000015959  -0.0000060842  -0.0000078129
       -0.0000034291   0.0000003704   0.0000009345   0.0000008506   0.0000018042
        0.0000053896   0.0000013905  -0.0000068197  -0.0000048794   0.0000005741
       -0.0000023759  -0.0000020556  -0.0000006222  -0.0000029551  -0.0000051055
        0.0000001137  -0.0000004711   0.0000009493   0.0000072622  -0.0000083353
        0.0000044197  -0.0000011940   0.0000124439   0.0000068393  -0.0000027021
       -0.0000024101   0.0000041191  -0.0000065878  -0.0000150703  -0.0000092358
        0.0000129868   0.0000049648  -0.0000084697  -0.0000044298  -0.0000331050
        0.0000502727   0.0000054036   0.0000270916  -0.0000029048   0.0000088819
        0.0000050809   0.0000160374   0.0000018308  -0.0000091776  -0.0000082049
       -0.0000062115  -0.0000087895   0.0000086620   0.0000006430   0.0000059770
        0.0000041040  -0.0000020810  -0.0000091049   0.0000002487  -0.0000027029
        0.0000055556   0.0000009318   0.0000041281  -0.0000184163   0.0000165322
       -0.0000027623   0.0000008802  -0.0000243750  -0.0000085341  -0.0000060613
        0.0000159473   0.0000098479  -0.0000146242  -0.0000184103  -0.0000127781
       -0.0000084498   0.0000136713   0.0000007024  -0.0000039839  -0.0000074105
       -0.0000007870  -0.0000007341  -0.0000047299   0.0000040874  -0.0000000217
       -0.0000025707  -0.0000009840  -0.0000044731  -0.0000107376  -0.0000007948
        0.0000012103  -0.0000102503   0.0000088256   0.0000029200  -0.0000101344
       -0.0000013947  -0.0000192516  -0.0000172159  -0.0000077666   0.0000889675
       -0.0000042623   0.0000029448   0.0000023429   0.0000117023  -0.0000235868
       -0.0000003493  -0.0000358975   0.0000016952  -0.0842956268  -0.0896529526
       -0.0154106942  -0.0435551532   0.0038503407   0.0142902261  -0.0986024165
        0.0787200775  -0.0639133070   0.0003597557  -0.0005328209   0.0007278650
        0.0005456411  -0.0010137518   0.0005438323  -0.0019071122   0.0024486120
       -0.0018063299   0.0004983296  -0.0002305758  -0.0008791227   0.0003175745
        0.0001467249   0.0008895939   0.0004831750  -0.0002314747  -0.0009573304
        0.0000562765  -0.0000466130  -0.0000600989  -0.0001131151  -0.0001675336
       -0.0000519100  -0.0004230641  -0.0005390099   0.0001399850  -0.0000127491
        0.0000120567   0.0000152927  -0.0000030990  -0.0000000423  -0.0000069109
        0.0000002058   0.0000051843  -0.0000016365   0.0000009402  -0.0000025462
       -0.0000002812   0.0000002646   0.0000034623  -0.0000005572  -0.0000007720
       -0.0000027354  -0.0000057302  -0.0000039951  -0.0000019247  -0.0000032746
       -0.0000068626   0.0000021136  -0.0000012457   0.0000046633  -0.0000031721
       -0.0000052779  -0.0000059378   0.0000018399  -0.0000087095   0.0000035877
       -0.0000026601  -0.0000012984   0.0000009441  -0.0000111326  -0.0000021046
        0.0000032236   0.0000091693  -0.0000090794   0.0000032799  -0.0000214703
       -0.0000132856  -0.0000078332   0.0000044426  -0.0000117662   0.0000045105
       -0.0000081590  -0.0000021565  -0.0000029174   0.0000003521  -0.0000020319
       -0.0000011480   0.0000025180   0.0000002678   0.0000000460  -0.0000014441
        0.0000009158  -0.0000000990   0.0000024440   0.0000016754   0.0000069284
        0.0000055070   0.0000053806  -0.0000035301   0.0000000246   0.0000009036
       -0.0000043084   0.0000040858   0.0000041143   0.0000019545   0.0000024610
        0.0000026959   0.0000030051  -0.0000001204   0.0000013788   0.0000042235
        0.0000038257   0.0000009684   0.0000047313  -0.0000028384  -0.0000021063
        0.0000004581  -0.0000099188  -0.0000046833  -0.0000090085  -0.0000017567
       -0.0000046621  -0.0000119498   0.0000031408  -0.0000090533  -0.0000043744
       -0.0000145169  -0.0000101924  -0.0000039155  -0.0000054422  -0.0000017619
       -0.0000041176  -0.0000016585  -0.0000040479  -0.0000036950  -0.0000010328
        0.0000000253  -0.0000001722  -0.0000034515  -0.0000020903  -0.0000029926
       -0.0000020645  -0.0000007010  -0.0000020898  -0.0000015681  -0.0000001623
       -0.0000010471  -0.0000035296  -0.0000060982  -0.0000034888   0.0000005167
       -0.0000060592  -0.0000042925  -0.0000004444  -0.0000017103   0.0000062271
       -0.0000006176   0.0000012867   0.0000055664  -0.0000072157   0.0000002099
       -0.0000007772  -0.0000016346   0.0000016248  -0.0000011710   0.0000006655
        0.0000025375   0.0000004513   0.0000006409   0.0000016758  -0.0000024333
       -0.0000019678   0.0000028652  -0.0000025339  -0.0000027147   0.0000029892
       -0.0000010425  -0.0000014320   0.0000047860   0.0000004487  -0.0000018625
        0.0000026027  -0.0000014871  -0.0000029356   0.0000029517  -0.0000006457
       -0.0000008350   0.0000011597  -0.0000034910   0.0000029109   0.0000013842
       -0.0000041581   0.0000068849   0.0000004898
       -0.0019092518   0.5257217353  -0.0009949391   0.0056458978  -0.0642404195
       -0.0019449132   0.0216710639  -0.0053906455  -0.0026050155   0.0070719375
       -0.0006434207  -0.0041592511  -0.0244819236  -0.0015302008   0.0060942288
       -0.0018545197  -0.0038742379  -0.0009059694  -0.0013528640  -0.0002473681
        0.0002625469  -0.0001989135  -0.0000526170  -0.0000340759  -0.0006166817
        0.0008898204   0.0003287764  -0.0005278074  -0.0019022145  -0.0000792866
        0.0001542102  -0.0000504105  -0.0000487010  -0.0001498921   0.0001318441
        0.0000739363  -0.0000387616  -0.0000819568  -0.0000143350  -0.0000358265
       -0.0000058826   0.0000082936   0.0000061658   0.0000042802  -0.0000111795
        0.0000111850   0.0000008837   0.0000098980   0.0000037767   0.0000011803
       -0.0000035591   0.0000450973  -0.0000130287  -0.0000231684  -0.0000155677
       -0.0000090367   0.0000014464  -0.0000298744   0.0000122929   0.0000298590
       -0.0001261332  -0.0000947789   0.0000986707   0.0001802500  -0.0000131162
       -0.0000587493  -0.0001761801  -0.0000202165  -0.0000213233   0.0001298432
       -0.0000138520   0.0000724586  -0.0000673663  -0.0000059781   0.0000083818
        0.0000190860   0.0000106517   0.0000261448  -0.0000122425  -0.0000548341
       -0.0000459911  -0.0000355328  -0.0000637620  -0.0000640860   0.0000206062
        0.0000785786   0.0000250741  -0.0000156584  -0.0000730541  -0.0000219466
        0.0000084908   0.0000781922   0.0000253489  -0.0000224684  -0.0000706686
       -0.0000269544   0.0000447165   0.0000343835   0.0000225671  -0.0000172764
        0.0000266447   0.0000051861   0.0000176705  -0.0000144956   0.0000014438
        0.0000049804   0.0000413598  -0.0000256170   0.0001493937   0.0000237349
        0.0000116713  -0.0000754371   0.0000826462  -0.0000175808   0.0000230785
        0.0000013297  -0.0000115354   0.0000069805  -0.0000042468   0.0000048784
       -0.0000022569   0.0000054995   0.0000066866  -0.0000036166   0.0000011276
        0.0000000912  -0.0000045045   0.0000077717   0.0000004521   0.0000039367
       -0.0000081839   0.0000013207  -0.0000046684   0.0000106236   0.0000010431
        0.0000050699  -0.0000146382  -0.0000014040  -0.0000047431   0.0000089568
        0.0000058149  -0.0000044159  -0.0000109531   0.0000046597   0.0000069362
       -0.0000034636   0.0000031558   0.0000021343  -0.0000065537   0.0000026698
        0.0000111821   0.0000009007  -0.0000202220   0.0001954317  -0.0000267870
        0.0000129730  -0.0000685900   0.0000365372  -0.0000553896  -0.0000258655
        0.0000211907   0.0000340849  -0.0000034599  -0.0000234584  -0.0000056111
       -0.0000117423  -0.0000116463  -0.0000109634  -0.0000288061  -0.0000742467
       -0.0000254757   0.0000030477   0.0000098569   0.0000071583  -0.0000118452
        0.0000095784  -0.0000003654  -0.0000002588   0.0000100384   0.0000008990
       -0.0000084452   0.0000090400  -0.0000038137   0.0000046910   0.0001035892
        0.0000224055   0.0000177891  -0.0000900025  -0.0000149911   0.0000519038
        0.0000688157   0.0000314265  -0.0000446404  -0.0000875849  -0.0000293751
        0.0000000953   0.0000807973   0.0000162646   0.0000010338  -0.0000114342
       -0.0000017848  -0.0000061462  -0.0000002282  -0.0000042793  -0.0000069420
       -0.0000006152  -0.0000004768  -0.0000054092  -0.0000054466  -0.0000031906
        0.0000144226   0.0000051709   0.0000138939  -0.0000110157   0.0000117148
       -0.0000039883  -0.0000012012  -0.0000023475  -0.0000180167  -0.0001392124
       -0.0000127546  -0.0000067258   0.0000029123  -0.0000074137   0.0000506426
        0.0000141348   0.0000104611  -0.0000485094  -0.0899709867  -0.2344267499
       -0.0310459831   0.0041061618  -0.0565966680  -0.0537195345   0.0791561582
       -0.1537826991   0.0892703365  -0.0000531046   0.0003607245  -0.0005976555
        0.0014265926   0.0005360057  -0.0002057785   0.0031840095  -0.0029675317
        0.0022052905  -0.0003757415   0.0002415374   0.0004844507   0.0004804979
       -0.0000789759  -0.0018100047   0.0009170571   0.0003003343  -0.0004242821
        0.0000281057   0.0000183897   0.0000381785  -0.0002373552  -0.0002942068
        0.0000179453  -0.0021237493  -0.0019597753  -0.0001839986   0.0000191565
        0.0000161473  -0.0000091629  -0.0000073380  -0.0000053651   0.0000034832
        0.0000047241   0.0000095831   0.0000022507   0.0000058921  -0.0000117565
        0.0000004444   0.0000032374   0.0000055683   0.0000030276   0.0000045267
       -0.0000094499  -0.0000072286  -0.0000051087   0.0000015764  -0.0000040913
        0.0000029538  -0.0000085379   0.0000132126   0.0000057396  -0.0000075027
       -0.0000024674  -0.0000013482   0.0000039110  -0.0000117464  -0.0000062310
       -0.0000081529   0.0000019905  -0.0000003025  -0.0000096520  -0.0000012997
        0.0000078041   0.0000096207  -0.0000149727  -0.0000427458   0.0000299154
        0.0000127556   0.0000530955  -0.0000064868   0.0000319783   0.0000117007
       -0.0000147337   0.0000033141   0.0000092118  -0.0000064072   0.0000052337
        0.0000026145  -0.0000075711  -0.0000001914  -0.0000042975  -0.0000064120
       -0.0000023296  -0.0000001191   0.0000036243   0.0000022877   0.0000067240
       -0.0000067239  -0.0000012792  -0.0000011077   0.0000005114  -0.0000014427
       -0.0000014114  -0.0000014386  -0.0000008298  -0.0000027229  -0.0000028008
       -0.0000012390  -0.0000027316   0.0000001263  -0.0000007076  -0.0000005388
        0.0000024477  -0.0000007464  -0.0000009880   0.0000007270  -0.0000015271
       -0.0000013274  -0.0000025420  -0.0000029596  -0.0000042422  -0.0000015989
       -0.0000080694   0.0000062435  -0.0000080607  -0.0000017193  -0.0000012644
        0.0000001883   0.0000025401  -0.0000017128   0.0000077524  -0.0000007332
        0.0000011527  -0.0000059246   0.0000041475  -0.0000001001  -0.0000038434
        0.0000008423  -0.0000031902   0.0000055188   0.0000009083   0.0000051912
       -0.0000008404  -0.0000024198   0.0000022744  -0.0000034538   0.0000023379
       -0.0000030832   0.0000057900   0.0000041116   0.0000016436  -0.0000047808
       -0.0000002964   0.0000032827  -0.0000001501  -0.0000027898   0.0000075133
        0.0000013414  -0.0000004356   0.0000040553  -0.0000015537   0.0000007572
        0.0000005586   0.0000031504  -0.0000002608   0.0000018403   0.0000026548
       -0.0000002897  -0.0000053877  -0.0000034984   0.0000001688   0.0000003563
        0.0000021983   0.0000025102   0.0000011372   0.0000024161   0.0000008844
       -0.0000042511  -0.0000027953  -0.0000026778  -0.0000043154  -0.0000021216
       -0.0000011051   0.0000027701   0.0000018178   0.0000016444   0.0000037419
        0.0000017913  -0.0000005803  -0.0000016363  -0.0000018196  -0.0000004412
       -0.0000004728   0.0000041826   0.0000025519
        0.0209705626  -0.0009949391   0.5259288761   0.0326664336  -0.0024210588
       -0.0726669626  -0.0137055878   0.0034187035   0.0025385612   0.0281656392
       -0.0045915585  -0.0165668860  -0.0021175095   0.0007507847   0.0013288256
       -0.0001842125  -0.0008419105   0.0007307396  -0.0001185362  -0.0000370461
        0.0000973703  -0.0000130344  -0.0000274821   0.0000645339  -0.0000841275
        0.0000523919   0.0001998726  -0.0003570920  -0.0003476765  -0.0009034424
        0.0000050103  -0.0000008995  -0.0000127609  -0.0000196217   0.0000227377
       -0.0000372554  -0.0000171469   0.0000022920   0.0000051704  -0.0000026975
       -0.0000062917   0.0000120048   0.0000024031   0.0000049400  -0.0000040744
        0.0000012490  -0.0000065867   0.0000002087   0.0000045515  -0.0000041306
        0.0000179657   0.0000179977   0.0000004444  -0.0000048462  -0.0000064053
        0.0000116688   0.0000029753   0.0000162023  -0.0000149947  -0.0000087346
       -0.0000374577  -0.0000047291  -0.0000169069   0.0000012052  -0.0000047799
       -0.0000003508  -0.0000289344  -0.0000124786   0.0000104172   0.0000009646
       -0.0000029732   0.0000041441   0.0000132481  -0.0000045446  -0.0000007554
       -0.0000012157  -0.0000092363   0.0000008970  -0.0000120146  -0.0000238041
        0.0000189623   0.0000370260   0.0000031543   0.0000355792  -0.0000049908
        0.0000035240  -0.0000011428  -0.0000092573   0.0000023466  -0.0000039632
       -0.0000000840   0.0000137869   0.0000027933  -0.0000003925  -0.0000103353
       -0.0000028589   0.0000017679   0.0000053972   0.0000013625  -0.0000003207
        0.0000059464   0.0000007103   0.0000033720  -0.0000032001  -0.0000003670
       -0.0000056684  -0.0000002140   0.0000001749   0.0000219055   0.0000034194
        0.0000045625   0.0000032689   0.0000102557  -0.0000041282  -0.0000058294
       -0.0000034453   0.0000092721   0.0000013881   0.0000005485  -0.0000014482
       -0.0000033076  -0.0000014998  -0.0000007463  -0.0000020635   0.0000051821
        0.0000019532  -0.0000032014   0.0000084483   0.0000027397   0.0000050271
       -0.0000110666  -0.0000051794   0.0000001615   0.0000114905   0.0000024263
        0.0000041625  -0.0000096586  -0.0000040534  -0.0000013994   0.0000160419
        0.0000044593   0.0000012088  -0.0000107612  -0.0000034982   0.0000024452
       -0.0000050192  -0.0000015554  -0.0000051268  -0.0000018923   0.0000038059
        0.0000010701   0.0000007719   0.0000011023   0.0000233334   0.0000115711
       -0.0000215549  -0.0000064874   0.0000063547   0.0000027444   0.0000127459
       -0.0000205565  -0.0000026676  -0.0000115624   0.0000035354  -0.0000001187
       -0.0000097664  -0.0000107316  -0.0000029805   0.0000022052  -0.0000036974
       -0.0000006890   0.0000062687  -0.0000073450  -0.0000015171  -0.0000055788
       -0.0000035271   0.0000048457   0.0000035479   0.0000011183   0.0000033385
       -0.0000042123  -0.0000010748  -0.0000049490   0.0000106836   0.0000045586
        0.0000044326  -0.0000014775  -0.0000003373  -0.0000003437   0.0000005992
        0.0000016641  -0.0000013150   0.0000062361  -0.0000075633  -0.0000008354
        0.0000051573   0.0000038050   0.0000017183   0.0000071151   0.0000014570
        0.0000038187  -0.0000001927   0.0000026610  -0.0000022796  -0.0000019248
        0.0000016360   0.0000033302   0.0000012985  -0.0000027163   0.0000004164
       -0.0000053128   0.0000085955   0.0000000692  -0.0000062499   0.0000037442
       -0.0000025115   0.0000121466   0.0000081419   0.0000048259  -0.0000291761
       -0.0000137038   0.0000072450  -0.0000066873   0.0000234281   0.0000051291
        0.0000147307  -0.0000056083  -0.0000128877  -0.0155248977  -0.0311465251
       -0.0495214703   0.0146232949  -0.0536946240  -0.2697663672  -0.0641124419
        0.0893998609  -0.1165873592  -0.0009539056   0.0003070462   0.0006817558
       -0.0003705754  -0.0003113404   0.0002472151  -0.0022666853   0.0023227397
       -0.0011165308   0.0010432835  -0.0003490987   0.0007055104   0.0017299231
       -0.0016213209  -0.0062956742   0.0010024526   0.0006453062   0.0005592964
       -0.0000280306   0.0000556837  -0.0000784873  -0.0000671093  -0.0000069682
       -0.0000831559  -0.0003131894  -0.0005384486   0.0005237145   0.0000195306
       -0.0000041577   0.0000387596  -0.0000012041   0.0000019665  -0.0000064144
       -0.0000003905   0.0000012126   0.0000003862   0.0000027912  -0.0000026030
        0.0000013088   0.0000010002   0.0000006620   0.0000006187   0.0000021587
       -0.0000036623  -0.0000010274  -0.0000033346   0.0000033550  -0.0000088871
       -0.0000033535   0.0000042257  -0.0000068694   0.0000013368  -0.0000015031
        0.0000011416   0.0000043586   0.0000013461  -0.0000087270  -0.0000023929
       -0.0000052172   0.0000026845  -0.0000018099  -0.0000004617   0.0000025206
       -0.0000102378  -0.0000032352  -0.0000066431   0.0000293903  -0.0000177216
       -0.0000155241  -0.0000274610   0.0000017432  -0.0000226121  -0.0000018983
        0.0000102492   0.0000008324   0.0000005185   0.0000015092   0.0000006901
        0.0000016290  -0.0000033761  -0.0000000165  -0.0000022176  -0.0000028898
       -0.0000012571  -0.0000016259   0.0000001789   0.0000004326   0.0000002162
       -0.0000044674  -0.0000042646   0.0000013803   0.0000009870   0.0000001981
        0.0000022748  -0.0000026731  -0.0000017680  -0.0000019656  -0.0000032341
       -0.0000005845  -0.0000024752   0.0000000232   0.0000004423  -0.0000022880
       -0.0000016077  -0.0000002018  -0.0000028323   0.0000020400   0.0000011257
       -0.0000004239   0.0000034714   0.0000007074   0.0000018457  -0.0000007801
       -0.0000026448   0.0000059366  -0.0000019408  -0.0000021977   0.0000049992
        0.0000068614   0.0000006938  -0.0000007005   0.0000054129  -0.0000000815
        0.0000039511  -0.0000000439  -0.0000017632   0.0000022606  -0.0000000652
        0.0000013560  -0.0000017448   0.0000039769   0.0000006420   0.0000010045
       -0.0000005608  -0.0000001282   0.0000017640  -0.0000000930   0.0000015276
       -0.0000008460   0.0000041913   0.0000033010   0.0000019676  -0.0000004873
       -0.0000002490   0.0000009875  -0.0000009782   0.0000010924  -0.0000031075
       -0.0000006694  -0.0000000852  -0.0000025221   0.0000035781   0.0000011264
        0.0000009879   0.0000015779  -0.0000000397   0.0000012453   0.0000005369
       -0.0000014647  -0.0000029216  -0.0000017227  -0.0000003404   0.0000016076
        0.0000002619   0.0000005400   0.0000011600   0.0000022122  -0.0000016150
       -0.0000027156  -0.0000016029  -0.0000022164  -0.0000029333  -0.0000008743
       -0.0000006187   0.0000005146   0.0000021917  -0.0000001592   0.0000012420
        0.0000001748  -0.0000008532   0.0000013967  -0.0000039507  -0.0000002520
        0.0000033523  -0.0000011510   0.0000011174
       -0.1754733922   0.0056458978   0.0326664336   0.4927489341   0.0082442553
       -0.0074476445  -0.0860055021   0.0403059454  -0.0290469982  -0.0625853100
        0.0009468471   0.0056759030  -0.0927669539  -0.0527486601  -0.0055676327
       -0.0188058622  -0.0239926932  -0.0022414932  -0.0041405695  -0.0003945409
        0.0023382227  -0.0005179168   0.0002674147   0.0003017569  -0.0005588818
        0.0021871376   0.0025129188   0.0075222343   0.0059769866   0.0004726983
        0.0002738980   0.0004800941   0.0001046480   0.0001513312   0.0000049055
       -0.0000338902   0.0000833985   0.0000816798   0.0000318393   0.0000188245
        0.0000533353  -0.0000034190  -0.0000143591   0.0000072926   0.0000117932
       -0.0000175464   0.0000005380   0.0000048911  -0.0000306753   0.0000069139
        0.0000111005  -0.0001472707   0.0000164391   0.0000131158   0.0000818702
       -0.0001203557  -0.0000714674  -0.0001188445   0.0003923023   0.0000706221
       -0.0001565120   0.0000669195  -0.0001878810  -0.0000427745   0.0001019130
       -0.0000715843   0.0003493642   0.0001304098  -0.0000861606  -0.0001378094
        0.0000426005  -0.0000632191   0.0000796381   0.0000093096   0.0000347169
       -0.0000546697   0.0000326920  -0.0000080960   0.0000382609   0.0000167494
        0.0000051665   0.0000292812   0.0000896713   0.0000523513  -0.0000326972
       -0.0000839408  -0.0000298772   0.0000353249   0.0001054409   0.0000316272
        0.0000002428  -0.0001142409  -0.0000184303   0.0000201813   0.0001039633
        0.0000293988  -0.0000576762  -0.0000471536  -0.0000189471   0.0000314365
       -0.0000480544  -0.0000072989  -0.0000296941   0.0000175955   0.0000005234
        0.0000175266  -0.0000612833   0.0000226575  -0.0003184251  -0.0001184137
        0.0000111335   0.0000535819  -0.0001504522   0.0000873813   0.0000559551
        0.0000333709  -0.0000243059  -0.0000204241  -0.0000307235   0.0000098789
        0.0000187140  -0.0000028585  -0.0000109188  -0.0000162532  -0.0000232311
       -0.0000091747   0.0000235335  -0.0000158600  -0.0000089338  -0.0000102665
        0.0000378730   0.0000058492   0.0000051402  -0.0000477756  -0.0000090491
       -0.0000257278   0.0000403438   0.0000129523   0.0000105924  -0.0000427888
       -0.0000144778   0.0000100992   0.0000337240   0.0000097639  -0.0000373520
        0.0000094468   0.0000028834   0.0000212942   0.0000152719  -0.0000066710
       -0.0000258283   0.0000119170   0.0000030604  -0.0001413720   0.0000174512
        0.0000298069   0.0000868658  -0.0000380045   0.0000236078  -0.0000515267
        0.0001044438   0.0000003395   0.0000422846   0.0000056635   0.0000141357
        0.0000054210   0.0000185607   0.0000000734  -0.0000098953   0.0000322774
        0.0000056969  -0.0000268919   0.0000140400  -0.0000001591   0.0000081434
        0.0000061061  -0.0000094590  -0.0000086811  -0.0000034125  -0.0000050098
        0.0000066954  -0.0000011851   0.0000109479  -0.0000321145  -0.0000104869
       -0.0000126525   0.0000027150   0.0000080484  -0.0000029762  -0.0000193655
       -0.0000149574   0.0000033731  -0.0000146586   0.0000251742  -0.0000044294
       -0.0000225225  -0.0000251585  -0.0000114302  -0.0000205849  -0.0000032322
       -0.0000082660   0.0000051061  -0.0000088627   0.0000101829   0.0000095960
       -0.0000020046  -0.0000069764  -0.0000016375  -0.0000027225  -0.0000005442
        0.0000005284  -0.0000256865   0.0000006277   0.0000222653  -0.0000316224
       -0.0000006423  -0.0000820981  -0.0000497872  -0.0000233018   0.0002791703
       -0.0000105223  -0.0000019776  -0.0000066947  -0.0000160334  -0.0000259278
        0.0000368827  -0.0000178828   0.0000373652  -0.0181995509  -0.0038100659
        0.0038551193  -0.0045121022   0.0011307150   0.0045182563  -0.0182795649
        0.0040367777   0.0019780564  -0.0004158246   0.0005242489  -0.0016293759
        0.0050329095  -0.0091194090   0.0069776927  -0.0168306791   0.0205773777
       -0.0142702619  -0.0005678067  -0.0021387355  -0.0130800388  -0.0038559547
        0.0070895456   0.0273027375  -0.0005735311  -0.0051367046  -0.0142209880
        0.0002604665  -0.0002915729  -0.0007416505  -0.0008454165  -0.0010347474
        0.0000012392  -0.0007097496   0.0007331359  -0.0002199626  -0.0000515437
       -0.0000046310  -0.0000104094   0.0000111783   0.0000019938  -0.0000079951
       -0.0000051542  -0.0000200289  -0.0000009395  -0.0000159865   0.0000172317
        0.0000006513  -0.0000055610  -0.0000143995  -0.0000118745  -0.0000138648
        0.0000145176   0.0000069365   0.0000103884  -0.0000051158   0.0000065323
        0.0000023216   0.0000051384  -0.0000245759  -0.0000129212   0.0000094195
        0.0000019533   0.0000082457  -0.0000092739   0.0000207444  -0.0000034107
        0.0000049466  -0.0000058781   0.0000093050  -0.0000006032   0.0000152076
       -0.0000219638   0.0000053209  -0.0000180897   0.0000351258  -0.0000519617
        0.0000047695  -0.0000485852  -0.0000028753  -0.0000328875  -0.0000145756
        0.0000115063  -0.0000005892  -0.0000159726   0.0000051272  -0.0000076872
       -0.0000079840   0.0000147783   0.0000006618   0.0000038934   0.0000082926
        0.0000037765  -0.0000011941  -0.0000012269  -0.0000002295   0.0000026301
        0.0000173150   0.0000134847  -0.0000047445  -0.0000014836   0.0000021460
       -0.0000066495   0.0000121815   0.0000060498   0.0000075058   0.0000120811
        0.0000028402   0.0000101501   0.0000015739  -0.0000014553   0.0000109458
        0.0000068725   0.0000006712   0.0000124606  -0.0000062061  -0.0000031847
        0.0000007107  -0.0000140326  -0.0000025174  -0.0000050307  -0.0000031970
        0.0000009542   0.0000076876  -0.0000095995  -0.0000082493  -0.0000145234
       -0.0000121310  -0.0000052045   0.0000024461  -0.0000153876   0.0000012349
       -0.0000024480   0.0000055130  -0.0000002375  -0.0000038826   0.0000030060
        0.0000002814   0.0000066533  -0.0000126934  -0.0000014419  -0.0000030991
        0.0000022130   0.0000017817  -0.0000025117   0.0000032599   0.0000001540
        0.0000047180  -0.0000128394  -0.0000078427  -0.0000045744   0.0000030766
        0.0000030186  -0.0000028955   0.0000030356   0.0000006233   0.0000116099
        0.0000037738   0.0000050246   0.0000076649  -0.0000087450  -0.0000017825
       -0.0000018884  -0.0000055380  -0.0000011040  -0.0000049743   0.0000001738
        0.0000030851   0.0000120218   0.0000106640  -0.0000006709  -0.0000037104
       -0.0000021954  -0.0000023988  -0.0000037408  -0.0000039131   0.0000015949
        0.0000091573   0.0000078647   0.0000090376   0.0000120840   0.0000058646
        0.0000035972  -0.0000039326  -0.0000041090   0.0000001844  -0.0000052764
       -0.0000006599   0.0000016963  -0.0000023273   0.0000126875   0.0000000113
       -0.0000062667   0.0000084774  -0.0000024049
        0.0074819189  -0.0642404195  -0.0024210588   0.0082442553   0.4663711609
       -0.0000479837   0.0340898256  -0.1190643764   0.0440142195  -0.0000575517
       -0.0662721850  -0.0245630451  -0.0467711954  -0.1482480831  -0.0154605161
       -0.0130311413  -0.0050178017   0.0022520280   0.0008273809   0.0031621257
       -0.0009374437  -0.0008107518  -0.0024008374  -0.0004506639   0.0027867289
       -0.0013871049  -0.0031163556  -0.0075640646  -0.0270672112  -0.0066499967
       -0.0007831640  -0.0005891413   0.0000291811   0.0000669548  -0.0000827242
       -0.0000588975  -0.0000806507  -0.0000496343  -0.0000270186  -0.0000024425
       -0.0000123948   0.0000092714   0.0000201358   0.0000169464  -0.0000075205
        0.0000127910  -0.0000065650   0.0000093852  -0.0000124514  -0.0000230723
        0.0000057483   0.0003277807   0.0000287617  -0.0000988392  -0.0002543734
        0.0003762847   0.0001671470   0.0005585615  -0.0005874265  -0.0002629816
        0.0002716007   0.0015688750   0.0008075771  -0.0000816395  -0.0000074496
       -0.0000896698  -0.0004779218  -0.0002505833   0.0001301157   0.0001714792
        0.0000179984   0.0000948639  -0.0000781375  -0.0000383988   0.0000462015
       -0.0000064648   0.0000196879  -0.0000582187   0.0000122475  -0.0000722401
       -0.0001188509   0.0000257869  -0.0000395175  -0.0000306447  -0.0000195314
        0.0000545263   0.0000057165  -0.0000224653  -0.0000048001  -0.0000077777
       -0.0000149258   0.0000813726   0.0000247227  -0.0000133517  -0.0000642941
       -0.0000406895   0.0000427860   0.0000273811   0.0000510422  -0.0000117041
        0.0000330630  -0.0000017106   0.0000127675  -0.0000153318   0.0000027593
        0.0000468763   0.0000587969  -0.0000070346   0.0005405404   0.0001868411
       -0.0000594257  -0.0000991897   0.0000815306  -0.0000125499   0.0000476225
        0.0000026935  -0.0000047366   0.0000004140  -0.0000014535  -0.0000002662
        0.0000098793  -0.0000071432  -0.0000088494  -0.0000094017  -0.0000053741
       -0.0000221237  -0.0000103094   0.0000228888   0.0000042833   0.0000143339
        0.0000042601  -0.0000056530  -0.0000208618   0.0000071397   0.0000021004
       -0.0000028867  -0.0000176490  -0.0000083481  -0.0000075435   0.0000099738
        0.0000037419  -0.0000029107  -0.0000142005   0.0000271488  -0.0000124403
        0.0000094123  -0.0000095960   0.0000101631   0.0000076218  -0.0000014142