$hessian                                                                        
        0.6475471692   0.0149465795  -0.0157770072  -0.2141573645   0.0678562047
        0.0010905486   0.0431688344   0.0662194293  -0.0041224554  -0.0540971641
        0.0062144530   0.0013362415  -0.0101887844  -0.0913219359   0.0043185537
       -0.3175392200  -0.0287230446   0.0098721232   0.0097324217   0.0008413835
       -0.0006952014  -0.0020460753   0.0014727317  -0.0001014502   0.0005110361
        0.0060572702  -0.0002003904   0.0001430951  -0.0027832037   0.0000921816
        0.0015928142   0.0015971467  -0.0000630197  -0.0014674715   0.0015094691
        0.0000942424  -0.0004918426  -0.0004572480   0.0000179858   0.0001791955
        0.0005251386   0.0000071575  -0.0005415791  -0.0000409862   0.0000328036
        0.0002605261  -0.0003772639  -0.0000176213   0.0001538058   0.0002617041
       -0.0000062821  -0.0000674224  -0.0007263893  -0.0000212313   0.0002032208
        0.0001648517  -0.0000608496   0.0004277060  -0.0003292219   0.0000373190
        0.0000012660  -0.0000004376   0.0000437580   0.0001612394   0.0002322444
        0.0002752637  -0.0001347520  -0.0000396446  -0.0002143392   0.0000914073
        0.0000252646   0.0000496503  -0.0000358296   0.0000682227  -0.0000169527
        0.0000178678  -0.0000162673   0.0000104151   0.0000298788   0.0000504845
       -0.0000005178   0.0000145363   0.0000221414   0.0000018513  -0.0000371518
       -0.0000051612  -0.0000014426   0.0000473571   0.0000396181   0.0000039281
        0.0000266336  -0.0000584917   0.0000106956  -0.0000229560   0.0000478439
       -0.0000032326  -0.0000308727  -0.0000401685  -0.0000014430  -0.0000202266
        0.0000347584  -0.0000116681   0.0000090196  -0.0000505075   0.0000020110
       -0.0000225820   0.0000048767   0.0000006285  -0.0000056178  -0.0000099177
        0.0000005833   0.0000217005   0.0000008692   0.0000016865   0.0000028935
       -0.0000197530   0.0000012832  -0.0000205529   0.0000140017   0.0000089331
       -0.0000286614   0.0000033472  -0.0000005828   0.0000378534  -0.0000457793
       -0.0000001195  -0.0000719100   0.0000276620   0.0000627456  -0.0001467317
        0.0002229911   0.0000045450   0.0002450760   0.0002815432  -0.0001680116
        0.0000404711  -0.0021323345  -0.0000573800  -0.0552286786  -0.0533378944
        0.0032337807  -0.0250735736   0.0180782281  -0.0000826036   0.0010575932
       -0.0016726393   0.0001192849  -0.0244060261  -0.0044758610   0.0008395496
        0.0001400458  -0.0000904522  -0.0000049902   0.0000120580  -0.0000139481
       -0.0000319574   0.0000007790   0.0000065603   0.0000134623  -0.0000023588
       -0.0000018084  -0.0000009850   0.0000031536  -0.0000064429  -0.0000168548
       -0.0000167424  -0.0000122032   0.0000096544   0.0000918657   0.0000000972
        0.0000674089  -0.0000048398   0.0000321944  -0.0000088964  -0.0000056466
       -0.0000112081  -0.0000008077   0.0000013518  -0.0000284854  -0.0000010667
        0.0000114146  -0.0000082253  -0.0000011912   0.0000115818  -0.0000204597
       -0.0000032755   0.0000247702  -0.0000009189   0.0000042478   0.0000106869
       -0.0000026081   0.0000006888   0.0000157672   0.0000045498   0.0000010568
        0.0000100748   0.0000093297  -0.0000009897  -0.0000009050   0.0000029937
        0.0000023603  -0.0001446286  -0.0000152733   0.0000261873
        0.0149465795   0.6631811489  -0.0267654475   0.1478291286  -0.1908985470
        0.0028583961   0.0075347944  -0.0567151279   0.0023871491   0.0151698080
        0.0054584747  -0.0008446227  -0.0335753079  -0.0142470144   0.0017695997
       -0.1080923234  -0.1137175578   0.0062838581  -0.0012615141  -0.0028636525
        0.0004407070   0.0017527591  -0.0018358422  -0.0000362575  -0.0023305661
       -0.0047069851   0.0003226403  -0.0003508784   0.0016204413  -0.0000169675
       -0.0008784042  -0.0005374446   0.0000123492   0.0006518214   0.0002890976
       -0.0000084053  -0.0002689566  -0.0003097076   0.0000118983   0.0000338996
        0.0001278783  -0.0000004658  -0.0000239844  -0.0000639031   0.0000052370
        0.0000195940   0.0001076589   0.0000038903  -0.0000856281  -0.0001587432
       -0.0000091709   0.0002257265   0.0002302623   0.0000556115   0.0001338914
       -0.0003249583   0.0000079670  -0.0003926391  -0.0000164949  -0.0001790613
        0.0007693146  -0.0004517148   0.0002016943  -0.0005566762   0.0003517610
       -0.0000748047   0.0000766661   0.0002073597   0.0001436795   0.0000854079
        0.0000365373   0.0000379505   0.0000256386  -0.0000387254  -0.0000153194
       -0.0000127774  -0.0000038396   0.0000037367   0.0000479475  -0.0000043944
       -0.0000000937  -0.0000254211   0.0000453667   0.0000054310  -0.0000046615
        0.0000254043   0.0000049626  -0.0000213868  -0.0000317117   0.0000007509
        0.0000497069   0.0000361092  -0.0000022253  -0.0000372366   0.0000034731
       -0.0000051065  -0.0000307869   0.0000428254   0.0000040621  -0.0000055190
       -0.0000391592  -0.0000036104  -0.0000009353   0.0000174654  -0.0000025700
       -0.0000125459   0.0000080563  -0.0000007112  -0.0000167084   0.0000072555
       -0.0000004887   0.0000004728  -0.0000270369   0.0000009835   0.0000209040
        0.0000023288  -0.0000054241  -0.0000043056  -0.0000047864   0.0000096572
        0.0000570388  -0.0000043569  -0.0000148266   0.0000075819   0.0000157556
        0.0000015684   0.0000015230  -0.0000282531   0.0000363184  -0.0004000930
        0.0002733633  -0.0000840966   0.0001456531  -0.0002827924  -0.0001133602
        0.0002458497  -0.0001759996  -0.0000622869  -0.0533584170  -0.2895929411
        0.0138369371  -0.0058709287   0.0052592608  -0.0001003201  -0.0010259222
       -0.0055818268   0.0006608908   0.0188727984   0.0051526803  -0.0007980464
       -0.0000896245   0.0001426615   0.0000196180  -0.0000138971   0.0000451215
       -0.0000036131  -0.0000071943   0.0000077106   0.0000063364   0.0000038150
        0.0000123514  -0.0000001814   0.0000105434   0.0000063778  -0.0000037363
        0.0000149817   0.0000084797   0.0000006602   0.0000667508   0.0000404552
        0.0000349318  -0.0000297473  -0.0000616216   0.0000028830  -0.0000259283
        0.0000262023   0.0000012239   0.0000073436  -0.0000159442  -0.0000000107
        0.0000163601  -0.0000050908   0.0000006227   0.0000123192  -0.0000082397
       -0.0000022148   0.0000132410   0.0000002565   0.0000034270   0.0000073406
       -0.0000040177  -0.0000019793   0.0000122749   0.0000024877  -0.0000004223
        0.0000066041   0.0000095603   0.0000015360  -0.0000000514   0.0000039463
       -0.0000005042  -0.0000651135  -0.0000471445  -0.0000228140
       -0.0157770072  -0.0267654475   0.1155838666  -0.0025858861   0.0048730245
       -0.0482166234  -0.0014066605   0.0009867501   0.0011733887   0.0004966295
       -0.0007361454  -0.0054565790   0.0019105587   0.0032042208   0.0018643152
        0.0131007944   0.0041314342  -0.0445602506   0.0001612385   0.0006340402
        0.0042809659   0.0000403662  -0.0000840210   0.0004047022   0.0000690043
        0.0001540685  -0.0002377665  -0.0000448215  -0.0001442637  -0.0000843284
        0.0001536209   0.0000893353   0.0000343582  -0.0000744800  -0.0000251688
       -0.0000617559   0.0000576941   0.0000320467  -0.0000098948  -0.0000260856
       -0.0000220841   0.0000016185   0.0000274200   0.0000233089  -0.0000004458
       -0.0000068260  -0.0000071969   0.0000017783  -0.0000351914  -0.0000263286
        0.0000003660  -0.0000255408  -0.0000402643  -0.0000051851  -0.0002188133
       -0.0000391606  -0.0000033953  -0.0000289545  -0.0002702925  -0.0001518562
       -0.0003610182   0.0002700326  -0.0000710539   0.0003180179  -0.0003505123
       -0.0000464734  -0.0000153737   0.0001423769   0.0000448061  -0.0000107815
       -0.0000118181  -0.0000125113   0.0000056622   0.0000348342  -0.0000018623
        0.0000177428   0.0000177068   0.0000043557  -0.0000223140   0.0000081669
        0.0000045265   0.0000357314  -0.0000175829  -0.0000027232  -0.0000123420
       -0.0000153654  -0.0000003816   0.0000133283   0.0000386156   0.0000034245
       -0.0000793523  -0.0000019598   0.0000066948   0.0000520686   0.0000103712
       -0.0000025505   0.0000393119  -0.0000690760  -0.0000019768  -0.0000564000
        0.0000479957  -0.0000038548  -0.0000151222  -0.0000135157   0.0000024703
        0.0000270807   0.0000003703  -0.0000004222   0.0000081118   0.0000042707
        0.0000018551  -0.0000207394   0.0000040930  -0.0000008752   0.0000148059
       -0.0000062306   0.0000023262  -0.0000185526   0.0000056159   0.0000135481
       -0.0000362403   0.0000110342  -0.0000068926   0.0000128069  -0.0000691209
       -0.0000032634   0.0000366784   0.0000158971   0.0000133362   0.0000407680
       -0.0001019787  -0.0000068766  -0.0002057144   0.0002724454   0.0002797525
        0.0003220150   0.0001170397  -0.0000342819   0.0031427639   0.0137632591
       -0.0341628249   0.0009324813  -0.0006807414   0.0005352763   0.0002047293
        0.0007180011   0.0083082535  -0.0001442874  -0.0000790169   0.0005519182
        0.0000047162  -0.0000053180   0.0000096336  -0.0000028305  -0.0000068063
        0.0000203845   0.0000017252   0.0000031082  -0.0000017426  -0.0000015680
       -0.0000037751  -0.0000009069  -0.0000026017   0.0000026630   0.0000009905
        0.0000034275  -0.0000022073   0.0000018709   0.0000042378  -0.0000172313
        0.0000017232   0.0000036240  -0.0000032818  -0.0000072143   0.0000020010
       -0.0000030943  -0.0000050844  -0.0000017114   0.0000051555  -0.0000016452
        0.0000002461  -0.0000018353  -0.0000011940  -0.0000007306   0.0000058250
       -0.0000018723  -0.0000075137   0.0000004510   0.0000018867  -0.0000034520
        0.0000021198  -0.0000004055  -0.0000009880  -0.0000017829   0.0000009929
        0.0000025062   0.0000003314  -0.0000003106  -0.0000006479   0.0000004396
        0.0000016202  -0.0000133660  -0.0000078250   0.0000102754
       -0.2141573645   0.1478291286  -0.0025858861   0.6608135891   0.0172661493
       -0.0150176554  -0.1030369219  -0.0861123216   0.0054566795   0.0003550425
       -0.0311446950   0.0012562991   0.0008212132   0.0200618891  -0.0010378281
       -0.0620447982  -0.0039216463   0.0017776133  -0.0032198774  -0.0010078378
        0.0004059222   0.0000401426  -0.0007800480   0.0000837102  -0.0056971009
       -0.0032571104   0.0004530834  -0.0001946050   0.0012033769  -0.0000347934
       -0.0001359909  -0.0004821164   0.0000146096   0.0003400752  -0.0001063407
       -0.0000224469   0.0000813721   0.0000742929  -0.0000049449  -0.0000199063
       -0.0001503524  -0.0000026726   0.0001714905  -0.0000341591  -0.0000091114
       -0.0000817747   0.0001216573   0.0000051600  -0.0000586738  -0.0001089096
       -0.0000005840   0.0000625213   0.0003003557   0.0000313224   0.0000617703
       -0.0002075371   0.0000012497  -0.0002097600   0.0000780097  -0.0000431250
        0.0002123977  -0.0001349357   0.0000398800  -0.0001806262   0.0000296678
       -0.0001218546   0.0000669267   0.0000732684   0.0001172355   0.0000012631
       -0.0000153342  -0.0000108887   0.0000106706   0.0000265724  -0.0000030625
        0.0000288266  -0.0000369275  -0.0000015703   0.0000166440   0.0000131038
       -0.0000010840  -0.0000044357   0.0000291671   0.0000026343  -0.0000262113
        0.0000050129   0.0000029209  -0.0000036269  -0.0000109452   0.0000008479
        0.0000016553   0.0000155298  -0.0000013643  -0.0000027276   0.0000275775
        0.0000006871  -0.0000314031  -0.0000009446  -0.0000000172   0.0000177140
       -0.0000234148   0.0000002957  -0.0000038924  -0.0000007335  -0.0000008805
       -0.0000096503   0.0000135035  -0.0000001749  -0.0000136952  -0.0000049392
       -0.0000010364  -0.0000056007  -0.0000171287   0.0000022594   0.0000135339
        0.0000020719  -0.0000006634  -0.0000144540  -0.0000097758   0.0000050991
        0.0000155093   0.0000126939  -0.0000048817  -0.0000134873  -0.0000016920
        0.0000016651   0.0000239262  -0.0000116958   0.0000007545  -0.0001092560
        0.0000576136  -0.0000037649   0.0000451603  -0.0001669942  -0.0000831671
       -0.0004293945   0.0002642828   0.0000053521   0.0037694479  -0.0029486221
        0.0000583841  -0.2752241152  -0.0770193766   0.0098273850   0.0029510620
        0.0223710022  -0.0010312136  -0.0050738095  -0.0018859790   0.0005036618
       -0.0000258770  -0.0002867320  -0.0000014443  -0.0000113755   0.0000135369
        0.0000071090  -0.0000131355  -0.0000043360  -0.0000003551   0.0000041338
        0.0000188730  -0.0000002896   0.0000142066   0.0000082685   0.0000038682
        0.0000176211   0.0000084922  -0.0000035470  -0.0000160461   0.0000153005
       -0.0000039617   0.0000258023  -0.0000047506   0.0000036513  -0.0000039709
       -0.0000256675   0.0000004046   0.0000001440  -0.0000106867   0.0000002546
        0.0000101418  -0.0000060996   0.0000001953   0.0000135932  -0.0000089093
       -0.0000008375   0.0000123971   0.0000011848  -0.0000006766   0.0000081204
       -0.0000000033  -0.0000013679   0.0000117262   0.0000052502  -0.0000013377
        0.0000038920   0.0000103933  -0.0000012011  -0.0000023223   0.0000045460
       -0.0000007501   0.0000321541  -0.0000120739  -0.0000297543
        0.0678562047  -0.1908985470   0.0048730245   0.0172661493   0.6549429129
       -0.0257225184  -0.0087306139  -0.3334607907   0.0137804606  -0.0861634237
       -0.0247702937   0.0035539104   0.0120861243  -0.0519513580   0.0017495041
        0.0535238657   0.0502574286  -0.0033399030   0.0044866105  -0.0023073695
       -0.0006693665  -0.0054074976   0.0020327097   0.0001501884   0.0032082085
        0.0141443757  -0.0003910983   0.0011407084  -0.0055423400   0.0000854129
        0.0027907331   0.0024664975  -0.0000802874  -0.0025391965   0.0006558330
        0.0000992832   0.0002334745   0.0002578960   0.0000036837   0.0001005812
        0.0001290318   0.0000055186  -0.0003004431   0.0000222699   0.0000099377
        0.0000515157  -0.0003957388  -0.0000098840   0.0001799357   0.0003386832
        0.0000098294  -0.0004535705  -0.0006201593  -0.0001466138  -0.0007286817
        0.0005144724  -0.0000874493   0.0015462427  -0.0004434354   0.0006628076
       -0.0012610916   0.0006016802  -0.0002428685   0.0009527322  -0.0002541861
        0.0003041728  -0.0003429694  -0.0002768501  -0.0004456937   0.0000246866
       -0.0001078702  -0.0000116601  -0.0000474387   0.0001153886   0.0000094381
        0.0000273022   0.0000005175   0.0000111468  -0.0000176682   0.0000277404
        0.0000059092   0.0000808465   0.0000248090  -0.0000025290  -0.0000593135
       -0.0000432046  -0.0000058138   0.0001330039   0.0000879637   0.0000050586
       -0.0000708847  -0.0001168411   0.0000139092   0.0000770930   0.0001067601
        0.0000034875  -0.0000226127  -0.0001366433  -0.0000085513  -0.0000209589
        0.0000989749  -0.0000089851  -0.0000092502  -0.0000914878   0.0000056166
       -0.0000022768   0.0000351370   0.0000026763  -0.0000053946  -0.0000326862
        0.0000006970  -0.0000090689   0.0000081250  -0.0000056729   0.0000176210
       -0.0000283480   0.0000097881  -0.0000450983   0.0000241335  -0.0000113042
       -0.0001026428   0.0000057504   0.0000216552   0.0000187912  -0.0000718094
        0.0000027226  -0.0000518910   0.0000569466   0.0000158519   0.0007248281
       -0.0002765353   0.0002289319  -0.0006717554   0.0005007998  -0.0002720981
        0.0004925856  -0.0011579805   0.0000118306   0.0209242599  -0.0231018431
        0.0004847895  -0.0771122671  -0.0693894637   0.0038384164  -0.0014305661
       -0.0228137443   0.0010431400  -0.0024405125   0.0007808760   0.0004485053
        0.0001338496   0.0000533980  -0.0000133532  -0.0000078084   0.0000091431
       -0.0000120323  -0.0000134880   0.0000154572   0.0000037949  -0.0000139540
       -0.0000087269   0.0000029401  -0.0000049698  -0.0000037766  -0.0000054349
       -0.0000423145  -0.0000256240   0.0000071077   0.0000443934  -0.0000000695
        0.0000261217  -0.0000182924   0.0000129901  -0.0000108885  -0.0000104941
       -0.0000037399   0.0000018932   0.0000032348  -0.0000244164  -0.0000019210
        0.0000152632  -0.0000062016  -0.0000026963   0.0000092134  -0.0000169833
       -0.0000022171   0.0000232488   0.0000026524  -0.0000005076   0.0000099989
       -0.0000072996   0.0000023187   0.0000147503   0.0000094364   0.0000005353
        0.0000080207   0.0000182222  -0.0000043746  -0.0000098531   0.0000065949
        0.0000032501  -0.0000378148   0.0000207566   0.0000164569
        0.0010905486   0.0028583961  -0.0482166234  -0.0150176554  -0.0257225184
        0.1157014444   0.0019129254   0.0157754464  -0.0455990309   0.0039751395
        0.0018712445   0.0007914077  -0.0007579683   0.0015929867  -0.0057955047
       -0.0006749257  -0.0022013596   0.0013048560  -0.0001396476   0.0001245556
       -0.0001850322   0.0002663050  -0.0001047462   0.0002435534   0.0001180012
       -0.0003156288   0.0066836210  -0.0000556989   0.0002671393  -0.0000548387
       -0.0001446665  -0.0000957860  -0.0003206090   0.0001215495  -0.0000193344
        0.0000309405  -0.0000144360  -0.0000170263   0.0000184528  -0.0000064150
       -0.0000034393  -0.0000029982   0.0000133685   0.0000013734   0.0000040978
       -0.0000008392   0.0000197367  -0.0000000001  -0.0000111952  -0.0000211846
        0.0000265123   0.0000203448   0.0000220240   0.0000285793   0.0000671277
       -0.0000340593  -0.0000308647  -0.0001054124   0.0000170593  -0.0000649169
        0.0000626259  -0.0000344791   0.0000161309  -0.0000498435   0.0000109332
       -0.0000144724   0.0000189665   0.0000166166   0.0000251923  -0.0000009392
        0.0000036611   0.0000031261   0.0000040517  -0.0000060284  -0.0000006326
       -0.0000019127   0.0000046857  -0.0000010167  -0.0000024400  -0.0000031297
       -0.0000006382  -0.0000025852  -0.0000052944  -0.0000007380   0.0000051443
        0.0000052417   0.0000001873  -0.0000069421  -0.0000043724  -0.0000002267
        0.0000003495   0.0000072294  -0.0000006295  -0.0000045759  -0.0000083264
        0.0000003473   0.0000049881   0.0000065057   0.0000012434  -0.0000014677
       -0.0000036395   0.0000012866  -0.0000002404   0.0000054614   0.0000001797
        0.0000013142  -0.0000027307   0.0000012397   0.0000012967   0.0000026066
        0.0000019481  -0.0000002810   0.0000004650   0.0000019963  -0.0000009734
        0.0000007627   0.0000007254   0.0000025498  -0.0000004587   0.0000014459
        0.0000073803  -0.0000002882  -0.0000014921  -0.0000027525   0.0000006601
       -0.0000004541   0.0000036317  -0.0000021908  -0.0000024280  -0.0000542128
        0.0000212649  -0.0000244752   0.0000765567   0.0000045484   0.0000493387
       -0.0000528252   0.0000384026  -0.0004698717  -0.0010743626   0.0012208362
        0.0007174613   0.0098578842   0.0037205663  -0.0339333721   0.0000083689
        0.0005837497   0.0007337309   0.0005388792   0.0003849834   0.0082528024
        0.0000072890   0.0000115040   0.0001107001   0.0000004370   0.0000007296
       -0.0000161894   0.0000009939  -0.0000007992  -0.0000026621   0.0000005137
       -0.0000002426   0.0000001853  -0.0000006746   0.0000000542  -0.0000074063
        0.0000022115   0.0000014955  -0.0000006547   0.0000001300   0.0000011642
       -0.0000031178  -0.0000003204  -0.0000018095   0.0000000954   0.0000014134
        0.0000015653  -0.0000010000  -0.0000004330   0.0000026687  -0.0000004314
       -0.0000010783   0.0000002296  -0.0000002836  -0.0000007899   0.0000016675
        0.0000000244  -0.0000021573  -0.0000000802  -0.0000000260  -0.0000010736
        0.0000004593  -0.0000000598  -0.0000013395  -0.0000007362   0.0000001401
       -0.0000004981  -0.0000013200   0.0000004188   0.0000005284  -0.0000003659
       -0.0000000588   0.0000007642   0.0000006945  -0.0000006559
        0.0431688344   0.0075347944  -0.0014066605  -0.1030369219  -0.0087306139
        0.0019129254   0.6438714481  -0.0148308818  -0.0116887270  -0.2922262824
       -0.0810270038   0.0096259812  -0.0524065789   0.0428785174  -0.0006732227
       -0.0225873738  -0.0271888235   0.0015241947  -0.0044744002   0.0044120262
        0.0004083079   0.0071979105  -0.0026391849  -0.0003084097  -0.0169448335
       -0.0276543896   0.0016166987  -0.0013907047   0.0073977867  -0.0001476467
       -0.0033728940  -0.0025552300   0.0000806131   0.0025027899   0.0002621099
       -0.0000583609  -0.0007837873  -0.0005862893   0.0000028485  -0.0000090779
        0.0000371039   0.0000015223   0.0000928118  -0.0000838271   0.0000085700
        0.0000617086   0.0003273809   0.0000087548  -0.0001862706  -0.0003367706
       -0.0000200716   0.0006423955   0.0003452576   0.0001394194   0.0012230839
       -0.0004990182  -0.0000139920  -0.0013962063   0.0005379143  -0.0005942486
        0.0012678051  -0.0006307281   0.0003461962  -0.0007726555   0.0003918120
       -0.0001591152   0.0001811814   0.0003854806   0.0003151369   0.0000498188
        0.0000563255   0.0000022376   0.0000085456  -0.0000329131  -0.0000094016
        0.0000024951  -0.0000188030  -0.0000063210  -0.0000055242   0.0000119860
        0.0000213377   0.0000045143   0.0000042763   0.0000002941  -0.0000276929
       -0.0000306077   0.0000045566  -0.0000460423   0.0000088918   0.0000031478
       -0.0000612375   0.0000569282  -0.0000087492   0.0000431100   0.0000099216
       -0.0000099394  -0.0000033139  -0.0000161320   0.0000089041   0.0000012994
       -0.0000165829  -0.0000086525   0.0000060909   0.0000533908   0.0000006632
       -0.0000057306   0.0000056088   0.0000007462  -0.0000093025  -0.0000016086
        0.0000027940  -0.0000244137  -0.0000127969  -0.0000183050   0.0000099687
        0.0000076453  -0.0000077857  -0.0000034379  -0.0000160254   0.0000032475
        0.0000842967   0.0000155953  -0.0000374811   0.0000049773   0.0000212333
        0.0000010107   0.0000527714  -0.0000527370   0.0000331636  -0.0006590210
        0.0002859583  -0.0000627298   0.0004339837  -0.0004949592   0.0001024942
       -0.0013401632  -0.0002968576   0.0000221529  -0.0027083147   0.0037187694
        0.0001471199  -0.0085507552  -0.0286302702   0.0015065753  -0.1881937185
        0.1269064846  -0.0025829856   0.0002242153  -0.0007495565  -0.0000407371
        0.0002126789   0.0013171612   0.0000016781  -0.0000218436   0.0001411088
       -0.0000007872  -0.0000252604   0.0000057975   0.0000073289  -0.0000004756
        0.0000327727  -0.0000028659   0.0000077116   0.0000071443  -0.0000005113
        0.0000335801   0.0000132846  -0.0000019936   0.0000049975   0.0000442721
        0.0000687290   0.0000284000  -0.0000067762   0.0000027561  -0.0000052192
       -0.0000155130  -0.0000064071  -0.0000061996   0.0000081982  -0.0000036625
       -0.0000093469   0.0000007236  -0.0000008169  -0.0000031620   0.0000074113
       -0.0000032552  -0.0000176270  -0.0000022757   0.0000055743  -0.0000079792
       -0.0000244155  -0.0000008210  -0.0000049842   0.0000008898   0.0000028831
       -0.0000088720   0.0000002343   0.0000076177  -0.0000061261  -0.0000030916
        0.0000005146  -0.0000796739  -0.0000675145  -0.0000640328
        0.0662194293  -0.0567151279   0.0009867501  -0.0861123216  -0.3334607907
        0.0157754464  -0.0148308818   0.6694669924  -0.0256418044  -0.0295448578
       -0.0953381434   0.0028511816   0.0025647856   0.0434172582  -0.0022161444
       -0.0329140207  -0.0303907699   0.0019093817   0.0014242795   0.0011008878
        0.0008251026   0.0032219300  -0.0073330851   0.0000788316  -0.0319376787
       -0.0231174175   0.0017713775  -0.0016787907   0.0058325190  -0.0000417020
       -0.0029323125  -0.0021671259   0.0001027240   0.0023627592  -0.0001336791
       -0.0000772343  -0.0004378101  -0.0004145427   0.0000036712  -0.0000618605
        0.0001052569  -0.0000030742   0.0000283333  -0.0000301393   0.0000062521
        0.0000685056   0.0002205323   0.0000020797  -0.0001012421  -0.0002591521
       -0.0000132404   0.0003222469   0.0002821826   0.0001328498   0.0008191614
       -0.0008215389   0.0001073258  -0.0015422256   0.0003107506  -0.0007700233
        0.0014578940  -0.0007165529   0.0002616604  -0.0011047172   0.0004847468
       -0.0001890360   0.0003296784   0.0002441344   0.0003614428  -0.0000285947
        0.0001209726   0.0000188948   0.0000368658  -0.0001548195   0.0000008524
       -0.0000642189   0.0000220767  -0.0000125387  -0.0000100598  -0.0000386850
        0.0000022178  -0.0000578899  -0.0000389121  -0.0000005834   0.0000691082
        0.0000211538   0.0000019925  -0.0001173384  -0.0000621026  -0.0000062742
        0.0000532493   0.0000838697  -0.0000148966  -0.0000522890  -0.0001089788
       -0.0000029056   0.0000444592   0.0001209188   0.0000089164   0.0000449075
       -0.0000729024   0.0000087891   0.0000074853   0.0000917133  -0.0000042163
        0.0000055031  -0.0000390453  -0.0000013308   0.0000131679   0.0000358371
        0.0000011121   0.0000039864   0.0000075607  -0.0000034555  -0.0000281552
        0.0000201082  -0.0000082517   0.0000573059  -0.0000054650   0.0000018969
        0.0001122215  -0.0000074573  -0.0000231169  -0.0000361239   0.0000683330
       -0.0000030937   0.0000300410  -0.0000393718  -0.0000263551  -0.0009096985
        0.0004288449  -0.0003081283   0.0012839787  -0.0003719994   0.0002253844
       -0.0018299075   0.0005529316   0.0000229363   0.0033456750  -0.0022904180
        0.0003742014  -0.0047609524  -0.0120714997   0.0005895800   0.1285238217
       -0.1558467024   0.0028917843  -0.0007306920  -0.0001641174   0.0000040962
       -0.0005039301  -0.0008098273   0.0000189227  -0.0000144612  -0.0000296465
       -0.0000092370   0.0000097148  -0.0000107616   0.0000008089   0.0000018220
       -0.0000096070  -0.0000019884  -0.0000070665  -0.0000092828   0.0000002136
        0.0000291627   0.0000177536  -0.0000041687  -0.0000332627   0.0000077178
        0.0000068197   0.0000101481  -0.0000035529   0.0000075746   0.0000143181
        0.0000192804  -0.0000031558  -0.0000044075   0.0000314380   0.0000004828
       -0.0000181969   0.0000114570   0.0000015534  -0.0000197813   0.0000251237
        0.0000025852  -0.0000329533  -0.0000017621   0.0000007386  -0.0000181340
       -0.0000007197  -0.0000006992  -0.0000251736  -0.0000103600   0.0000013310
       -0.0000129180  -0.0000224549   0.0000063262   0.0000086034  -0.0000070381
       -0.0000019344  -0.0000096241  -0.0000267971   0.0000125008
       -0.0041224554   0.0023871491   0.0011733887   0.0054566795   0.0137804606
       -0.0455990309  -0.0116887270  -0.0256418044   0.1141584268   0.0068749918
        0.0041920933  -0.0464856322   0.0012033930  -0.0033044468   0.0011223061
        0.0020977431   0.0020453526  -0.0032845549   0.0005416100   0.0003695279
        0.0041800317  -0.0001509023   0.0002607357   0.0020880735   0.0015532316
        0.0016774633  -0.0013918963   0.0001157474  -0.0007138363   0.0000853551
        0.0004708287   0.0003572100  -0.0000912945  -0.0004425886   0.0001233126
       -0.0000249567   0.0001105222   0.0001069059   0.0000030354  -0.0000359040
       -0.0000651236   0.0000015460   0.0000973487   0.0000126372  -0.0000057214
       -0.0000631115   0.0000852129   0.0000072603  -0.0000456079  -0.0000937022
       -0.0000265817  -0.0000067288   0.0001656441  -0.0000117566  -0.0002724528
       -0.0001683235   0.0000465577   0.0000918275  -0.0000584815   0.0000243394
        0.0000887199  -0.0001010152   0.0000604619  -0.0000676574   0.0000611446
       -0.0000349947  -0.0000349184   0.0001062177   0.0000388362   0.0000447173
        0.0000033188   0.0000063510   0.0000042625   0.0000053147  -0.0000094970
        0.0000039568   0.0000024708   0.0000034451  -0.0000027101   0.0000032971
        0.0000005637   0.0000068179  -0.0000037571   0.0000005640  -0.0000017470
       -0.0000032345   0.0000014501  -0.0000064219   0.0000078467   0.0000020558
       -0.0000129883   0.0000125126   0.0000040682   0.0000108935   0.0000039778
       -0.0000033931   0.0000038686  -0.0000094669   0.0000015161  -0.0000192019
       -0.0000005226  -0.0000035698   0.0000031562   0.0000028691   0.0000002649
       -0.0000011821  -0.0000026579  -0.0000003545   0.0000020788   0.0000019802
        0.0000011737  -0.0000010138   0.0000006162   0.0000015309   0.0000037566
        0.0000022541  -0.0000011939  -0.0000085582  -0.0000060351   0.0000090289
       -0.0000034702  -0.0000013065  -0.0000009009   0.0000104086  -0.0000096590
       -0.0000027654   0.0000101510  -0.0000103982   0.0000253660  -0.0000497936
        0.0000299809   0.0000188090  -0.0003167256  -0.0001093942  -0.0000499650
        0.0004712611  -0.0001308946   0.0003882249   0.0001033923   0.0003600771
        0.0067678435   0.0004537165   0.0013248701   0.0001888376  -0.0024996399
        0.0029265770  -0.0331488591   0.0000210288   0.0000144725  -0.0002004579
       -0.0000112935  -0.0000042447  -0.0000386082  -0.0000019098   0.0000080519
       -0.0000046745  -0.0000000658   0.0000021434  -0.0000007216   0.0000004503
       -0.0000019946  -0.0000013054  -0.0000009612   0.0000008407   0.0000063369
       -0.0000019514  -0.0000008275  -0.0000002600   0.0000432344   0.0000062690
        0.0000143452  -0.0000008481  -0.0000027463  -0.0000018245   0.0000017025
        0.0000017625  -0.0000011365   0.0000001138   0.0000007960  -0.0000002642
        0.0000004699  -0.0000001151  -0.0000000211   0.0000002945   0.0000003458
       -0.0000018777   0.0000002546  -0.0000001303   0.0000023805   0.0000003752
        0.0000017211  -0.0000011967   0.0000003082   0.0000000309  -0.0000000527
        0.0000012843   0.0000001407   0.0000001166   0.0000008398   0.0000002136
       -0.0000001138  -0.0000339009  -0.0000117002  -0.0000044578
       -0.0540971641   0.0151698080   0.0004966295   0.0003550425  -0.0861634237
        0.0039751395  -0.2922262824  -0.0295448578   0.0068749918   0.6834147155