$hessian                                                                        
        0.3117637265  -0.0674940096  -0.2407636180  -0.1467310746   0.0565257992
        0.1131766595  -0.0138116800  -0.0421488305   0.0352711489  -0.0160022643
        0.0160473546   0.0072414647   0.0176874395   0.0174069474  -0.0270649035
       -0.0922137578   0.0523279409   0.0417015661  -0.0021310753  -0.0021439036
        0.0005169740   0.0004364882   0.0004012616  -0.0001974916   0.0006073674
        0.0000243838  -0.0005036199   0.0014420981  -0.0000216920   0.0002597501
       -0.0007120644  -0.0006819512  -0.0007008900   0.0011897336  -0.0002937892
        0.0002334802  -0.0007973732   0.0001974039  -0.0000317841   0.0002168830
        0.0001606273   0.0003055075  -0.0008614777   0.0005562415  -0.0000610244
        0.0000009761   0.0000115308   0.0000695159   0.0005174485   0.0001520886
        0.0000198086  -0.0000630885  -0.0006207243  -0.0001289601   0.0000696873
        0.0005905583   0.0000641109  -0.0000140447  -0.0000547511   0.0000278997
       -0.0001474745   0.0005726297   0.0001032973  -0.0004676543  -0.0010107271
       -0.0001014416   0.0006236000   0.0009027271   0.0000161844  -0.0005322538
       -0.0001271352   0.0000341482   0.0000398510   0.0000881413   0.0000342650
       -0.0004834596  -0.0002719539   0.0000256054   0.0005600335   0.0003716987
       -0.0000450741   0.0000773335  -0.0005241061  -0.0001344200  -0.0560217537
       -0.0512095950   0.0485267703  -0.0071806787   0.0037161276   0.0085702095
        0.0054040167  -0.0001910091   0.0042074822   0.0047009824  -0.0007457031
        0.0043682884  -0.0071517230   0.0177099270   0.0049840184  -0.0000195233
       -0.0000903405   0.0000071121  -0.0000096360  -0.0000134156   0.0000058664
       -0.0000039764  -0.0000093649   0.0000016454   0.0000632639  -0.0000160504
       -0.0000369358  -0.0000123918  -0.0001111019   0.0000277774  -0.0000453910
        0.0000161897  -0.0000215371  -0.0000007511   0.0000434720  -0.0000052578
        0.0000117348  -0.0000191607   0.0000121757   0.0000216111   0.0000042643
       -0.0000156878  -0.0000321618  -0.0000159523   0.0000062915   0.0000100757
       -0.0000162520   0.0000028331   0.0000023789   0.0000042040  -0.0000092104
       -0.0674940096   0.6216797775  -0.0828344430   0.0076258537  -0.0984003338
        0.0066767534  -0.0073601544   0.0303238742   0.0008883447   0.0165686866
       -0.0097402747  -0.0201277247  -0.0168419299  -0.0668342490   0.0467287064
        0.1018490442  -0.2694164230  -0.0577344269  -0.0048644750  -0.0063411443
        0.0026015944   0.0000793929   0.0019626750  -0.0000996907   0.0013121704
        0.0008945256  -0.0008649739  -0.0002958175   0.0031858325   0.0022344987
        0.0011506198  -0.0017008972  -0.0017198297  -0.0009461717   0.0006369522
       -0.0000845827   0.0008005647  -0.0027504331  -0.0022329593  -0.0010772609
        0.0021904593   0.0025028807   0.0008470265  -0.0005451982  -0.0000779657
        0.0005235734  -0.0002805651   0.0000889634   0.0019502971   0.0005687359
       -0.0001722341  -0.0003759126  -0.0020275867  -0.0000652679   0.0006553381
        0.0014295766   0.0000507737  -0.0009462143  -0.0003443640   0.0000083950
       -0.0000810322   0.0023043218   0.0003987809  -0.0021625641  -0.0035416883
       -0.0001193649   0.0019391254   0.0035661845   0.0001493641  -0.0018336929
       -0.0007671497   0.0000306068  -0.0000574324   0.0008326021   0.0001837986
       -0.0009999261  -0.0011072424  -0.0000194574   0.0014841106   0.0012054259
       -0.0001522176   0.0004070993  -0.0019479815  -0.0004394869  -0.0512541393
       -0.1872686063   0.1190246717   0.0179291958  -0.0072246887  -0.0206129481
       -0.0009360169  -0.0026540784   0.0040987347  -0.0002181720  -0.0019070704
        0.0040444315   0.0031958336  -0.0060959797  -0.0024635335  -0.0001239558
        0.0000155062   0.0001721815  -0.0000253039  -0.0000020190  -0.0000023619
       -0.0000383853  -0.0000038276  -0.0000009362  -0.0000802275   0.0001559460
       -0.0000580851  -0.0001515329  -0.0000912723  -0.0000415028  -0.0001760557
        0.0000519152   0.0000083467  -0.0000194241   0.0001518484   0.0000128562
        0.0000448444  -0.0000511714   0.0000918905   0.0000442542   0.0000119033
       -0.0000634835  -0.0000992760  -0.0000616434   0.0000152014   0.0000432970
       -0.0000687629   0.0000198966   0.0000087553   0.0000065890  -0.0000441948
       -0.2407636180  -0.0828344430   0.4557065388   0.1289155941  -0.0580712738
       -0.1980370249   0.0225718536   0.0466214137  -0.0452214207   0.0066414994
       -0.0204913392  -0.0091646179  -0.0151509117   0.0001594014   0.0209430985
        0.0250779734   0.0064973923  -0.0815033852   0.0042010210   0.0051375420
       -0.0020410524  -0.0006206007  -0.0011699493   0.0003223693  -0.0012230099
       -0.0003782504   0.0009489392  -0.0017538314  -0.0012654862  -0.0010332936
        0.0004639564   0.0015457256   0.0015075600  -0.0011792881   0.0001611060
       -0.0002971147   0.0007248864   0.0007818400   0.0008950371   0.0001493222
       -0.0010081387  -0.0013317608   0.0007203041  -0.0005109345   0.0000472098
       -0.0002129136   0.0001186683  -0.0001237992  -0.0014933283  -0.0004659489
        0.0000506768   0.0002283005   0.0016601093   0.0002312919  -0.0003412356
       -0.0013713410  -0.0000924404   0.0004161138   0.0002122723  -0.0000341700
        0.0002322368  -0.0017288191  -0.0003050991   0.0015122700   0.0028347184
        0.0001796636  -0.0016744423  -0.0026738637  -0.0000861892   0.0015154270
        0.0005283253  -0.0000513269  -0.0000318401  -0.0004819797  -0.0001058445
        0.0010785478   0.0008257373  -0.0000094288  -0.0013773849  -0.0010017278
        0.0001126969  -0.0002476813   0.0015289795   0.0003405450   0.0485581543
        0.1190505012  -0.1356424966   0.0046850483  -0.0021906594  -0.0037051391
        0.0040808076   0.0037929130   0.0012281015   0.0045938836   0.0044210490
        0.0011486982   0.0094548034  -0.0205116756  -0.0048075226   0.0000661514
        0.0000991168  -0.0000677278   0.0000192138   0.0000226363  -0.0000121465
        0.0000122036   0.0000215068  -0.0000002647  -0.0000657923  -0.0000479950
        0.0000792994   0.0000916196   0.0002038939  -0.0000887243   0.0001427032
       -0.0000555102   0.0000120339   0.0000191754  -0.0001173315   0.0000042351
       -0.0000281241   0.0000488095  -0.0000478896  -0.0000407384  -0.0000021663
        0.0000500398   0.0000760522   0.0000529468  -0.0000130311  -0.0000349749
        0.0000554464  -0.0000135154  -0.0000094073  -0.0000032177   0.0000283915
       -0.1467310746   0.0076258537   0.1289155941   0.3126140299  -0.0887240895
       -0.2342493340  -0.0799479920  -0.0208323377   0.0513150311   0.0159763276
       -0.0174940445  -0.0111530837  -0.0136246414  -0.0147221727   0.0156645550
       -0.0171980087   0.0535757876   0.0059977537   0.0071001921   0.0082280089
        0.0002919312  -0.0009968878  -0.0012434838   0.0001065159  -0.0016061693
       -0.0012726988   0.0010449117  -0.0006459975  -0.0013972609  -0.0013637391
        0.0001808814   0.0016895407   0.0016917756  -0.0007443251   0.0001407963
       -0.0003914760   0.0003276853   0.0012500677   0.0012264295   0.0004284655
       -0.0014462398  -0.0017458354   0.0002492819  -0.0000631007   0.0001620309
       -0.0004549642   0.0002432167  -0.0000142364  -0.0017008517  -0.0007065264
        0.0000736996   0.0004090136   0.0019393194   0.0001614643  -0.0003992834
       -0.0013936278  -0.0000876518   0.0007770816   0.0003563650  -0.0000484324
        0.0000574137  -0.0021584062  -0.0003478777   0.0017664018   0.0033126743
        0.0002011235  -0.0019438647  -0.0031066911  -0.0001171905   0.0017397201
        0.0007732561  -0.0000322037  -0.0000284307  -0.0007335577  -0.0001554020
        0.0010545650   0.0009142405   0.0000088026  -0.0014513968  -0.0012002490
        0.0001209870  -0.0001969407   0.0018109492   0.0003158870  -0.0055495516
        0.0005162384   0.0079530767  -0.0679903843   0.0842212188   0.0185385909
       -0.0058930463  -0.0130375286   0.0123409368  -0.0000397520  -0.0002558414
        0.0000387930   0.0041799875   0.0031651596   0.0033472006   0.0000797246
        0.0000736884  -0.0000232448   0.0000037107   0.0000159831  -0.0000196948
        0.0000127504  -0.0000401587   0.0000188638   0.0001456582  -0.0000023895
        0.0000742610  -0.0000609883   0.0000708315   0.0001477097   0.0001252193
       -0.0001008028   0.0000105963   0.0000056209  -0.0001437822   0.0000054956
       -0.0000374481   0.0000403505  -0.0000628870  -0.0000371508  -0.0000153939
        0.0000608226   0.0000935039   0.0000566171  -0.0000241313  -0.0000333105
        0.0000670539  -0.0000187557  -0.0000147743   0.0000031664   0.0000203367
        0.0565257992  -0.0984003338  -0.0580712738  -0.0887240895   0.6527054914
       -0.0591112233  -0.0676041268  -0.2238306413   0.1465086293   0.0124697167
       -0.0671353499   0.0064249522  -0.0104494818  -0.0027291570   0.0125415042
        0.0194262179   0.0024717926  -0.0255773221   0.0056359646   0.0009200995
       -0.0027144465  -0.0004374660  -0.0025665217   0.0007528073  -0.0007745953
        0.0005148651   0.0000312357   0.0001305240  -0.0014366285  -0.0004596851
       -0.0002659949   0.0009100384   0.0007083454   0.0002985414  -0.0001583009
        0.0000191792  -0.0003496248   0.0013525966   0.0010791429   0.0006387907
       -0.0010930306  -0.0013051611  -0.0004766335   0.0003199984  -0.0001129103
       -0.0003695926   0.0001533042  -0.0000366376  -0.0015487856  -0.0004802268
        0.0000991883   0.0001198122   0.0016074995   0.0002175450  -0.0003198050
       -0.0011829681  -0.0000968767   0.0005919962   0.0002210034  -0.0000356227
        0.0000781904  -0.0017889548  -0.0002891650   0.0016812863   0.0028169334
        0.0001622661  -0.0016230243  -0.0028050965  -0.0001065215   0.0015154386
        0.0006388893  -0.0000423520   0.0000256782  -0.0006414005  -0.0001356405
        0.0009109774   0.0008656946  -0.0000163252  -0.0012654623  -0.0009568408
        0.0000964161  -0.0003342575   0.0015450598   0.0003505466  -0.0135279627
        0.0025737431   0.0170551927   0.0840029479  -0.2639638800  -0.0362075309
        0.0006426988   0.0033702486  -0.0014232597  -0.0003516712   0.0005651333
        0.0000979211   0.0035806690  -0.0046060954  -0.0004812035   0.0000333156
        0.0001399750   0.0000308137   0.0000211752   0.0000214440   0.0000346915
        0.0000058463   0.0000159029  -0.0000083221  -0.0001036028  -0.0001022857
        0.0001183279  -0.0001696866   0.0002590544  -0.0000294174   0.0001980232
       -0.0000855597  -0.0000187876   0.0000474644  -0.0000984351  -0.0000084140
        0.0000195573   0.0000042048  -0.0000664789   0.0000264112  -0.0000256991
        0.0000312409   0.0000751628   0.0000342387  -0.0000100433   0.0000076732
        0.0000356233  -0.0000118175  -0.0000140153   0.0000245717   0.0000164919
        0.1131766595   0.0066767534  -0.1980370249  -0.2342493340  -0.0591112233
        0.4416511567   0.0682206903   0.0860854036  -0.1606860490  -0.0208277637
        0.0469062978   0.0154260909   0.0142525220   0.0189288092  -0.0295879695
        0.0178482125  -0.0708084980   0.0015194897  -0.0052318185  -0.0095443461
        0.0039150024   0.0012038772   0.0006684700   0.0002045135   0.0012808793
        0.0009357300  -0.0003702510   0.0030174706   0.0022422501   0.0022066968
       -0.0005681091  -0.0024987244  -0.0026419945   0.0019192649  -0.0001113530
        0.0004859123  -0.0010942670  -0.0014342992  -0.0015199057  -0.0001602450
        0.0018631159   0.0023322344  -0.0011897429   0.0008419330  -0.0003242675
        0.0004197704  -0.0002473037   0.0002334078   0.0022475726   0.0008057428
       -0.0000488817  -0.0003233790  -0.0027280185  -0.0003232578   0.0003846881
        0.0022256556   0.0002080275  -0.0005996432  -0.0003522343   0.0000565249
       -0.0003657230   0.0026574083   0.0004575621  -0.0023606516  -0.0044047875
       -0.0002937685   0.0025928526   0.0041640987   0.0001118745  -0.0023511003
       -0.0008462362   0.0000796665   0.0000593870   0.0007594883   0.0001982748
       -0.0016709356  -0.0012649651   0.0000586237   0.0021355492   0.0015495820
       -0.0001834378   0.0003734237  -0.0023734668  -0.0005708777   0.0126478064
       -0.0013607557  -0.0155623466   0.0178454281  -0.0363920489  -0.0467426835
        0.0086006120   0.0164871493  -0.0152205544  -0.0002147723   0.0000087857
       -0.0003676519   0.0032585621  -0.0000051930   0.0034053412  -0.0001137308
       -0.0002101433   0.0001024218  -0.0000098994  -0.0000268748   0.0000090508
       -0.0000192138  -0.0000071720   0.0000399510  -0.0000772588   0.0000681241
       -0.0001146016   0.0000943899  -0.0001651880  -0.0000354297  -0.0001231265
        0.0000237098  -0.0000602336  -0.0000296816   0.0001790536   0.0000030152
        0.0000166753  -0.0000618878   0.0000835163   0.0000407975   0.0000229412
       -0.0000678547  -0.0001235948  -0.0000733807   0.0000129215   0.0000382566
       -0.0000782787   0.0000113767   0.0000286429   0.0000058764  -0.0000536116
       -0.0138116800  -0.0073601544   0.0225718536  -0.0799479920  -0.0676041268
        0.0682206903   0.3218684965  -0.0690265245  -0.2607779130  -0.0912987281
        0.0970471796   0.0298991809  -0.0151897089   0.0200028424   0.0122880817
       -0.0002903435  -0.0051251969  -0.0041570286   0.0054188498   0.0001462314
       -0.0055730585   0.0005304880  -0.0029648640   0.0011479823  -0.0006605306
       -0.0000508793   0.0014760504  -0.0011752593  -0.0029832370  -0.0004644669
       -0.0005945323   0.0012021848   0.0008422974   0.0008919741  -0.0004509907
        0.0003856632  -0.0005907736   0.0019405529   0.0014944281   0.0009316947
       -0.0011537506  -0.0016704700  -0.0006324531   0.0002428589  -0.0002693514
        0.0000352664  -0.0001321124  -0.0002037570  -0.0013003742   0.0001936189
        0.0001605034  -0.0000011390   0.0011108307   0.0000538918  -0.0005574112
       -0.0010643537   0.0000147423   0.0004669274   0.0000009599   0.0000217082
        0.0003839967  -0.0010781569  -0.0002510935   0.0016447177   0.0020061485
        0.0000179971  -0.0009031557  -0.0023790959  -0.0001221214   0.0009608865
       -0.0000060246  -0.0000694900   0.0001715542  -0.0002039142  -0.0000826942
        0.0006315133   0.0009109986  -0.0000012592  -0.0009051496  -0.0004071881
        0.0001327482  -0.0007127646   0.0010263836   0.0004833747   0.0020406191
        0.0015129025   0.0061178237   0.0026444380   0.0072900957  -0.0054644659
       -0.1324075007   0.0257047536   0.1284338041   0.0019766755   0.0018056608
        0.0059258168   0.0004226646  -0.0001239851  -0.0003654843   0.0001262208
        0.0000571398  -0.0001393053   0.0000377376  -0.0000347567   0.0000037864
        0.0000182220   0.0000700658  -0.0000401800  -0.0002222013  -0.0002139051
        0.0000103882   0.0000761393   0.0000454025   0.0000097878   0.0000898686
        0.0000087411  -0.0000493144  -0.0000242701  -0.0000567109   0.0000106526
       -0.0000704706   0.0000481131  -0.0000762950  -0.0000659295   0.0000144115
        0.0000322453   0.0000300435   0.0000318165  -0.0000007790  -0.0000523361
        0.0000076875  -0.0000171273   0.0000157096  -0.0000076529   0.0000401563
       -0.0421488305   0.0303238742   0.0466214137  -0.0208323377  -0.2238306413
        0.0860854036  -0.0690265245   0.5980923037  -0.0681077181   0.0748182044
       -0.2565394837  -0.0228337444   0.0414182534   0.0006622991  -0.0524944668
       -0.0002792302  -0.0421191347   0.0122595404  -0.0112916206  -0.0353760701
        0.0117404210   0.0006354842  -0.0001518902   0.0019514110   0.0044136840
        0.0005555164  -0.0036468968   0.0005073889   0.0043955949   0.0040622508
        0.0010777356  -0.0039746680  -0.0039778612  -0.0001379134   0.0005197859
        0.0003779528   0.0004726133  -0.0045097929  -0.0039230857  -0.0017803604
        0.0040341078   0.0046426470   0.0006869792  -0.0002210122   0.0001564327
        0.0011881777  -0.0006017070   0.0001794964   0.0046844618   0.0016927031
       -0.0003264892  -0.0007590256  -0.0050847336  -0.0003286209   0.0012395720
        0.0037442862   0.0001820080  -0.0019476658  -0.0008007665   0.0000547916
       -0.0003528012   0.0055196912   0.0009537327  -0.0050549809  -0.0087302279
       -0.0003948633   0.0050292513   0.0085321156   0.0003241348  -0.0046932524
       -0.0019550079   0.0001112853  -0.0000608982   0.0019682732   0.0004168506
       -0.0027898674  -0.0026527097  -0.0000175175   0.0038951714   0.0030489128
       -0.0003726730   0.0007988884  -0.0048650876  -0.0009625732   0.0017789458
        0.0012775834  -0.0001487734  -0.0064117243  -0.0248105535   0.0169029531
        0.0249015786  -0.0483898210  -0.0301550069   0.0014887759   0.0009980933
        0.0005721216  -0.0005058886  -0.0005692114   0.0001001832  -0.0002878351
       -0.0002110407   0.0001829154  -0.0000007942  -0.0000049699   0.0000385275
       -0.0000545487  -0.0000058555   0.0000009500  -0.0001239902   0.0001843280
       -0.0001662141  -0.0002123796  -0.0001889894  -0.0000464529  -0.0003020722
        0.0000882650  -0.0000434205  -0.0000508257   0.0003723470   0.0000136789
        0.0000677469  -0.0001283202   0.0001870611   0.0001035101   0.0000329751
       -0.0001612808  -0.0002307683  -0.0001542927   0.0000370283   0.0001038133
       -0.0001739178   0.0000444914   0.0000258999   0.0000068496  -0.0000920239
        0.0352711489   0.0008883447  -0.0452214207   0.0513150311   0.1465086293
       -0.1606860490  -0.2607779130  -0.0681077181   0.4791669954   0.0377379941
       -0.0563658707  -0.0719214737   0.0078960968  -0.0274408863  -0.0002584727
       -0.0062619024   0.0181807071  -0.0033901267  -0.0045836137   0.0100393273
       -0.0003101504  -0.0005138299   0.0058519767  -0.0016818764   0.0003877169
        0.0009056534  -0.0001687409   0.0014163329   0.0003264690   0.0002709597
        0.0000321190   0.0000151635   0.0001258642   0.0001343364   0.0000999855
       -0.0002740648  -0.0002680442   0.0001702974   0.0001017129   0.0005052104
       -0.0003418070  -0.0000588209  -0.0009336930   0.0004336105   0.0002863869
       -0.0004242452   0.0002669699   0.0000771718  -0.0009328448  -0.0005856178
        0.0001053149   0.0004342377   0.0010888445  -0.0001999253  -0.0002548961
       -0.0007420731  -0.0001326637   0.0006283665   0.0003505508  -0.0000129439
       -0.0001679247  -0.0015089985  -0.0002131564   0.0007894444   0.0019805360
        0.0001567735  -0.0013159608  -0.0016625320  -0.0000728882   0.0010821310
        0.0006664642  -0.0000072534  -0.0000566316  -0.0005643746  -0.0000937212
        0.0005921829   0.0004166962   0.0000123700  -0.0008383791  -0.0008218069
        0.0000312536   0.0001272576   0.0011129140   0.0000275254   0.0061812870
       -0.0000543310  -0.0009092465  -0.0008263128  -0.0013581185   0.0021695812
        0.1272310682  -0.0299285095  -0.1966034093   0.0063853230  -0.0001791158
       -0.0008659641  -0.0005679538   0.0002711899   0.0002943917   0.0000017596
       -0.0000363840   0.0000334287   0.0000007102   0.0000236983   0.0000137130
        0.0000178939  -0.0000554412  -0.0000087319   0.0003572119   0.0001366648
       -0.0001541629   0.0000830417   0.0001382590   0.0003654525   0.0000257833
       -0.0001303023   0.0000515529  -0.0000009244  -0.0000573087  -0.0000030293
        0.0000140942  -0.0000012606  -0.0000307982   0.0000310184  -0.0000235965
        0.0000270085   0.0000508576   0.0000230289  -0.0000205176   0.0000114539
        0.0000391847  -0.0000093438  -0.0000160400   0.0000308876  -0.0000085052
       -0.0160022643   0.0165686866   0.0066414994   0.0159763276   0.0124697167
       -0.0208277637  -0.0912987281   0.0748182044   0.0377379941   0.3018848590
       -0.1193764867  -0.2235837666  -0.1440178760   0.0533217953   0.1159668690
       -0.0126557273  -0.0407065537   0.0342559692  -0.0437590157  -0.0241049194
        0.0270609999   0.0034036360   0.0156319984  -0.0074609073  -0.0017131239
       -0.0033520242   0.0068893601  -0.0048505795  -0.0058433521  -0.0006029290
       -0.0008065007   0.0018204735   0.0031787652  -0.0029961191   0.0000868310
       -0.0010309455   0.0020111657   0.0002194891   0.0009343543  -0.0012716162
       -0.0008483075  -0.0016983479   0.0021957972  -0.0029007693   0.0001798992
        0.0002749019   0.0000585911  -0.0005442864  -0.0006801033  -0.0002778471
        0.0000581518   0.0001233730   0.0010265818   0.0001066719   0.0000538455
       -0.0008863410  -0.0001254685   0.0000642966   0.0001081461   0.0000122678
        0.0001681555  -0.0009448800  -0.0001661761   0.0005996510   0.0015288226
        0.0001337483  -0.0009901038  -0.0012500642   0.0000071187   0.0008073268
        0.0001775076  -0.0000255246  -0.0000998046  -0.0000481191  -0.0000443604
        0.0008000574   0.0003229713  -0.0000795736  -0.0008408828  -0.0005157265
        0.0000813732  -0.0000192499   0.0006822214   0.0001422251  -0.0004070857
        0.0004440716  -0.0001141172   0.0053578619  -0.0005003524   0.0046172773
       -0.0084503192   0.0172496838   0.0048552554  -0.0073793914   0.0052613267
        0.0092121539   0.0045619615  -0.0004952467   0.0042980331   0.0000264508
        0.0001930090  -0.0000793377  -0.0000942767   0.0000512772  -0.0002045148
       -0.0000428645   0.0000227572  -0.0000614235  -0.0000077993  -0.0000660565
        0.0001810483   0.0000356993   0.0001281199   0.0000454432   0.0000459084
       -0.0000508892   0.0000035368   0.0000095882  -0.0000692271   0.0000021452
       -0.0000091888   0.0000227624  -0.0000293904  -0.0000131700  -0.0000136278
        0.0000297270   0.0000415066   0.0000255741   0.0000009659  -0.0000178901
        0.0000326022  -0.0000057376  -0.0000186890  -0.0000224306   0.0000517174
        0.0160473546  -0.0097402747  -0.0204913392  -0.0174940445  -0.0671353499
        0.0469062978   0.0970471796  -0.2565394837  -0.0563658707  -0.1193764867
        0.5182842343   0.0250696488   0.0286027368  -0.0879453881  -0.0249835232
       -0.0097023014   0.0209563888   0.0074694631  -0.0141392761  -0.0851272190
        0.0385890569  -0.0027464427  -0.0176918243   0.0073541085   0.0012444517
        0.0047749828  -0.0071144797  -0.0000464329  -0.0057639779  -0.0018811757
       -0.0026400471   0.0045297110   0.0047871288   0.0005591546  -0.0006207791
       -0.0008592623  -0.0010165836   0.0056518526   0.0051023432   0.0013337159
       -0.0049128785  -0.0061689173  -0.0008749135  -0.0004297423   0.0000126500
       -0.0012139858   0.0006543592  -0.0002318215  -0.0045687191  -0.0017253920
        0.0005192275   0.0011121055   0.0044883724   0.0000717109  -0.0015747387
       -0.0031044754  -0.0000408712   0.0024305904   0.0010308416  -0.0000712652
       -0.0001289396  -0.0056365038  -0.0009139855   0.0049202681   0.0084723347
        0.0003521544  -0.0049054154  -0.0083229198  -0.0003148811   0.0045498608
        0.0023882645  -0.0000219868   0.0000776198  -0.0024260167  -0.0004770775
        0.0022315660   0.0024752532   0.0000724718  -0.0034380026  -0.0031401793
        0.0003189880  -0.0005973200   0.0048505379   0.0006825104   0.0003157722
        0.0001973850  -0.0009047886  -0.0005599887  -0.0024399474   0.0036384311
        0.0052636508  -0.0061131081  -0.0036875202   0.0175539230  -0.0077793147
       -0.0212477757  -0.0000968741  -0.0020955482   0.0043506136   0.0004499499
        0.0001483846   0.0000697234  -0.0000187167   0.0000489065  -0.0000732832
       -0.0000091232  -0.0001105007   0.0000540558   0.0004517258  -0.0003113473
        0.0003056318   0.0005738434   0.0002628584   0.0001292850   0.0002657214
       -0.0001655838   0.0000358756   0.0000445042  -0.0003666472  -0.0000311089
       -0.0000265379   0.0001068719  -0.0001792886  -0.0000649268  -0.0000488846
        0.0001708266   0.0002531347   0.0001519266  -0.0000408953  -0.0000659513
        0.0001996571  -0.0000508636  -0.0000230606   0.0000201633   0.0000897782
        0.0072414647  -0.0201277247  -0.0091646179  -0.0111530837   0.0064249522
        0.0154260909   0.0298991809  -0.0228337444  -0.0719214737  -0.2235837666
        0.0250696488   0.3763526027   0.1262050564  -0.0563636082  -0.1895441600
        0.0236716800   0.0469441353  -0.0439005320   0.0135776413   0.0269087954
       -0.0582347670   0.0032754824   0.0022349950   0.0022875234   0.0136761864
        0.0133130527  -0.0155208171  -0.0058491737   0.0019090610   0.0035469174
        0.0009809972  -0.0036592938  -0.0030474372  -0.0010813307  -0.0000593249
        0.0007803978   0.0012919912  -0.0041110624  -0.0035178755  -0.0024785215
        0.0040269825   0.0040319921   0.0019486203  -0.0016816784   0.0002727735
        0.0017075703  -0.0008006385  -0.0004043360   0.0046557179   0.0022320510
       -0.0003594482  -0.0011774000  -0.0049144683  -0.0002004939   0.0013752107
        0.0032556128   0.0000951463  -0.0025465860  -0.0011503331   0.0001055525
        0.0002245945   0.0059755079   0.0009346694  -0.0049689918  -0.0089061905
       -0.0004282728   0.0052453747   0.0085567674   0.0003815745  -0.0048532883
       -0.0026930139   0.0000399501  -0.0000526660   0.0026873201   0.0004955543
       -0.0022692885  -0.0025413775  -0.0001153631   0.0036144086   0.0033764248
       -0.0003042335   0.0004220682  -0.0051856022  -0.0006452121   0.0000071761
       -0.0007583881   0.0001621901   0.0038588192   0.0037631545   0.0010582738
        0.0099648150  -0.0208671493  -0.0050252518   0.0040947210  -0.0039226431
       -0.0043033215   0.0045883409   0.0039127373   0.0014336350  -0.0002801607
       -0.0000875501  -0.0002290960   0.0000097619  -0.0000278187   0.0000349460
       -0.0000396587   0.0001728040  -0.0001347373  -0.0006189435   0.0000277167
       -0.0003765862  -0.0002046771  -0.0001838926  -0.0000800883  -0.0002249072
        0.0001513965  -0.0000573641  -0.0000559743   0.0003828012   0.0000216953
        0.0000320215  -0.0000930078   0.0001656323   0.0000575793   0.0000464714
       -0.0001804117  -0.0002636744  -0.0001537164   0.0000580547   0.0000568428
       -0.0002014642   0.0000465078   0.0000187693  -0.0000486974  -0.0000357828
        0.0176874395  -0.0168419299  -0.0151509117  -0.0136246414  -0.0104494818
        0.0142525220  -0.0151897089   0.0414182534   0.0078960968  -0.1440178760
        0.0286027368   0.1262050564   0.3123484018  -0.0869783375  -0.2331871758
       -0.0808981520  -0.0225898145   0.0541127337  -0.0135149722  -0.0138571263
        0.0107241910   0.0004342839   0.0036650965   0.0000463129   0.0024117216
       -0.0000103104  -0.0008520027   0.0008377263   0.0023121823   0.0030126212
        0.0004586317  -0.0027367087  -0.0025547086   0.0004008789   0.0003313770
        0.0003033782  -0.0001164717  -0.0023944063  -0.0021883847  -0.0008060965
        0.0023044389   0.0027913018  -0.0001839319   0.0001630970  -0.0000463408
        0.0005266140  -0.0002530344   0.0001500929   0.0023495591   0.0007338972
       -0.0001329790  -0.0003852690  -0.0025935686  -0.0001762737   0.0006798815
        0.0019999649   0.0000961559  -0.0009032263  -0.0003843143   0.0000232856
       -0.0002502366   0.0027325049   0.0004851655  -0.0025625773  -0.0044169657
       -0.0002171646   0.0024806941   0.0043356238   0.0001644404  -0.0022967385
       -0.0009139880   0.0000473495  -0.0000303692   0.0009495068   0.0002057535
       -0.0013957865  -0.0013482418  -0.0000133652   0.0019522702   0.0015373428
       -0.0001972868   0.0005061427  -0.0024267730  -0.0005508933   0.0040733493
        0.0032736785   0.0031428003  -0.0003776867  -0.0005451063  -0.0000899252
        0.0041743548   0.0028668979   0.0033860609  -0.0680597624   0.0848903455
        0.0149427238  -0.0061145957  -0.0135400155   0.0132718922  -0.0001694321
        0.0000908888   0.0001790089   0.0000058171  -0.0000057216   0.0000482235
       -0.0000326109  -0.0000056109   0.0000000883  -0.0001610621   0.0001725349
       -0.0000717047  -0.0001334150  -0.0000550279  -0.0000397879  -0.0001436284
        0.0000050087  -0.0000114373  -0.0000169789   0.0001977357  -0.0000066483
        0.0000434980  -0.0000797532   0.0000989152   0.0000670073   0.0000170084
       -0.0000880473  -0.0001287121  -0.0000855748   0.0000204896   0.0000604813
       -0.0000966961   0.0000218000   0.0000151853   0.0000083870  -0.0000534227
        0.0174069474  -0.0668342490   0.0001594014  -0.0147221727  -0.0027291570
        0.0189288092   0.0200028424   0.0006622991  -0.0274408863   0.0533217953
       -0.0879453881  -0.0563636082  -0.0869783375   0.6531476134  -0.0707126998
       -0.0679176168  -0.2202200397   0.1468706184  -0.0086621579   0.0024065671
        0.0113100418   0.0000326662  -0.0004477124   0.0005147745  -0.0027235052
       -0.0021873119   0.0054910060  -0.0029947135  -0.0004516966   0.0006689341
        0.0008580674   0.0002272958  -0.0001664021  -0.0012859255   0.0002994139
        0.0001146616   0.0012111273  -0.0011270051  -0.0007607469  -0.0005089163
        0.0009201185   0.0005296706   0.0014460988  -0.0008879110  -0.0001783153
        0.0006336966  -0.0003836151  -0.0002203546   0.0007109734   0.0007026688
       -0.0001143943  -0.0004273215  -0.0007813739   0.0000554155   0.0001583832
        0.0002514440  -0.0000249933  -0.0007086770  -0.0003890296   0.0000175075
        0.0003946046   0.0012809946   0.0001483126  -0.0006138988  -0.0015344915
       -0.0000612081   0.0010414633   0.0012606669   0.0000508191  -0.0008980251
       -0.0008738401  -0.0000517475   0.0000560751   0.0007627956   0.0001149703
       -0.0002473333  -0.0002363545  -0.0000437946   0.0005035632   0.0008154918
       -0.0000147980  -0.0002653637  -0.0009716985   0.0001493395   0.0030791640
       -0.0047631064  -0.0000707787  -0.0003163086   0.0006450015   0.0004132637