$hessian                                                                        
        0.5451130602  -0.0469447718  -0.2244979847  -0.0843887378   0.0366988711
        0.0143455066   0.0206385643   0.0196654885  -0.0143059630  -0.0097665847
       -0.0264322942   0.0056596232  -0.0020524916   0.0014409358   0.0008572966
        0.0008030738   0.0000652310  -0.0007156982  -0.0004862050   0.0005443615
        0.0003430571   0.0006188699   0.0000881507   0.0001128958  -0.0004189292
       -0.0003074672  -0.0000108603   0.0003550129  -0.0002059853   0.0000055771
       -0.0006136022   0.0000989837  -0.0000992744   0.0005926373  -0.0000067095
        0.0000529399  -0.0002382423   0.0001771866   0.0000148697   0.0002324458
        0.0001697633  -0.0000475577  -0.0002584592   0.0000098551  -0.0000016675
        0.0001067886  -0.0000024802   0.0000027009  -0.0000046319   0.0000029838
        0.0000030615   0.0000296475   0.0000068563  -0.0000202623   0.0000099938
       -0.0000014017  -0.0000170322  -0.0000070726   0.0000152001  -0.0000137103
       -0.0000205049   0.0000042071   0.0000144096  -0.0000214148  -0.0000023729
        0.0000199709  -0.0000034050  -0.0000013780  -0.0000029143   0.0000296326
       -0.0000099613   0.0000178161   0.0000101054   0.0000034305   0.0000164113
       -0.0000076109  -0.0000156670   0.0000149366  -0.0000208585  -0.0000015877
       -0.0000163641  -0.0000309803   0.0000101218  -0.0000200797   0.0002329577
       -0.0001846762   0.0000288784  -0.0002531738  -0.0001750644   0.0000151684
        0.0002693572   0.0002625006  -0.0000304066  -0.0005062347   0.0000701936
        0.0000727681   0.0000698678  -0.0002548206  -0.0001372134  -0.0002270644
       -0.0013960451  -0.0002484264   0.0003957011   0.0003961653   0.0001364829
        0.0000481794  -0.0002433567  -0.0001134362   0.0001417731   0.0000457979
        0.0000562930  -0.0000797514  -0.0000468590  -0.0000080379   0.0000534729
        0.0000534237   0.0000392923  -0.0003716090   0.0000382068  -0.0000584053
       -0.0532215635   0.0316429374   0.0251019519  -0.2216419449  -0.1081224145
        0.1105622316  -0.1902784755   0.1103682485   0.0671129348  -0.0014905746
       -0.0229014072   0.0050471422  -0.0012393222   0.0039248232   0.0046045772
        0.0000422415   0.0000665932   0.0000053132   0.0000086277   0.0000185943
       -0.0000269518  -0.0000012569   0.0000078670   0.0000183178   0.0000005287
        0.0000000123   0.0000060185  -0.0000049526  -0.0000028578  -0.0000028299
       -0.0000029569  -0.0000052738   0.0000087800   0.0000056488  -0.0000089441
        0.0000057071   0.0000103464  -0.0000055588  -0.0000033445   0.0000019821
        0.0000051468  -0.0000010220  -0.0000039425   0.0000028941   0.0000028050
       -0.0000024964   0.0000043868  -0.0000091447   0.0000064124   0.0000080036
       -0.0000064146   0.0000112385   0.0000039541   0.0000027411   0.0000017614
       -0.0000064267   0.0000010492   0.0000018740   0.0000013970  -0.0000112935
        0.0000004289  -0.0000020212  -0.0000127687  -0.0000095181  -0.0000254014
        0.0000560642   0.0000149116  -0.0000193943   0.0000027389   0.0000112844
       -0.0000138149   0.0000055662  -0.0000068705  -0.0000210798  -0.0000195261
        0.0000071314   0.0000210762   0.0000021194  -0.0000019479   0.0000664518
        0.0000220721  -0.0012546051   0.0032258601   0.0047662947  -0.0009375672
       -0.0018686679   0.0012942090
       -0.0469447718   0.6446493912  -0.0605114029  -0.0322209534  -0.3199887351
        0.0639974414   0.0722819413  -0.0447931369  -0.0314493924  -0.0267437112
       -0.0398669625   0.0195216894   0.0013839882  -0.0013576019  -0.0004889762
       -0.0009138332   0.0002430210   0.0002045571   0.0002623152  -0.0005171316
       -0.0000559239  -0.0001984155   0.0000905834   0.0000062869   0.0000498400
        0.0000626503   0.0000366401  -0.0000221459   0.0000506518   0.0000202077
        0.0000685540   0.0000091431   0.0000160527  -0.0000330516   0.0000106211
       -0.0000009232   0.0000140491  -0.0000310026  -0.0000077416  -0.0000165056
       -0.0000133979   0.0000041073   0.0000410664  -0.0000027464  -0.0000002256
       -0.0000487624   0.0000015516   0.0000018037   0.0000075380  -0.0000190946
        0.0000029898  -0.0000039479   0.0000059431  -0.0000040035   0.0000038155
       -0.0000045344   0.0000081882   0.0000035440  -0.0000059991   0.0000041764
        0.0000108511  -0.0000048216   0.0000007704  -0.0000046920   0.0000067865
       -0.0000091112   0.0000096693   0.0000189640  -0.0000036929  -0.0000046020
       -0.0000056909   0.0000033632   0.0000035518   0.0000039614  -0.0000082306
        0.0000026646   0.0000055435  -0.0000041560   0.0000107629   0.0000068367
       -0.0000013581  -0.0000022882  -0.0000072946   0.0000088254  -0.0000083660
        0.0000186523  -0.0000043492   0.0000176111   0.0000265084   0.0000124724
       -0.0000634420  -0.0000337883   0.0000039510   0.0000323345  -0.0001005139
       -0.0000860161  -0.0001068946   0.0002347344   0.0001152123   0.0000872682
        0.0004893933  -0.0000712052  -0.0000617934  -0.0000954227   0.0000056630
       -0.0000109269   0.0001817446   0.0000258017  -0.0000948035  -0.0000311977
       -0.0000231633   0.0000260823  -0.0000444490  -0.0000033021   0.0000868423
       -0.0000055588  -0.0000072148  -0.0001467958  -0.0001777375  -0.0001819955
       -0.0204973263   0.0565106081   0.0025606145  -0.0386226137  -0.1373659276
        0.0342236739   0.1103984758  -0.1249947846  -0.0453708409  -0.0024398535
       -0.0150846705   0.0032907139   0.0033287672  -0.0008772070  -0.0003275358
        0.0000284854   0.0000213150   0.0000024624  -0.0000015840   0.0000041944
       -0.0000046956   0.0000006419   0.0000016205   0.0000004037  -0.0000037690
        0.0000042465   0.0000016192   0.0000017799  -0.0000012636   0.0000003957
        0.0000015487   0.0000013991  -0.0000052030  -0.0000033632   0.0000049150
       -0.0000042368  -0.0000052524   0.0000030087   0.0000014091  -0.0000012008
       -0.0000015827   0.0000026802   0.0000010909   0.0000004217  -0.0000007052
        0.0000007841  -0.0000015544   0.0000048055  -0.0000042561  -0.0000042786
        0.0000037514  -0.0000058502  -0.0000023651  -0.0000019211  -0.0000013708
        0.0000016585  -0.0000030655  -0.0000031552  -0.0000044106  -0.0000026234
        0.0000036172  -0.0000028896  -0.0000000335  -0.0000106781  -0.0000031601
        0.0000058763  -0.0000127450   0.0000097558  -0.0000158611  -0.0000120189
        0.0000013886  -0.0000036959  -0.0000001017  -0.0000030086   0.0000061700
       -0.0000187460  -0.0000303480  -0.0000357175   0.0001346798  -0.0002534848
       -0.0000929622   0.0037605295  -0.0009038013  -0.0003817600  -0.0227701028
       -0.0160396587   0.0150684660
       -0.2244979847  -0.0605114029   0.2476781228   0.0257005018   0.0249516059
       -0.0667603465  -0.0228198769  -0.0032046160   0.0142312937   0.0063395990
        0.0196927515  -0.0126598045   0.0007401347  -0.0004336076  -0.0006506072
       -0.0002088752  -0.0001512252   0.0003409252   0.0001216269  -0.0002253267
       -0.0001568632  -0.0002584466  -0.0000538144  -0.0000613506   0.0001938960
        0.0001259968   0.0000024132  -0.0002185323   0.0001624984   0.0000168429
        0.0003578227  -0.0000736678   0.0000403963  -0.0003323511   0.0000028176
       -0.0000261170   0.0001510663  -0.0001292758  -0.0000091177  -0.0001171511
       -0.0000797523   0.0000248277   0.0001524101  -0.0000043610   0.0000004119
       -0.0000459994   0.0000013289  -0.0000010048  -0.0000105186   0.0000186897
       -0.0000144340  -0.0000143696  -0.0000038207   0.0000039086  -0.0000151951
        0.0000064504   0.0000116245   0.0000083119  -0.0000137929   0.0000116174
        0.0000110548   0.0000044387  -0.0000180271   0.0000098948   0.0000032519
       -0.0000044287  -0.0000113223  -0.0000177075   0.0000136617  -0.0000153182
        0.0000045351  -0.0000018489  -0.0000150416  -0.0000056882  -0.0000120507
        0.0000092402   0.0000142389  -0.0000123645   0.0000112259  -0.0000062402
        0.0000201416   0.0000123768  -0.0000076655   0.0000044185  -0.0001146495
        0.0000852391  -0.0000161750   0.0001595585   0.0001273328  -0.0000045803
       -0.0001589285  -0.0001594463  -0.0000029442   0.0002386849  -0.0000194378
       -0.0000190619  -0.0000367808   0.0001321500   0.0000737653   0.0001815095
        0.0006407448   0.0001476867  -0.0002092846  -0.0001938539  -0.0000614192
       -0.0000194120   0.0000871023   0.0000557312  -0.0000501272  -0.0000193565
       -0.0000217999   0.0000422691   0.0000520831  -0.0000017109  -0.0000708736
       -0.0000344884  -0.0000120102   0.0002464877   0.0000277216   0.0001508028
        0.0328695668  -0.0261206261  -0.0127193244   0.0994271068   0.0724023300
       -0.1128737351   0.0671080012  -0.0453155219  -0.0633346547   0.0016598234
        0.0154977956  -0.0025723772   0.0047467874  -0.0005229867   0.0056169546
       -0.0000272811  -0.0000349404  -0.0000063719  -0.0000026209  -0.0000152846
        0.0000075474   0.0000009713   0.0000026303  -0.0000090317  -0.0000016315
       -0.0000016049  -0.0000036383  -0.0000002847   0.0000024115   0.0000029214
        0.0000024462   0.0000022480  -0.0000041687  -0.0000032825   0.0000050821
       -0.0000029638  -0.0000057176   0.0000022168   0.0000025377  -0.0000002148
       -0.0000030806  -0.0000008100   0.0000000150  -0.0000017960  -0.0000028919
        0.0000023773  -0.0000023582   0.0000050376  -0.0000036157  -0.0000047926
        0.0000034261  -0.0000059471  -0.0000013540  -0.0000022541   0.0000005418
        0.0000034616   0.0000017134  -0.0000020254   0.0000014268   0.0000060361
       -0.0000009498  -0.0000058114   0.0000057601   0.0000073681   0.0000174925
       -0.0000224274  -0.0000043739   0.0000084833   0.0000034957  -0.0000022982
        0.0000049975  -0.0000016554   0.0000043855   0.0000151663   0.0000074383
        0.0000030680   0.0000028345   0.0000158204  -0.0000480448   0.0000782322
        0.0000606213   0.0043991877  -0.0004129725   0.0057086726   0.0044300086
        0.0036038914  -0.0021922035
       -0.0843887378  -0.0322209534   0.0257005018   0.5416400397  -0.0315532830
       -0.2319717504  -0.2225239597   0.1413554891   0.0749168852  -0.0520432135
       -0.0176415910   0.0321389706   0.0009442611  -0.0033264973   0.0039300783
       -0.0011674927   0.0001651167   0.0006178647   0.0004104934  -0.0001751662
       -0.0005534867  -0.0004697915   0.0001733243  -0.0000474637   0.0001740234
        0.0001048533   0.0000486180  -0.0001681627   0.0001509922   0.0000324628
        0.0002906561  -0.0000214740  -0.0000135853  -0.0002271795   0.0000238661
       -0.0000083584   0.0000802262  -0.0000623012  -0.0000167674  -0.0000722000
       -0.0000300394  -0.0000078408  -0.0000220056   0.0000018490   0.0000012678
        0.0000820358  -0.0000027384  -0.0000004850  -0.0000112308   0.0000300053
       -0.0000020712   0.0000097648  -0.0000084444   0.0000123037   0.0000046415
        0.0000031316  -0.0000133973  -0.0000050227   0.0000077059  -0.0000060627
       -0.0000164914   0.0000051144   0.0000080379   0.0000028335  -0.0000160043
        0.0000119973  -0.0000109277  -0.0000271096   0.0000020467   0.0000086144
        0.0000071970  -0.0000120137   0.0000050997  -0.0000028327   0.0000115625
       -0.0000033332  -0.0000054607   0.0000065542  -0.0000168012  -0.0000074089
       -0.0000073785   0.0000056905   0.0000144980  -0.0000118358  -0.0000637024
        0.0000371704   0.0000106674   0.0000841924   0.0000534431   0.0000225791
       -0.0001892313  -0.0000370506   0.0000215286   0.0001673485  -0.0003502072
       -0.0000926326  -0.0002784642   0.0002399177  -0.0000654933   0.0001212017
        0.0009905687   0.0000853356  -0.0002922724  -0.0004393063  -0.0001523732
        0.0000247560   0.0002483589   0.0001528723  -0.0001232276  -0.0000610473
       -0.0000600969   0.0000584363  -0.0000572409   0.0000443777   0.0001360846
       -0.0001282877  -0.0000094978  -0.0000603329   0.0000363345  -0.0004722620
       -0.0114768726   0.0250670928  -0.0007341944   0.0212787108  -0.0246407745
       -0.0072848415  -0.0012722132   0.0232860292  -0.0024983605  -0.1889651110
       -0.0814273621   0.0998005123  -0.0006861754   0.0020313005   0.0007352409
        0.0000246745   0.0000225551   0.0000264111   0.0000019288   0.0000076126
       -0.0000033903  -0.0000024364  -0.0000032161   0.0000002618   0.0000024469
       -0.0000102848   0.0000019849  -0.0000057167   0.0000014426  -0.0000015541
       -0.0000038841  -0.0000026908   0.0000083629   0.0000053918  -0.0000092957
        0.0000071306   0.0000076439  -0.0000040359  -0.0000026789   0.0000016801
        0.0000036108  -0.0000037817  -0.0000042436   0.0000003208   0.0000027020
       -0.0000025393   0.0000030625  -0.0000065015   0.0000061263   0.0000086848
       -0.0000061045   0.0000083143   0.0000037960   0.0000033617   0.0000018038
       -0.0000035343   0.0000050464   0.0000034829   0.0000110970  -0.0000031907
       -0.0000004248   0.0000048522  -0.0000011679   0.0000016755   0.0000001630
       -0.0000030305   0.0000212373  -0.0000361521  -0.0000056518   0.0000075860
       -0.0000239458  -0.0000119007  -0.0000148605  -0.0000569170  -0.0000065973
       -0.0000069637   0.0000081899  -0.0000266130   0.0000583626   0.0000559523
        0.0004567235   0.0004325461   0.0005093075  -0.0001662150  -0.0015187890
       -0.0022813522   0.0054663770
        0.0366988711  -0.3199887351   0.0249516059  -0.0315532830   0.6420494778
       -0.0716327667   0.0723500446  -0.1714422331  -0.0202558522   0.0323539288
        0.0516663258  -0.0253076125  -0.0050280174   0.0028459409   0.0044657251
        0.0015255892  -0.0000005999  -0.0008013484  -0.0007322445   0.0014340449
       -0.0000131717   0.0006410026   0.0000752761   0.0001220516  -0.0004278260
       -0.0003161250   0.0000094585   0.0004536708  -0.0003367259  -0.0000453219
       -0.0007535306   0.0000799071  -0.0001474362   0.0007199346  -0.0000103577
        0.0000773760  -0.0003165414   0.0002796349   0.0000289110   0.0002850515
        0.0002099437  -0.0000675777  -0.0003811762   0.0000148412   0.0000000462
        0.0001871117  -0.0000048777   0.0000037177  -0.0000023524   0.0000107756
        0.0000132506   0.0000374927   0.0000021669  -0.0000094987   0.0000120620
       -0.0000000053  -0.0000265220  -0.0000064699   0.0000150651  -0.0000112178
       -0.0000204875  -0.0000019988   0.0000212785  -0.0000208086  -0.0000094914
        0.0000144890  -0.0000010671  -0.0000090639  -0.0000135360   0.0000383865
       -0.0000053609   0.0000063995   0.0000113922  -0.0000002307   0.0000262816
       -0.0000058789  -0.0000146038   0.0000133336  -0.0000202962   0.0000054672
       -0.0000232299  -0.0000302583   0.0000185447  -0.0000146391   0.0002830248
       -0.0002259273   0.0000449033  -0.0003448068  -0.0002716716   0.0000094551
        0.0004825419   0.0004552762  -0.0000043324  -0.0005479112  -0.0001063463
        0.0001708998  -0.0003011014  -0.0005131627  -0.0002631251  -0.0006209748
       -0.0021847817  -0.0003284127   0.0005607824   0.0008093375   0.0002586672
       -0.0000218025  -0.0003306027  -0.0002202978   0.0002030917   0.0001029505
        0.0000841210  -0.0000871106   0.0000002116  -0.0000137677   0.0000250703
        0.0002373621   0.0001394702  -0.0001095485   0.0001128281   0.0002621756
        0.0270540707  -0.0496157180  -0.0071691827  -0.0753164664  -0.0256045852
        0.0454625554   0.0023598805  -0.0195200342   0.0020916690  -0.0809072980
       -0.0894255836   0.0557978191   0.0226385127  -0.0202889614  -0.0089085141
       -0.0000013561   0.0000202152  -0.0000292052   0.0000233889   0.0000278623
       -0.0000232984  -0.0000077594  -0.0000023131   0.0000215553   0.0000069919
        0.0000072411   0.0000067117  -0.0000006733  -0.0000047995  -0.0000082607
       -0.0000029877  -0.0000057143   0.0000109913   0.0000055721  -0.0000067689
        0.0000051626   0.0000115621  -0.0000055329  -0.0000021629   0.0000011456
        0.0000066373   0.0000051101   0.0000005980   0.0000045939   0.0000081170
       -0.0000017337   0.0000051299  -0.0000113672   0.0000068683   0.0000061744
       -0.0000052584   0.0000127785   0.0000040956   0.0000020715   0.0000006287
       -0.0000076229  -0.0000048435   0.0000084483  -0.0000060413  -0.0000143801
       -0.0000017700   0.0000075228  -0.0000157887  -0.0000148861  -0.0000230079
        0.0000374087  -0.0000102011   0.0000019339   0.0000128343  -0.0000039887
       -0.0000056968   0.0000080245  -0.0000092105   0.0000033718  -0.0000325785
       -0.0000349543  -0.0000043405  -0.0000171470   0.0000634991   0.0000112016
       -0.0003741847   0.0003655659  -0.0002706491  -0.0004399062  -0.0017817811
        0.0000389136   0.0020620975
        0.0143455066   0.0639974414  -0.0667603465  -0.2319717504  -0.0716327667
        0.2576327997   0.0858415242  -0.0566084006  -0.0850765653   0.0237616718
       -0.0001548786  -0.0123046183   0.0038076052   0.0031573401   0.0043825782
        0.0020077466  -0.0011630486  -0.0004466647  -0.0000204619   0.0005989912
       -0.0001567418   0.0002338919  -0.0001376529  -0.0000659776  -0.0000278150
       -0.0000692277  -0.0000469076   0.0000147758  -0.0000116518  -0.0000190040
       -0.0000061086  -0.0000201614   0.0000183123  -0.0000322746  -0.0000130867
        0.0000008031   0.0000346557  -0.0000307995   0.0000074929  -0.0000302991
       -0.0000384148   0.0000174646   0.0000904448  -0.0000020273   0.0000006743
       -0.0000685387   0.0000011634   0.0000007966   0.0000041738  -0.0000126931
       -0.0000018919  -0.0000165048   0.0000022471  -0.0000027807  -0.0000104916
        0.0000005311   0.0000151530   0.0000061323  -0.0000107457   0.0000083883
        0.0000150213  -0.0000009366  -0.0000140234   0.0000075060   0.0000106748
       -0.0000112616   0.0000053711   0.0000125141  -0.0000000342  -0.0000166337
       -0.0000016734   0.0000035750  -0.0000098707   0.0000012588  -0.0000149085
        0.0000052421   0.0000092269  -0.0000088765   0.0000153778   0.0000018712
        0.0000144813   0.0000053689  -0.0000124098   0.0000110375  -0.0000320417
        0.0000358780  -0.0000161551   0.0000344516   0.0000351537  -0.0000143979
        0.0000624916  -0.0000310381  -0.0000104542   0.0000571382   0.0001607175
        0.0001358290  -0.0001789559   0.0002908412  -0.0000653822  -0.0004621796
        0.0002472142   0.0002370979  -0.0000047473  -0.0000134357   0.0000435437
        0.0000164513  -0.0000305315   0.0000462036   0.0000078500  -0.0000168412
        0.0000010217  -0.0000128913   0.0000054043  -0.0000022561  -0.0000758865
        0.0000348374  -0.0000412815  -0.0001292524   0.0000350509  -0.0001208249
       -0.0011212250  -0.0064972379  -0.0040686123   0.0009707311   0.0175613289
       -0.0019643896   0.0007995329  -0.0094297963   0.0019386786   0.1000460703
        0.0551653047  -0.0997715885  -0.0031038193   0.0027040346   0.0021575451
       -0.0000218917  -0.0000252648  -0.0000141190   0.0000005918  -0.0000096533
        0.0000069814   0.0000021492   0.0000018646  -0.0000057492  -0.0000026859
        0.0000043501  -0.0000046124   0.0000033145   0.0000004014   0.0000024638
        0.0000031422   0.0000028031  -0.0000074383  -0.0000048261   0.0000073277
       -0.0000056529  -0.0000079560   0.0000038700   0.0000021237  -0.0000016172
       -0.0000039754   0.0000016149   0.0000030083  -0.0000010437  -0.0000032168
        0.0000021756  -0.0000035340   0.0000071124  -0.0000054495  -0.0000070790
        0.0000050628  -0.0000083481  -0.0000034725  -0.0000025877  -0.0000009470
        0.0000037999  -0.0000014835  -0.0000036418  -0.0000049022   0.0000053155
        0.0000011676  -0.0000045691   0.0000041076   0.0000049814   0.0000143607
       -0.0000208799  -0.0000014763   0.0000056771   0.0000000000   0.0000089122
        0.0000134288  -0.0000048992   0.0000158915   0.0000195803   0.0000155300
        0.0000586255   0.0000065761   0.0000401117   0.0000495093  -0.0003163139
       -0.0002992576  -0.0003791365  -0.0002723911  -0.0000745245   0.0054195222
        0.0024385895   0.0046864656
        0.0206385643   0.0722819413  -0.0228198769  -0.2225239597   0.0723500446
        0.0858415242   0.5205785503  -0.0529984540  -0.2181048592  -0.1959410469
       -0.0464224476   0.0906498792  -0.0352511075   0.0037368278   0.0194593265
        0.0027463523   0.0018733764   0.0003833860  -0.0033982216   0.0038615605
        0.0003854072   0.0018920869   0.0005153045   0.0003036150  -0.0012845927
       -0.0008043881   0.0000289236   0.0013168589  -0.0009478791  -0.0001104484
       -0.0021207002   0.0003051647  -0.0003686256   0.0020572331  -0.0000203104
        0.0001936760  -0.0008819426   0.0007542758   0.0000768892   0.0007224391
        0.0005029284  -0.0001407405  -0.0008430476   0.0000249109  -0.0000030914
        0.0002900493  -0.0000033271   0.0000091719   0.0000116190  -0.0000299153
        0.0000310269   0.0000866271   0.0000415505  -0.0000500046   0.0000477801
       -0.0000185822  -0.0000299642  -0.0000054821   0.0000158904  -0.0000149542
       -0.0000225641  -0.0000166858   0.0000636998  -0.0000997925   0.0000020278
        0.0000304633   0.0000156939   0.0000344899  -0.0000294957   0.0000868411
       -0.0000481236   0.0000448833   0.0000457025   0.0000082402   0.0000307919
       -0.0000045933  -0.0000146624   0.0000199960  -0.0000218533   0.0000210995
       -0.0000669857  -0.0000975991   0.0000019811  -0.0000290648   0.0007127617
       -0.0005444292   0.0000813916  -0.0009453502  -0.0007338489   0.0000201778
        0.0012795919   0.0011785652   0.0000243690  -0.0017546154  -0.0001822049
        0.0002585752  -0.0005692578  -0.0019757357  -0.0011715557  -0.0012228863
       -0.0071222466  -0.0010029283   0.0015206728   0.0018297417   0.0006900746
        0.0001241138  -0.0011127932  -0.0005066965   0.0005300167   0.0001673386
        0.0002153391  -0.0002846128  -0.0001209349  -0.0000923093   0.0001376478
        0.0003718750   0.0003274147  -0.0008999493  -0.0000585604  -0.0001854603
        0.0207650309  -0.0661285024   0.0021012159  -0.0501226390   0.0038988768
        0.0238671159   0.0026997509   0.0003172256   0.0027515264  -0.0203973296
        0.0120976836   0.0102532511  -0.0415676179   0.0022346414   0.0042214172
        0.0000182700   0.0001224140  -0.0000468965   0.0000224852   0.0000715736
       -0.0000601925  -0.0000119601  -0.0000016942   0.0000540714   0.0000047591
        0.0000047262   0.0000147384  -0.0000074360  -0.0000135833  -0.0000056237
       -0.0000031598  -0.0000125421   0.0000139582   0.0000050426  -0.0000090412
        0.0000050749   0.0000127665  -0.0000076019  -0.0000011163   0.0000041260
        0.0000121326   0.0000082016  -0.0000056890   0.0000147731   0.0000059798
       -0.0000030965   0.0000120961  -0.0000142236   0.0000051099   0.0000101140
       -0.0000052220   0.0000138606   0.0000074373   0.0000007158   0.0000035453
       -0.0000124063  -0.0000074259   0.0000072276  -0.0000003276  -0.0000302048
       -0.0000036875   0.0000168531  -0.0000355178  -0.0000649508  -0.0000812404
        0.0001334512   0.0000144145  -0.0000334223   0.0000174062   0.0000096227
        0.0000087147   0.0000266872   0.0000139602  -0.0000016347  -0.0000504037
       -0.0000053312  -0.0000025952  -0.0000308083   0.0005136505   0.0003502556
        0.0000771783   0.0020877121   0.0004686906   0.0023989890  -0.0006764645
       -0.0000472222  -0.0001062840
        0.0196654885  -0.0447931369  -0.0032046160   0.1413554891  -0.1714422331
       -0.0566084006  -0.0529984540   0.6573389722  -0.0664191083  -0.0956627571
       -0.1309467950   0.0660906286   0.0083076198   0.0116140255  -0.0045682198
        0.0020986902  -0.0015512164  -0.0017185584   0.0009850422   0.0003007634
        0.0006119388   0.0006841024   0.0000450449   0.0001514168  -0.0006732932
       -0.0003168130   0.0001219404   0.0007023244  -0.0004901615  -0.0000110341
       -0.0011039571   0.0002594470  -0.0002263149   0.0011717355   0.0000297169
        0.0001002408  -0.0005402119   0.0004444107   0.0000185908   0.0004649930
        0.0003559569  -0.0001062926  -0.0006017871   0.0000121629  -0.0000045641
        0.0002360718  -0.0000068264   0.0000089520   0.0000061881  -0.0000123498
        0.0000226401   0.0000840445   0.0000275622  -0.0000360383   0.0000400301
       -0.0000094534  -0.0000392094  -0.0000069234   0.0000172335  -0.0000147301
       -0.0000304300  -0.0000091209   0.0000549349  -0.0000832777  -0.0000109378
        0.0000370876   0.0000146887   0.0000238227  -0.0000262194   0.0000818044
       -0.0000364171   0.0000331394   0.0000373736   0.0000013387   0.0000354245
       -0.0000038318  -0.0000141218   0.0000194548  -0.0000292615   0.0000100191
       -0.0000569503  -0.0000821340   0.0000137700  -0.0000352422   0.0004577092
       -0.0003679622   0.0000716023  -0.0005678364  -0.0004449647   0.0000616833
        0.0006038679   0.0006431803   0.0000115786  -0.0009627617  -0.0004675212
       -0.0001816333   0.0005919323  -0.0009673369  -0.0001442727   0.0000423534
       -0.0024761493  -0.0006487875   0.0013157146   0.0007806147   0.0003241650
        0.0000533237  -0.0006776280  -0.0002386807   0.0003310968   0.0001197827
        0.0001342107  -0.0002570574  -0.0002559995  -0.0000661152   0.0001362243
        0.0002156154   0.0001175316  -0.0009984355  -0.0010381037  -0.0009873568
       -0.0243628374  -0.0236547510   0.0173513472   0.0058632995   0.0032657384
       -0.0043954793   0.0006808764  -0.0057963906   0.0017385666  -0.0086906506
        0.0062765130   0.0035833407   0.0017541048  -0.2914579269   0.0479328319
        0.0000314583   0.0000607843  -0.0000233640   0.0000181200   0.0000642515
       -0.0000582595  -0.0000108120   0.0000007076   0.0000406983   0.0000050878
       -0.0000050070   0.0000197725  -0.0000125111  -0.0000075772  -0.0000062965
       -0.0000052151  -0.0000123256   0.0000204088   0.0000093542  -0.0000141163
        0.0000107289   0.0000180501  -0.0000096505  -0.0000013212   0.0000056873
        0.0000130757   0.0000044582  -0.0000097461   0.0000115520   0.0000068887
       -0.0000039228   0.0000119751  -0.0000170488   0.0000093782   0.0000141888
       -0.0000088949   0.0000192378   0.0000095367   0.0000023476   0.0000056031
       -0.0000126880  -0.0000018842   0.0000074372   0.0000077443  -0.0000329297
       -0.0000050290   0.0000097437  -0.0000307672  -0.0000233221  -0.0000885908
        0.0001257663   0.0000122597   0.0000441411  -0.0000371460   0.0000033182
        0.0000033507  -0.0000065149  -0.0000053619   0.0000005428  -0.0000259383
       -0.0000381851   0.0000572256  -0.0000437963  -0.0002973733   0.0002759102
       -0.0005598019   0.0001288950  -0.0058371923   0.0019438795   0.0000273000
        0.0008510437  -0.0002164087
       -0.0143059630  -0.0314493924   0.0142312937   0.0749168852  -0.0202558522
       -0.0850765653  -0.2181048592  -0.0664191083   0.2519063544   0.1048541593
        0.0384904117  -0.1131296873   0.0139088707   0.0006849606  -0.0069303832
       -0.0012610135  -0.0007425081   0.0010778639   0.0014374657  -0.0009701518
        0.0001474108  -0.0004452606  -0.0000431174  -0.0001622017   0.0002050456
        0.0001630034   0.0000561399  -0.0001992315   0.0001482074   0.0000454363
        0.0003032119  -0.0000151528   0.0000513730  -0.0002384431   0.0000210049
       -0.0000315259   0.0000857853  -0.0000857107  -0.0000159803  -0.0000578755
       -0.0000256654   0.0000065580   0.0000747142  -0.0000053601  -0.0000018680
       -0.0000169247   0.0000009670   0.0000004805  -0.0000050074   0.0000111365
       -0.0000107740   0.0000010882  -0.0000079517   0.0000049774   0.0000016487
        0.0000020646  -0.0000084599  -0.0000041118   0.0000080369  -0.0000041568
       -0.0000079389   0.0000044099  -0.0000000079   0.0000138192  -0.0000083672
        0.0000033684  -0.0000042205  -0.0000106297   0.0000089206  -0.0000004369
        0.0000070175  -0.0000047847   0.0000018599  -0.0000006433   0.0000075911
       -0.0000043422  -0.0000078851   0.0000042768  -0.0000077722  -0.0000038219
        0.0000009782   0.0000072151   0.0000108838  -0.0000037033  -0.0000613493
        0.0000366199   0.0000007731   0.0001029458   0.0000742743   0.0000139124
       -0.0002450366  -0.0001988698   0.0000099706   0.0002347233  -0.0000510225
       -0.0001957483  -0.0000510676   0.0005731462   0.0004739218  -0.0002785082
        0.0013150488  -0.0002337860  -0.0003203544  -0.0006558177  -0.0002544406
        0.0000237028   0.0004186951   0.0001559949  -0.0002052108  -0.0000673287
       -0.0000902959   0.0001123008  -0.0001138308   0.0000829993   0.0003109628
        0.0000805922  -0.0001734226  -0.0001573786  -0.0007071345  -0.0017192734
       -0.0066826027   0.0411621558  -0.0021735671   0.0237609829  -0.0033057200
       -0.0179615278   0.0026381278   0.0021590663   0.0060360405   0.0134182045
       -0.0077444327  -0.0056476067   0.0037954232   0.0479942183  -0.0446977112
        0.0000205500   0.0000116447   0.0000037808  -0.0000001138   0.0000009377
       -0.0000032433   0.0000007082  -0.0000000143  -0.0000027862   0.0000009093
        0.0000055636   0.0000031507   0.0000005580   0.0000020562  -0.0000027476
       -0.0000006906  -0.0000004294   0.0000036536   0.0000017827  -0.0000012169
        0.0000018318   0.0000033828  -0.0000011476  -0.0000007630  -0.0000013985
        0.0000005936   0.0000010981   0.0000015734  -0.0000020482   0.0000023774
       -0.0000003924  -0.0000004873  -0.0000031350   0.0000025517   0.0000005141
       -0.0000018374   0.0000042874   0.0000004567   0.0000008604  -0.0000005724
       -0.0000012402  -0.0000002099   0.0000024234  -0.0000050788  -0.0000034123
        0.0000004183   0.0000014945  -0.0000002935   0.0000009791  -0.0000025982