$hessian                                                                        
        0.5243492306   0.0055867990   0.0004748770  -0.0590628087   0.0073882566
        0.0099289511  -0.0005929432  -0.0136920267  -0.0149938478  -0.0095694725
        0.0192945862   0.0183948412  -0.0003102512   0.0007191706   0.0008575459
       -0.0001792210  -0.0000099611  -0.0008225599  -0.0002049392   0.0000719439
        0.0000126160  -0.0009576092   0.0001438644  -0.0008371093  -0.0027328625
       -0.0013327837   0.0026793909   0.0006296797   0.0005512120  -0.0006151438
        0.0000969826  -0.0000376637   0.0000421890   0.0000374391   0.0000167000
        0.0000035238   0.0000332166  -0.0000017723   0.0000004711  -0.0000135583
       -0.0000003944  -0.0000045278   0.0000550567   0.0000232550   0.0001077212
       -0.0000564167  -0.0000219577  -0.0001011682  -0.0000009738  -0.0000203341
       -0.0000312749   0.0000067104   0.0000099015   0.0000161145  -0.0000048733
       -0.0000024838  -0.0000097477   0.0000009999   0.0000039401   0.0000048594
       -0.0000047823  -0.0000077239  -0.0000063058   0.0000070700   0.0000063498
        0.0000247309  -0.0000045317  -0.0000137725  -0.0000104366   0.0000023733
        0.0000114539   0.0000018981  -0.0000088979  -0.0000278446   0.0000116953
        0.0000066916   0.0000014723  -0.0000019556  -0.0000004895  -0.0000184296
        0.0000030063   0.0000118148   0.0000458473   0.0000109558  -0.0000145785
       -0.0000218236  -0.0000212344   0.0000160240  -0.0000000689   0.0000141955
       -0.0000059395  -0.0000072827  -0.0000050659   0.0000049773  -0.0000034875
        0.0000039958  -0.0000013365  -0.0000000325  -0.0000035870   0.0000022600
       -0.0000021690  -0.0000010421  -0.0000037381   0.0000007631  -0.0000004141
        0.0000033047   0.0000012772   0.0000026952  -0.0000013017   0.0000014264
       -0.0000017527  -0.0000038354   0.0000007599   0.0000011830   0.0000060206
        0.0000015031   0.0000009158  -0.0000012667  -0.0000023805  -0.0000028731
        0.0000035686   0.0000097698  -0.0000064618   0.0000044195   0.0000018131
       -0.0000247367  -0.0000065557  -0.0000082849  -0.0000187969   0.0000025181
        0.0000023444   0.0000072456   0.0000010408  -0.0000121546   0.0000027288
       -0.0000093710   0.0000344822   0.0000094663   0.0000126944   0.0000004237
       -0.0000074287  -0.0000276642  -0.0000008639  -0.0000218075  -0.0005898898
       -0.0003707750   0.0002069595   0.0000492226   0.0000420055   0.0001291557
        0.0001949270  -0.0002408783   0.0000038650   0.0001565860   0.0005184618
       -0.0003827153  -0.0008631993  -0.0006115950   0.0010892246   0.0022918466
       -0.0012071063  -0.0027076874  -0.2436666921   0.0008563148   0.0926505453
       -0.0476151070  -0.0275489531   0.0152381513  -0.1594051190   0.0120157501
       -0.1187646308   0.0007736256  -0.0007381661  -0.0003444024  -0.0024067204
       -0.0005315766  -0.0037917171   0.0004496180  -0.0003634520   0.0003703153
       -0.0002851620   0.0005131858   0.0007948171   0.0000206027   0.0000119799
        0.0000114480   0.0000564725   0.0000947421   0.0001448155  -0.0001965895
        0.0000091647   0.0001610701  -0.0000193051  -0.0000062493   0.0000189880
       -0.0000050855   0.0000086265  -0.0000016203  -0.0000017535  -0.0000021301
       -0.0000028508  -0.0000015097   0.0000036564   0.0000013064   0.0000003491
        0.0000052150  -0.0000004472  -0.0000013370   0.0000031008   0.0000009909
       -0.0000047856   0.0000051992  -0.0000020287  -0.0000039792   0.0000037177
       -0.0000007057   0.0000001432   0.0000032859   0.0000042258  -0.0000029029
        0.0000020569  -0.0000010795  -0.0000027761   0.0000005571  -0.0000004506
       -0.0000031611   0.0000001851  -0.0000004827   0.0000016220   0.0000006709
       -0.0000008357   0.0000007972  -0.0000031027  -0.0000011162  -0.0000034537
        0.0000010524  -0.0000001373  -0.0000019565  -0.0000006903  -0.0000003118
       -0.0000012177  -0.0000015499  -0.0000014580   0.0000001655   0.0000006533
       -0.0000003196  -0.0000047583  -0.0000007230   0.0000027109  -0.0000014197
       -0.0000024029   0.0000056069  -0.0000037918   0.0000064358   0.0000262480
        0.0000002388  -0.0000002416   0.0000241497   0.0000165731   0.0000151122
        0.0000017800  -0.0000016665  -0.0000152358  -0.0000120228  -0.0000027493
        0.0000023495  -0.0000000397  -0.0000105060  -0.0000144683   0.0000025091
       -0.0000145938  -0.0000061033   0.0000561023   0.0000132897  -0.0000228193
       -0.0000153289  -0.0000152834   0.0000010688   0.0000055944  -0.0004034829
       -0.0011199489   0.0000132735
        0.0055867990   0.4719675985  -0.0460700387   0.0027127542  -0.1251953450
       -0.0560983273  -0.0014080023  -0.0021317669  -0.0048701496   0.0086374216
       -0.0015896470  -0.0066618410  -0.0013570685  -0.0014629113   0.0009964221
        0.0010149458  -0.0001222651  -0.0001941902  -0.0001969421   0.0004216835
        0.0000231730   0.0002098185  -0.0000472164   0.0000751165  -0.0006882593
        0.0004720276  -0.0005762095   0.0009840850  -0.0000108280  -0.0006325271
       -0.0000786518   0.0001975179   0.0000713047   0.0000271592  -0.0000383795
       -0.0000143952   0.0000774926  -0.0000046095   0.0000173957  -0.0000555233
        0.0000351424  -0.0000530286   0.0001711669   0.0000626504   0.0003564831
       -0.0001737276  -0.0000914613  -0.0003499490   0.0000259563  -0.0001029904
       -0.0000934243   0.0000187580   0.0000489010   0.0000229246  -0.0000130841
        0.0000283683  -0.0000628954   0.0000070029   0.0000426864   0.0000568529
       -0.0000298792  -0.0000687667  -0.0000203403   0.0000426387   0.0000917147
        0.0001091615   0.0000690288  -0.0000075502   0.0000801020  -0.0000481598
       -0.0000141499  -0.0001097567  -0.0000453351  -0.0000767093   0.0000340621
        0.0001065720   0.0000510227   0.0000827461  -0.0000045677  -0.0001166646
       -0.0000192071   0.0000721744   0.0001601136   0.0000800900  -0.0000374471
       -0.0000845033  -0.0000504032  -0.0000481187  -0.0000024409  -0.0000218544
        0.0000050645  -0.0000184608  -0.0000015557  -0.0000192816  -0.0000067623
       -0.0000033335   0.0000037273  -0.0000032875   0.0000037432  -0.0000080588
        0.0000025323  -0.0000269255   0.0000068005   0.0000314361  -0.0000054615
       -0.0000115358   0.0000068691   0.0000107939  -0.0000027752   0.0000024917
        0.0000029748  -0.0000066105  -0.0000065905  -0.0000002764   0.0000279148
        0.0000226453   0.0000115807   0.0000088564  -0.0000244592  -0.0000063031
        0.0000062682   0.0000059285  -0.0000052290  -0.0000042760   0.0000144814
        0.0000021147  -0.0000238389  -0.0000267896  -0.0000139750   0.0000199097
       -0.0000442981   0.0000136063  -0.0000362768   0.0000011882  -0.0000331059
       -0.0000514661   0.0001175315  -0.0000213460   0.0000089264  -0.0000174402
       -0.0000073175  -0.0000192418  -0.0000522122  -0.0000410432  -0.0036243438
       -0.0018670228   0.0012136430   0.0007960096  -0.0001355630   0.0010585377
        0.0000336300  -0.0000199460   0.0000679908   0.0007654714   0.0000836736
        0.0006193817   0.0005934843  -0.0006135505  -0.0010303981   0.0010314722
       -0.0333258282  -0.0082472802   0.0004933761  -0.0415629898   0.0006392920
       -0.0277353718  -0.2202305288   0.1043599496   0.0122815896  -0.0445797622
        0.0140653194   0.0003337746   0.0002032333   0.0003622970  -0.0000280465
        0.0004263947  -0.0001047411   0.0002399555   0.0006518941   0.0008008627
       -0.0005669337  -0.0000593093   0.0007184170  -0.0000151003  -0.0000219194
       -0.0000409934   0.0000060734  -0.0000003605  -0.0000195094  -0.0000155616
       -0.0000464924  -0.0000225489  -0.0000111217  -0.0000345110  -0.0000053264
        0.0000133874  -0.0000098550   0.0000212455   0.0000034515  -0.0000042354
        0.0000167117  -0.0000073429   0.0000004240   0.0000030455   0.0000071752
        0.0000071238  -0.0000027661  -0.0000048196   0.0000021720   0.0000038467
        0.0000116318  -0.0000152412   0.0000015554   0.0000130043   0.0000007552
       -0.0000056271  -0.0000073578   0.0000004019   0.0000123630   0.0000013083
        0.0000040516   0.0000012999  -0.0000035928   0.0000033695  -0.0000017153
       -0.0000061654  -0.0000018153  -0.0000018284   0.0000022182  -0.0000009107
        0.0000028599  -0.0000002135   0.0000009748  -0.0000049342  -0.0000000752
        0.0000045100  -0.0000007011  -0.0000019582   0.0000035243  -0.0000008691
        0.0000017812   0.0000008847  -0.0000034503   0.0000015223  -0.0000024012
        0.0000029026  -0.0000020195   0.0000045323  -0.0000021131  -0.0000006180
       -0.0000081568   0.0000023148   0.0000058756  -0.0000016305  -0.0000101078
       -0.0000086216  -0.0000001805   0.0000028367   0.0000076632  -0.0000215840
        0.0000001509   0.0000075060  -0.0000007984   0.0000019726  -0.0000057108
        0.0000021237  -0.0000152453   0.0000247559   0.0000442763   0.0000492055
       -0.0000056764  -0.0002037821   0.0001213645  -0.0000451292  -0.0001372953
       -0.0001273774  -0.0000149114  -0.0000130339  -0.0000440903  -0.0000485395
       -0.0009416407  -0.0004439811
        0.0004748770  -0.0460700387   0.4865766993   0.0056596874  -0.0505819053
       -0.1024216421  -0.0035619632  -0.0187622628  -0.0200280285   0.0092833674
       -0.0116088326  -0.0109592747   0.0001573436  -0.0001470576  -0.0000612960
        0.0001987332  -0.0002157442   0.0004849360   0.0001323631   0.0000629932
       -0.0000265584   0.0005247599  -0.0000079900   0.0004582907   0.0004468707
        0.0013018097  -0.0020571707  -0.0004726558  -0.0007414656   0.0004243982
        0.0001536399   0.0000216835   0.0001646745  -0.0000096232  -0.0000261695
        0.0000448762   0.0001027907  -0.0000547292   0.0000111610  -0.0000993870
        0.0000485154  -0.0000640147   0.0002464390   0.0000981747   0.0004895198
       -0.0002687777  -0.0001228989  -0.0004994361   0.0000204782  -0.0001416011
       -0.0001349139   0.0000274926   0.0000631872   0.0000393717  -0.0000154918
        0.0000293291  -0.0000713569   0.0000056356   0.0000469463   0.0000649713
       -0.0000367452  -0.0000718595  -0.0000306861   0.0000466904   0.0001074964
        0.0001660816   0.0000212559  -0.0000190202  -0.0000087081   0.0000022429
       -0.0000304931  -0.0000481071  -0.0000161002  -0.0000707556   0.0000306860
        0.0001312342   0.0000477955   0.0000982022   0.0000100571  -0.0001697262
       -0.0000079873   0.0001214139   0.0002703201   0.0001457902  -0.0000204608
       -0.0001626550  -0.0000835269  -0.0000955016  -0.0000138626  -0.0000370447
        0.0000124229  -0.0000409337  -0.0000040620  -0.0000228756  -0.0000149032
       -0.0000058511   0.0000039922  -0.0000059225   0.0000039680  -0.0000101665
       -0.0000024025  -0.0000354451   0.0000142016   0.0000600281  -0.0000116621
       -0.0000145182   0.0000080837   0.0000179617   0.0000026295   0.0000060003
        0.0000046646  -0.0000065390  -0.0000121749   0.0000017590   0.0000461312
        0.0000247006   0.0000195096   0.0000158079  -0.0000284072  -0.0000175132
        0.0000126213  -0.0000211303  -0.0000093621  -0.0000470591   0.0000208534
       -0.0000006281  -0.0000257450  -0.0000326891  -0.0000253751  -0.0000039825
       -0.0000225037   0.0000150773  -0.0000707811   0.0000279806  -0.0000758540
       -0.0000712158   0.0001516697  -0.0000226000   0.0000957376  -0.0000698818
        0.0000220370  -0.0000471139   0.0000492399  -0.0000274575   0.0004226067
        0.0017039911  -0.0013864562  -0.0003554280   0.0000101807  -0.0004274987
       -0.0003467839   0.0002966693   0.0000407639  -0.0001338953  -0.0007989846
        0.0001926433   0.0009638671   0.0013154109  -0.0005430720  -0.0017000757
        0.0061479356   0.0081844225   0.0920593278   0.0006598435  -0.0860070299
        0.0152479530   0.1050709111  -0.1028665946  -0.1184596617   0.0137286540
       -0.1662273320   0.0009306852   0.0000397969   0.0007704976  -0.0033077268
       -0.0006899508  -0.0038802892   0.0006439083  -0.0007620004   0.0006335804
        0.0005822343  -0.0005196243  -0.0009351132  -0.0000103481  -0.0000107397
       -0.0000475631   0.0000018174  -0.0000682589  -0.0000894369   0.0000924139
       -0.0000016388  -0.0000451892  -0.0000398949  -0.0000367479  -0.0000330552
        0.0000174372   0.0000050620   0.0000126878   0.0000060171  -0.0000060752
        0.0000192331  -0.0000132921  -0.0000003550   0.0000028262   0.0000068476
        0.0000179014  -0.0000014354  -0.0000102064   0.0000043980   0.0000083661
        0.0000139963  -0.0000159199   0.0000054406   0.0000178549  -0.0000002507
       -0.0000035601  -0.0000151519   0.0000039513   0.0000202374  -0.0000011311
        0.0000057322   0.0000068494  -0.0000057687   0.0000039623   0.0000005190
       -0.0000129631  -0.0000027153  -0.0000043326   0.0000002163  -0.0000024058
        0.0000032550  -0.0000011843   0.0000007625  -0.0000101909   0.0000027432
        0.0000024096  -0.0000031288   0.0000014974   0.0000019205  -0.0000021712
       -0.0000005143  -0.0000002535  -0.0000038502  -0.0000006025  -0.0000036445
        0.0000019195   0.0000063630   0.0000061485  -0.0000038308   0.0000041208
       -0.0000041639   0.0000045193   0.0000167819  -0.0000406067   0.0000072912
       -0.0000214761   0.0000253308   0.0000075673  -0.0000035660  -0.0000282427
        0.0000000066   0.0000150163   0.0000169426   0.0000031987  -0.0000112542
       -0.0000040195  -0.0000187649   0.0000252675   0.0000078694   0.0000175257
       -0.0000006976   0.0001070982  -0.0000820644   0.0000240754   0.0000299305
        0.0000781462  -0.0000115385  -0.0000248831  -0.0000066426   0.0003058989
        0.0006318772   0.0000980317
       -0.0590628087   0.0027127542   0.0056596874   0.4680370075   0.0086846844
       -0.0288214213  -0.1107997275   0.0040966115  -0.0519778299  -0.1644348184
        0.0005843256   0.0502366107  -0.0132731789  -0.0097605417   0.0108399059
        0.0033035645  -0.0003079981   0.0014985400  -0.0007903315   0.0005419910
       -0.0000045162   0.0002567712   0.0032997844   0.0007890671  -0.0221271758
        0.0082347333   0.0075259673   0.0008139092  -0.0038360687   0.0003321466
       -0.0004468993   0.0000964407  -0.0001742858  -0.0000733730   0.0000690373
       -0.0000929767   0.0001498767  -0.0002719899  -0.0001238156  -0.0003155910
        0.0002948039  -0.0000704622   0.0004042394  -0.0001086884   0.0004306863
       -0.0003351775  -0.0000801463  -0.0003977017  -0.0000017331   0.0000557897
       -0.0000661299   0.0000939028  -0.0000510691   0.0000803318  -0.0000037739
       -0.0000036681   0.0001150282  -0.0000275348   0.0000950198  -0.0001297095
       -0.0000831760  -0.0001349816  -0.0000800415   0.0000348054   0.0001799042
        0.0000366987   0.0001140616  -0.0001816757   0.0000440157  -0.0000224633
        0.0000012861  -0.0000744466  -0.0000957452  -0.0001261896   0.0000809271
        0.0000921504  -0.0000460786   0.0000596788   0.0000656289  -0.0001866898
        0.0000509414   0.0000341892   0.0001676950   0.0000129918   0.0000578811
       -0.0001328346  -0.0000102130   0.0000329352  -0.0000364492   0.0000421900
       -0.0000080694  -0.0000514579  -0.0000008890   0.0000391881  -0.0000264100
        0.0000159308   0.0000063855   0.0000033802  -0.0000018864   0.0000184296
       -0.0000105602   0.0000190784   0.0000081515   0.0000404226  -0.0000151120
        0.0000180085   0.0000034499   0.0000024377   0.0000198443   0.0000260008
       -0.0000104647  -0.0000086560  -0.0000109529   0.0000062004   0.0000253182
       -0.0000271509   0.0000065121   0.0000113093   0.0000275821  -0.0000256848
       -0.0000102207  -0.0000418306   0.0000052976  -0.0000826131   0.0000636080
        0.0000366958  -0.0000225269  -0.0000099664  -0.0000084545  -0.0000835204
        0.0001840331  -0.0000463281  -0.0000975566   0.0000687830  -0.0000973006
       -0.0000836626   0.0001389917  -0.0000167202   0.0002811398  -0.0001146992
        0.0001077388   0.0001269363   0.0000320333   0.0001709165   0.0040660132
        0.0153621234  -0.0093637314  -0.0021616772   0.0035652113   0.0015300224
       -0.0002325225   0.0002466838  -0.0001440340  -0.0032871076   0.0005371006
        0.0041614586  -0.0050982776  -0.0209715416   0.0139500886  -0.0659454086
       -0.0164791240   0.0147262103  -0.0049721221   0.0201960396   0.0176609997
        0.0002438684  -0.0028958378  -0.0025552924   0.0008994251  -0.0148916717
       -0.0128235091  -0.0242787417   0.0016253848  -0.0191622175   0.0000941314
       -0.0013963643  -0.0012354086   0.0006737913   0.0017343862  -0.0000227981
       -0.0003359145   0.0006165227  -0.0014513673  -0.0000600289   0.0001637233
        0.0000926020  -0.0000905174  -0.0001802369  -0.0005513110  -0.0005649494
       -0.0000675083   0.0002690044  -0.0000321987   0.0000072891  -0.0000120205
        0.0000470489   0.0000170846   0.0000165984   0.0000011598   0.0000015208
       -0.0000176379  -0.0000278602   0.0000067365   0.0000050171   0.0000083069
        0.0000520083  -0.0000026716  -0.0000279614   0.0000118835   0.0000150226
       -0.0000111062   0.0000337576   0.0000096597  -0.0000072961   0.0000088517
       -0.0000063048  -0.0000165238   0.0000044911   0.0000088816  -0.0000103848
        0.0000004887   0.0000109232  -0.0000074186  -0.0000057877  -0.0000008923
       -0.0000294782  -0.0000047315  -0.0000110848  -0.0000071570  -0.0000085317
        0.0000048719  -0.0000045014  -0.0000092532  -0.0000176841  -0.0000034946
       -0.0000049973  -0.0000090914   0.0000032746  -0.0000070425  -0.0000082311
       -0.0000082962  -0.0000020809   0.0000019157  -0.0000074201  -0.0000065119
       -0.0000016010   0.0000099944  -0.0000029556  -0.0000023650  -0.0000014723
       -0.0000062000   0.0000027492   0.0000124909  -0.0000554111  -0.0000087053
       -0.0000278902   0.0000281254   0.0000297781  -0.0000093330   0.0000074000
       -0.0000021058   0.0000239605   0.0000410559  -0.0000102684   0.0000364953
       -0.0000636170   0.0000105443  -0.0000235014  -0.0000308312  -0.0000337144
       -0.0000131255   0.0007861293  -0.0005783449  -0.0001765628  -0.0002777932
       -0.0004144312  -0.0003794783  -0.0010064633   0.0008032716  -0.0000155329
       -0.0008245534  -0.0008226279
        0.0073882566  -0.1251953450  -0.0505819053   0.0086846844   0.4595251289
       -0.0266560795  -0.0007581143  -0.0577565025   0.0028321364  -0.0039451864
       -0.0624776676   0.0065620823  -0.0200476559  -0.0004785009   0.0095518506
       -0.0002151512  -0.0022396124   0.0048403882   0.0003308544  -0.0002945180
       -0.0001956893   0.0033103438  -0.0022075265   0.0026917357   0.0191781126
        0.0008331901  -0.0080500051  -0.0038741949   0.0011714042  -0.0005982709
        0.0001235172  -0.0004341996  -0.0001085773  -0.0000145202   0.0001183985
        0.0001579446  -0.0002498596   0.0002468205   0.0001010582   0.0003288486
       -0.0002836735   0.0000492522  -0.0003112408   0.0001253174  -0.0003766965
        0.0002258907   0.0000534423   0.0002879197   0.0000086184  -0.0000903063
        0.0000614356  -0.0001037779   0.0000617274  -0.0000861292   0.0000026641
        0.0000052232  -0.0001147281   0.0000258726  -0.0000809573   0.0001318421
        0.0000839835   0.0001204480   0.0000831012  -0.0000221607  -0.0001499238
       -0.0000241080  -0.0000732212   0.0001660146   0.0000092546  -0.0000319046
       -0.0000067809   0.0000222481   0.0000685427   0.0001372435  -0.0000939773
       -0.0000654940   0.0000523405  -0.0000284698  -0.0000582787   0.0001619249
       -0.0000552600  -0.0000207190  -0.0001709821   0.0000018351  -0.0000315542
        0.0000857413   0.0000090533  -0.0000285175   0.0000304864  -0.0000253321
        0.0000071770   0.0000399090   0.0000059802  -0.0000357318   0.0000211801
       -0.0000119310  -0.0000013541  -0.0000041810   0.0000021844  -0.0000139697
        0.0000087945  -0.0000188171  -0.0000051265  -0.0000297235   0.0000026492
       -0.0000145192  -0.0000055802  -0.0000004628  -0.0000118857  -0.0000272135
        0.0000091007   0.0000159161   0.0000149354  -0.0000037652  -0.0000287139
        0.0000222479  -0.0000060033   0.0000014179  -0.0000174890   0.0000198493
        0.0000194765   0.0000255297  -0.0000066780   0.0000271095  -0.0000325865
       -0.0000321568   0.0000309117  -0.0000056247   0.0000183936   0.0000549585
       -0.0000968651   0.0000352376   0.0000567762  -0.0000533805   0.0000654384
        0.0001066404  -0.0001790186   0.0000100606  -0.0003479826   0.0000105834
       -0.0001344392   0.0000513022  -0.0001211005  -0.0000829609   0.0046210268
       -0.0219918276   0.0119294875   0.0036137839   0.0000399705   0.0015197710
        0.0004318251  -0.0007963433   0.0000360852   0.0006072612   0.0036634822
        0.0012212683  -0.0107225967  -0.0077002302   0.0086704537  -0.0120319007
       -0.1489921839   0.0573690253   0.0027157919  -0.0024722643  -0.0025799301
        0.0018944132  -0.0256288804  -0.0146783985  -0.0013492694  -0.0009160530
       -0.0024307936   0.0000252964  -0.0000371361  -0.0005773955  -0.0149114891
        0.0001126704  -0.0167995714   0.0160543803  -0.0036208427   0.0190404883
       -0.0007823654  -0.0002931068  -0.0010137376  -0.0010615865  -0.0001915910
        0.0006871318  -0.0003159683  -0.0002619681  -0.0004847577   0.0008716346
       -0.0001059814  -0.0005143534  -0.0000069263   0.0000105475  -0.0000468931
       -0.0000681994  -0.0000009466  -0.0000141095  -0.0000006398  -0.0000046845
        0.0000173224   0.0000344593  -0.0000066487  -0.0000036328  -0.0000078513
       -0.0000576483  -0.0000031536   0.0000299170  -0.0000095656  -0.0000209488
        0.0000099060  -0.0000306814  -0.0000135894   0.0000058877  -0.0000098616
        0.0000054648   0.0000198522   0.0000030191  -0.0000110354   0.0000106767
        0.0000008491  -0.0000159048   0.0000070669   0.0000066786  -0.0000007613
        0.0000297110   0.0000054358   0.0000090572   0.0000041390   0.0000089248
       -0.0000029156   0.0000002824   0.0000091413   0.0000171104   0.0000033987
        0.0000047939   0.0000057783  -0.0000024939   0.0000069699   0.0000069611
        0.0000042736   0.0000002480  -0.0000047722   0.0000033295   0.0000060674
        0.0000042295  -0.0000058985  -0.0000001844   0.0000042403   0.0000018652
        0.0000040480   0.0000050738  -0.0000160351   0.0000110535   0.0000318014
        0.0000077072   0.0000039179  -0.0000349797  -0.0000088581  -0.0000085924
        0.0000066543  -0.0000263446  -0.0000272144   0.0000214110  -0.0000209145
        0.0000404844   0.0000107213   0.0000354588  -0.0000139768  -0.0000116309
       -0.0001083204  -0.0005701954   0.0003969788  -0.0001864031  -0.0002165368
       -0.0005866811   0.0001968079   0.0000555597   0.0000214145   0.0005728677
       -0.0006274887  -0.0014575737
        0.0099289511  -0.0560983273  -0.1024216421  -0.0288214213  -0.0266560795
        0.4478105096  -0.0567039146   0.0082384932  -0.1178500320   0.0518200017
        0.0051170132  -0.0795309992   0.0163514021   0.0043589969  -0.0103615388
        0.0021909980   0.0047836446   0.0033365946   0.0000555551  -0.0000219011
       -0.0003231068   0.0011666672   0.0026606085   0.0041323733   0.0024034880
       -0.0039593715   0.0039669090   0.0005260872  -0.0005505523  -0.0035428883
       -0.0002114094  -0.0001269228  -0.0003993194  -0.0000807512   0.0002457770
       -0.0000802971  -0.0000755978  -0.0001042903  -0.0000470316  -0.0000130123
        0.0001069800   0.0000059199  -0.0000904498  -0.0001411176  -0.0003015274
        0.0001364479   0.0000767197   0.0002610777  -0.0000040708   0.0001050910
        0.0000664756   0.0000107586  -0.0000666991  -0.0000012954   0.0000178521
       -0.0000180352   0.0000698620  -0.0000160180   0.0000100571  -0.0000641896
       -0.0000058874  -0.0000022235  -0.0000236063  -0.0000111325   0.0000090833
       -0.0000752919   0.0000006377  -0.0000677235  -0.0000069459   0.0000124149
        0.0000266729   0.0000262246  -0.0000269359   0.0000349548  -0.0000116181
        0.0000061594  -0.0000141636   0.0000139541   0.0000324680  -0.0000461411
        0.0000027140   0.0000366646   0.0000437387   0.0000267706   0.0000163279
       -0.0000487594  -0.0000137379   0.0000026730  -0.0000179421   0.0000145676
       -0.0000010671  -0.0000169499   0.0000027543   0.0000049846  -0.0000082393
        0.0000050577   0.0000044610   0.0000024024   0.0000007722   0.0000043241
       -0.0000021438   0.0000004430   0.0000060243   0.0000169950  -0.0000050418
        0.0000088283   0.0000031108   0.0000028413   0.0000056659   0.0000075716
       -0.0000057259  -0.0000009302  -0.0000038600   0.0000018720   0.0000056509
       -0.0000141017   0.0000066351   0.0000102551   0.0000121921  -0.0000132659
       -0.0000110285  -0.0000039584  -0.0000030507  -0.0000497447   0.0000109411
        0.0000032690  -0.0000120703  -0.0000128217  -0.0000241734  -0.0000311508
        0.0000766082  -0.0000074880  -0.0000835627   0.0000293927  -0.0000420967
        0.0000072313  -0.0000410928   0.0000150262  -0.0000354435  -0.0000790992
       -0.0000013504   0.0002205873   0.0000172057   0.0000382009  -0.0041460486
        0.0077328005   0.0003457467   0.0015092899   0.0018977968   0.0043598368
       -0.0000028372   0.0001154334  -0.0003964939   0.0041771895   0.0017808409
        0.0040004099   0.0079574533   0.0134807893  -0.0114798977   0.0126023487
        0.0583432282  -0.0907165583   0.0039911267  -0.0115989091  -0.0103816312
       -0.0006819081   0.0087462072   0.0075225078  -0.0002467335  -0.0176937947
       -0.0167379433   0.0047631763  -0.0000520291   0.0064326467  -0.0137101016
       -0.0014863388  -0.0169485350  -0.0121314566   0.0040733135  -0.0149799495
       -0.0008183558  -0.0016435024  -0.0016457293   0.0006702512   0.0001036000
       -0.0002856971  -0.0005539770  -0.0005166769  -0.0009577706  -0.0002334029
        0.0001046185   0.0000407328  -0.0000426230  -0.0000178179  -0.0000310822
       -0.0000133198   0.0000011536   0.0000224094   0.0000030717   0.0000152931
       -0.0000072339  -0.0000080784  -0.0000005962  -0.0000089800  -0.0000023672
        0.0000139062   0.0000063906  -0.0000078369  -0.0000117611   0.0000044733
        0.0000013558   0.0000056873   0.0000085478  -0.0000067617   0.0000043558
       -0.0000002434  -0.0000089999  -0.0000049988   0.0000058348  -0.0000050717
        0.0000019926   0.0000040109  -0.0000042875  -0.0000003436   0.0000003184
       -0.0000106033  -0.0000015468  -0.0000015513   0.0000013964  -0.0000018958
        0.0000020754   0.0000010248  -0.0000041865  -0.0000023766   0.0000008311
       -0.0000015251  -0.0000020538   0.0000028409  -0.0000014445  -0.0000010185
       -0.0000013979  -0.0000024584  -0.0000023126  -0.0000004821  -0.0000023326
        0.0000008571   0.0000051360   0.0000005230   0.0000003549   0.0000029993
       -0.0000068136   0.0000012929   0.0000315539  -0.0000073694  -0.0000066177
       -0.0000011215   0.0000097705   0.0000202166   0.0000129460  -0.0000013675
        0.0000021162   0.0000123385   0.0000094914  -0.0000085073   0.0000060509
       -0.0000363250   0.0000318929  -0.0000246422  -0.0000325586  -0.0000284479
        0.0001163870  -0.0001093868  -0.0000046793  -0.0004530880  -0.0006541035
       -0.0009172775   0.0001245105   0.0005057607  -0.0002587245  -0.0015857450
       -0.0009282133  -0.0016549234
       -0.0005929432  -0.0014080023  -0.0035619632  -0.1107997275  -0.0007581143
       -0.0567039146   0.4847871661   0.0032113439  -0.0469386399  -0.0323867683
        0.0023570768  -0.0137803179  -0.0006500227   0.0003962055  -0.0010178653
        0.0002194785   0.0008304662   0.0005191427  -0.0000568666   0.0000626745
        0.0000545798  -0.0001650573   0.0009846198   0.0009684164  -0.0024839004
       -0.0033906596   0.0015700224   0.0002710878   0.0010140304  -0.0007831812
        0.0001521644  -0.0001142691   0.0000690940  -0.0000685155   0.0000185687
       -0.0000518115  -0.0000278859  -0.0000390972  -0.0000043001   0.0000332035
        0.0000070317   0.0000583887  -0.0000982059  -0.0000382654  -0.0002518048
        0.0001027197   0.0000663840   0.0002479184  -0.0000258068   0.0000800164
        0.0000518001  -0.0000109825  -0.0000342185  -0.0000090415   0.0000088509
       -0.0000261583   0.0000533292  -0.0000040441  -0.0000303248  -0.0000498034
        0.0000213766   0.0000606246   0.0000092909  -0.0000283160  -0.0000807064
       -0.0000687209  -0.0000655369   0.0000171502  -0.0000975112   0.0000553944
        0.0000139623   0.0001248293   0.0000388159   0.0000750061  -0.0000371668
       -0.0001206574  -0.0000524038  -0.0000873246  -0.0000056779   0.0001355804
        0.0000137469  -0.0000900180  -0.0002126763  -0.0001135071   0.0000195697
        0.0001261153   0.0000654068   0.0000916288   0.0000086308   0.0000399212
       -0.0000147682   0.0000265199  -0.0000018786   0.0000231642   0.0000066099
        0.0000086258  -0.0000018548   0.0000051297  -0.0000042289   0.0000107354
        0.0000012284   0.0000300867  -0.0000146765  -0.0000458377   0.0000082748
        0.0000130451  -0.0000042705  -0.0000126366  -0.0000025064  -0.0000011212
       -0.0000040927   0.0000010873   0.0000073157  -0.0000006643  -0.0000342795
       -0.0000232127  -0.0000147471  -0.0000137150   0.0000221374   0.0000123426
       -0.0000158552   0.0000174144   0.0000058541   0.0000304473  -0.0000172788
       -0.0000128884   0.0000145615   0.0000251348   0.0000073022  -0.0000015987
        0.0000333732  -0.0000111981   0.0000517501  -0.0000100705   0.0000705041
        0.0000374055  -0.0001571085   0.0000098589  -0.0000002421   0.0000397232
        0.0000215969   0.0000031701   0.0000413205  -0.0000189489   0.0002454749
       -0.0009651538  -0.0000104262  -0.0000407838   0.0000364155  -0.0000380855