 Entering Gaussian System
 *********************************************
 Gaussian 98:
 frequency output generated by the xtb code
 *********************************************
                         Standard orientation:
 --------------------------------------------------------------------
  Center     Atomic     Atomic              Coordinates (Angstroms)
  Number     Number      Type              X           Y           Z
 --------------------------------------------------------------------
    1          6             0       -5.474369    3.861138    0.411315
    2          6             0       -5.182578    2.685494   -0.539321
    3          6             0       -5.916218    2.885538   -1.877999
    4          6             0       -3.693382    2.632340   -0.815194
    5          6             0       -3.071011    3.730258   -1.394996
    6          6             0       -1.727741    3.727998   -1.718471
    7          6             0       -0.985161    2.582459   -1.499144
    8          6             0       -1.580160    1.476993   -0.930069
    9          6             0       -2.922903    1.498201   -0.541103
   10          7             0       -3.482921    0.382193    0.073802
   11          6             0       -2.648625   -0.704309    0.414389
   12          6             0       -1.609436   -0.524045    1.326742
   13          6             0       -0.793694   -1.581192    1.659841
   14          6             0       -0.997551   -2.843910    1.099090
   15          6             0       -0.097540   -3.935695    1.529592
   16          8             0        0.553836   -3.856835    2.553622
   17          6             0       -0.041993   -5.170670    0.696045
   18          6             0       -0.053090   -6.386099    1.375541
   19          6             0       -0.026316   -7.585616    0.689078
   20          6             0        0.014949   -7.585469   -0.696121
   21          6             0        0.042548   -6.385806   -1.382294
   22          6             0        0.032395   -5.170556   -0.702482
   23          6             0        0.089781   -3.935366   -1.535567
   24          8             0       -0.561438   -3.854865   -2.559556
   25          6             0        0.991678   -2.845518   -1.104244
   26          6             0        2.051022   -3.034349   -0.217022
   27          6             0        2.860332   -1.972090    0.132904
   28          6             0        2.646308   -0.709505   -0.417072
   29          7             0        3.482570    0.374923   -0.075038
   30          6             0        2.924465    1.492367    0.539032
   31          6             0        1.580854    1.475061    0.925134
   32          6             0        0.987646    2.582449    1.492334
   33          6             0        1.732930    3.726049    1.712593
   34          6             0        3.077070    3.724137    1.392785
   35          6             0        3.697730    2.624142    0.815093
   36          6             0        5.188241    2.671776    0.545312
   37          6             0        5.916701    2.864526    1.887918
   38          6             0        5.489573    3.848919   -0.400438
   39          6             0        5.684244    1.396239   -0.106543
   40          6             0        7.027980    1.286893   -0.440335
   41          6             0        7.535953    0.180787   -1.093911
   42          6             0        6.674986   -0.838227   -1.458156
   43          6             0        5.338058   -0.758403   -1.131069
   44          6             0        4.830291    0.334189   -0.421244
   45          6             0        1.607665   -0.526535   -1.329529
   46          6             0        0.790130   -1.581918   -1.663819
   47          6             0       -2.057298   -3.029961    0.211782
   48          6             0       -2.864878   -1.965929   -0.136893
   49          6             0       -4.830204    0.344854    0.422051
   50          6             0       -5.340267   -0.747744    1.130201
   51          6             0       -6.676760   -0.823737    1.459998
   52          6             0       -7.534940    0.199250    1.100355
   53          6             0       -7.024606    1.305016    0.448053
   54          6             0       -5.681326    1.410318    0.111155
   55          1             0       -5.141133    4.801315   -0.018932
   56          1             0       -4.953530    3.711317    1.355294
   57          1             0       -6.538085    3.940847    0.616609
   58          1             0       -5.593691    3.802362   -2.363659
   59          1             0       -6.990861    2.939454   -1.727739
   60          1             0       -5.703694    2.051453   -2.544161
   61          1             0       -3.649443    4.617322   -1.603783
   62          1             0       -1.272028    4.603593   -2.154509
   63          1             0        0.059327    2.549266   -1.770345
   64          1             0       -0.998463    0.580028   -0.790751
   65          1             0       -1.458131    0.448104    1.771556
   66          1             0        0.013128   -1.457781    2.367120
   67          1             0       -0.092681   -6.368712    2.454690
   68          1             0       -0.040498   -8.518042    1.233006
   69          1             0        0.028736   -8.517779   -1.240260
   70          1             0        0.082302   -6.368158   -2.461435
   71          1             0        2.257363   -4.012337    0.190375
   72          1             0        3.670483   -2.114690    0.832249
   73          1             0        0.997001    0.579613    0.785196
   74          1             0       -0.057517    2.552291    1.761255
   75          1             0        1.278601    4.603219    2.146883
   76          1             0        3.657637    4.609448    1.603031
   77          1             0        5.596214    3.781527    2.374637
   78          1             0        6.992283    2.913608    1.742699
   79          1             0        5.697074    2.029589    2.550717
   80          1             0        5.159362    4.789431    0.031370
   81          1             0        4.971830    3.704616   -1.346968
   82          1             0        6.554476    3.924134   -0.601188
   83          1             0        7.702977    2.090477   -0.187982
   84          1             0        8.586993    0.125215   -1.332179
   85          1             0        7.039707   -1.697127   -2.001317
   86          1             0        4.676576   -1.551762   -1.441689
   87          1             0        1.458194    0.446286   -1.773483
   88          1             0       -0.016341   -1.456412   -2.371132
   89          1             0       -2.265284   -4.007139   -0.196722
   90          1             0       -3.675348   -2.106431   -0.836293
   91          1             0       -4.680899   -1.544180    1.437415
   92          1             0       -7.043295   -1.682720    2.001810
   93          1             0       -8.585571    0.146940    1.341186
   94          1             0       -7.697303    2.111654    0.199307
 --------------------------------------------------------------------
     1 basis functions        1 primitive gaussians
     1 alpha electrons        1 beta electrons
 
 Harmonic frequencies (cm**-1), IR intensities (km*mol⁻¹),
 Raman scattering activities (A**4/amu), Raman depolarization ratios,
 reduced masses (AMU), force constants (mDyne/A) and normal coordinates:
                      1                      2                      3
                        a                      a                      a 
 Frequencies --     9.1418                10.7410                16.7615
 Red. masses --    10.6583                10.4573                10.6887
 Frc consts  --     0.0000                 0.0000                 0.0000
 IR Inten    --     0.1390                 0.0340                 0.2784
 Raman Activ --     0.0000                 0.0000                 0.0000
 Depolar     --     0.0000                 0.0000                 0.0000
 Atom AN      X      Y      Z        X      Y      Z        X      Y      Z
   1   6     0.10   0.02   0.10     0.17   0.02   0.21    -0.07   0.02  -0.21
   2   6    -0.00   0.02   0.08     0.11   0.08   0.11    -0.01  -0.06  -0.09
   3   6    -0.10   0.04   0.14     0.10   0.22   0.14     0.03  -0.22  -0.13
   4   6    -0.03  -0.02  -0.03     0.10   0.04   0.09     0.00  -0.04  -0.05
   5   6    -0.04  -0.04  -0.09     0.14   0.05   0.15    -0.01  -0.06  -0.10
   6   6    -0.07  -0.08  -0.19     0.14   0.01   0.13     0.00  -0.04  -0.06
   7   6    -0.08  -0.09  -0.23     0.09  -0.03   0.05     0.03  -0.01   0.04
   8   6    -0.06  -0.07  -0.17     0.06  -0.04  -0.00     0.04   0.01   0.09
   9   6    -0.03  -0.03  -0.08     0.06  -0.01   0.02     0.03  -0.01   0.04
  10   7    -0.01  -0.02  -0.03     0.03  -0.02  -0.04     0.04   0.01   0.09
  11   6     0.00  -0.01  -0.04     0.01  -0.03  -0.03     0.02  -0.01   0.07
  12   6     0.03   0.01  -0.07    -0.01  -0.05  -0.00     0.03  -0.04   0.06
  13   6     0.03   0.01  -0.07    -0.03  -0.06   0.00     0.00  -0.07   0.04
  14   6     0.02   0.00  -0.05    -0.02  -0.05  -0.02    -0.03  -0.05   0.03
  15   6     0.01   0.00  -0.04    -0.04  -0.06   0.00    -0.05  -0.08  -0.00
  16   8     0.01   0.01  -0.04    -0.08  -0.08   0.02    -0.09  -0.16   0.02
  17   6     0.02   0.00  -0.03    -0.02  -0.06  -0.00    -0.05  -0.04  -0.07
  18   6     0.02   0.00  -0.03    -0.04  -0.06  -0.00    -0.04  -0.08  -0.14
  19   6     0.02   0.00  -0.03    -0.02  -0.06  -0.00    -0.03  -0.04  -0.20
  20   6     0.02  -0.00  -0.03     0.02  -0.06  -0.00    -0.03   0.04  -0.20
  21   6     0.02  -0.00  -0.03     0.04  -0.06   0.00    -0.04   0.08  -0.14
  22   6     0.02  -0.00  -0.03     0.02  -0.06   0.00    -0.05   0.04  -0.07
  23   6     0.01  -0.00  -0.04     0.04  -0.06  -0.00    -0.05   0.09  -0.00
  24   8     0.01  -0.00  -0.04     0.08  -0.08  -0.02    -0.09   0.16   0.02
  25   6     0.02  -0.00  -0.05     0.02  -0.05   0.02    -0.03   0.05   0.03
  26   6    -0.00   0.01  -0.02    -0.01  -0.03   0.05    -0.04   0.02   0.03
  27   6    -0.01   0.02  -0.02    -0.02  -0.02   0.06    -0.02  -0.01   0.06
  28   6     0.00   0.01  -0.04    -0.01  -0.03   0.03     0.02   0.01   0.07
  29   7    -0.01   0.02  -0.03    -0.03  -0.02   0.04     0.04  -0.01   0.09
  30   6    -0.03   0.03  -0.08    -0.06  -0.00  -0.02     0.03   0.01   0.04
  31   6    -0.06   0.07  -0.17    -0.06  -0.04  -0.00     0.04  -0.01   0.09
  32   6    -0.08   0.09  -0.23    -0.09  -0.03  -0.05     0.03   0.01   0.04
  33   6    -0.07   0.08  -0.19    -0.14   0.01  -0.13     0.00   0.05  -0.06
  34   6    -0.04   0.04  -0.09    -0.14   0.05  -0.15    -0.01   0.06  -0.10
  35   6    -0.03   0.02  -0.03    -0.10   0.04  -0.09     0.01   0.04  -0.05
  36   6    -0.01  -0.02   0.08    -0.11   0.08  -0.11    -0.00   0.06  -0.09
  37   6    -0.10  -0.04   0.14    -0.10   0.22  -0.14     0.03   0.21  -0.13
  38   6     0.10  -0.02   0.11    -0.17   0.02  -0.21    -0.07  -0.02  -0.21
  39   6     0.01  -0.03   0.12    -0.06   0.06  -0.02     0.02   0.02   0.01
  40   6     0.03  -0.06   0.21    -0.06   0.08  -0.01     0.02   0.02   0.02
  41   6     0.05  -0.07   0.24    -0.01   0.06   0.07     0.04  -0.02   0.10
  42   6     0.05  -0.05   0.18     0.02  -0.00   0.14     0.06  -0.06   0.18
  43   6     0.03  -0.02   0.09     0.02  -0.03   0.12     0.06  -0.06   0.17
  44   6     0.01  -0.01   0.06    -0.02   0.00   0.04     0.04  -0.02   0.09
  45   6     0.03  -0.01  -0.07     0.01  -0.05   0.00     0.03   0.04   0.06
  46   6     0.03  -0.01  -0.07     0.03  -0.06  -0.00     0.00   0.07   0.04
  47   6    -0.00  -0.01  -0.02     0.01  -0.03  -0.05    -0.04  -0.02   0.03
  48   6    -0.01  -0.02  -0.02     0.02  -0.02  -0.06    -0.02   0.01   0.06
  49   6     0.01   0.01   0.06     0.02   0.01  -0.04     0.03   0.02   0.09
  50   6     0.03   0.02   0.09    -0.02  -0.02  -0.12     0.06   0.06   0.17
  51   6     0.05   0.05   0.18    -0.02   0.00  -0.13     0.06   0.06   0.18
  52   6     0.05   0.07   0.24     0.02   0.06  -0.06     0.04   0.02   0.10
  53   6     0.03   0.06   0.21     0.06   0.08   0.01     0.02  -0.02   0.02
  54   6     0.01   0.03   0.12     0.06   0.06   0.02     0.02  -0.02   0.01
  55   1     0.03   0.00   0.02     0.06   0.01   0.08    -0.03  -0.00  -0.09
  56   1     0.05   0.00   0.02     0.05  -0.02   0.06    -0.03   0.04  -0.05
  57   1     0.03   0.01   0.05     0.05   0.02   0.07    -0.02   0.00  -0.07
  58   1    -0.03   0.01   0.03     0.04   0.07   0.06     0.00  -0.07  -0.06
  59   1    -0.03   0.02   0.06     0.03   0.07   0.04     0.01  -0.07  -0.05
  60   1    -0.05   0.01   0.03     0.02   0.07   0.02     0.02  -0.08  -0.01
  61   1    -0.01  -0.01  -0.02     0.05   0.02   0.06    -0.01  -0.03  -0.05
  62   1    -0.02  -0.03  -0.07     0.05   0.01   0.05    -0.00  -0.02  -0.03
  63   1    -0.03  -0.03  -0.09     0.03  -0.02   0.01     0.01   0.00   0.02
  64   1    -0.02  -0.02  -0.06     0.01  -0.02  -0.02     0.02   0.01   0.05
  65   1     0.01   0.00  -0.03    -0.00  -0.02   0.00     0.01  -0.02   0.02
  66   1     0.01   0.01  -0.03    -0.01  -0.02   0.01     0.00  -0.03   0.01
  67   1     0.01   0.00  -0.01    -0.02  -0.02  -0.00    -0.01  -0.04  -0.04
  68   1     0.01   0.00  -0.01    -0.01  -0.02  -0.00    -0.01  -0.02  -0.07
  69   1     0.01  -0.00  -0.01     0.01  -0.02  -0.00    -0.01   0.02  -0.07
  70   1     0.01  -0.00  -0.01     0.02  -0.02   0.00    -0.01   0.04  -0.04
  71   1    -0.00   0.01  -0.00    -0.00  -0.01   0.02    -0.02   0.00   0.01
  72   1    -0.01   0.01   0.00    -0.01  -0.00   0.03    -0.01  -0.01   0.02
  73   1    -0.02   0.02  -0.06    -0.01  -0.02   0.02     0.02  -0.01   0.05
  74   1    -0.03   0.03  -0.09    -0.03  -0.02  -0.01     0.01  -0.00   0.02
  75   1    -0.02   0.03  -0.07    -0.05   0.01  -0.05    -0.00   0.02  -0.03
  76   1    -0.01   0.01  -0.02    -0.05   0.03  -0.06    -0.01   0.03  -0.05
  77   1    -0.03  -0.01   0.03    -0.04   0.07  -0.06     0.00   0.07  -0.06
  78   1    -0.03  -0.02   0.06    -0.03   0.07  -0.04     0.01   0.07  -0.05
  79   1    -0.05  -0.01   0.03    -0.02   0.08  -0.02     0.02   0.08  -0.01
  80   1     0.03  -0.00   0.02    -0.06   0.01  -0.08    -0.02   0.00  -0.09
  81   1     0.05  -0.00   0.02    -0.05  -0.02  -0.06    -0.03  -0.04  -0.05
  82   1     0.03  -0.02   0.05    -0.05   0.02  -0.07    -0.02  -0.00  -0.07
  83   1     0.01  -0.02   0.08    -0.03   0.04  -0.02     0.00   0.01  -0.01
  84   1     0.02  -0.03   0.09    -0.00   0.02   0.02     0.01  -0.01   0.03
  85   1     0.02  -0.01   0.06     0.02  -0.01   0.06     0.02  -0.03   0.07
  86   1     0.01   0.00   0.01     0.01  -0.02   0.05     0.02  -0.03   0.06
  87   1     0.01  -0.00  -0.03     0.01  -0.02  -0.00     0.01   0.02   0.02
  88   1     0.01  -0.01  -0.03     0.01  -0.02  -0.01     0.00   0.03   0.01
  89   1    -0.00  -0.01  -0.00     0.00  -0.01  -0.02    -0.02  -0.00   0.01
  90   1    -0.01  -0.01   0.00     0.01  -0.00  -0.03    -0.01   0.01   0.02
  91   1     0.01  -0.00   0.01    -0.01  -0.02  -0.05     0.02   0.03   0.06
  92   1     0.02   0.02   0.06    -0.02  -0.01  -0.06     0.02   0.03   0.07
  93   1     0.02   0.03   0.09     0.00   0.02  -0.02     0.01   0.01   0.03
  94   1     0.01   0.02   0.08     0.03   0.04   0.02     0.00  -0.02  -0.01
                      4                      5                      6
                        a                      a                      a 
 Frequencies --    19.8469                26.7125                35.1910
 Red. masses --    10.8764                11.7280                10.9376
 Frc consts  --     0.0000                 0.0000                 0.0000
 IR Inten    --     0.1631                 1.4144                 0.0366
 Raman Activ --     0.0000                 0.0000                 0.0000
 Depolar     --     0.0000                 0.0000                 0.0000
 Atom AN      X      Y      Z        X      Y      Z        X      Y      Z
   1   6     0.15   0.08  -0.13     0.12  -0.02   0.05     0.07   0.00   0.12
   2   6     0.10   0.02  -0.06     0.06   0.00   0.01    -0.06   0.03   0.04
   3   6     0.08  -0.04  -0.06     0.05   0.08   0.02    -0.17   0.12   0.11
   4   6     0.10  -0.03  -0.09     0.05  -0.05  -0.00    -0.09  -0.02  -0.07
   5   6     0.11  -0.07  -0.16     0.09  -0.06   0.01    -0.09  -0.04  -0.12
   6   6     0.11  -0.11  -0.18     0.09  -0.11  -0.01    -0.11  -0.07  -0.18
   7   6     0.09  -0.11  -0.12     0.04  -0.15  -0.03    -0.11  -0.07  -0.17
   8   6     0.07  -0.07  -0.07     0.00  -0.13  -0.04    -0.10  -0.05  -0.13
   9   6     0.08  -0.03  -0.06     0.01  -0.08  -0.02    -0.09  -0.03  -0.10
  10   7     0.07   0.01  -0.01    -0.03  -0.07  -0.03    -0.10  -0.03  -0.09
  11   6     0.04  -0.01   0.00    -0.05  -0.07   0.00    -0.08  -0.02  -0.08
  12   6     0.04  -0.02   0.01    -0.04  -0.07  -0.01    -0.09   0.00  -0.07
  13   6     0.02  -0.04   0.01    -0.06  -0.07   0.03    -0.09   0.01  -0.05
  14   6     0.01  -0.03   0.01    -0.08  -0.08   0.07    -0.07   0.01  -0.05
  15   6     0.00  -0.04   0.00    -0.10  -0.09   0.09    -0.07   0.02  -0.01
  16   8    -0.00  -0.05   0.01    -0.20  -0.14   0.16    -0.13   0.03   0.01
  17   6    -0.00  -0.04  -0.00     0.00  -0.04   0.03    -0.04   0.01  -0.00
  18   6    -0.00  -0.04  -0.00     0.13  -0.08  -0.04    -0.07   0.01  -0.00
  19   6    -0.00  -0.04  -0.00     0.25  -0.04  -0.10    -0.04   0.01  -0.00
  20   6     0.00  -0.04  -0.00     0.25   0.04  -0.10     0.04   0.01   0.00
  21   6     0.00  -0.04  -0.00     0.13   0.08  -0.04     0.07   0.01   0.00
  22   6     0.00  -0.04  -0.00     0.00   0.04   0.03     0.04   0.01   0.00
  23   6    -0.00  -0.04  -0.00    -0.10   0.09   0.09     0.07   0.01   0.01
  24   8     0.00  -0.05  -0.01    -0.20   0.14   0.16     0.13   0.03  -0.01
  25   6    -0.01  -0.03  -0.01    -0.08   0.08   0.07     0.07   0.01   0.05
  26   6    -0.01  -0.02  -0.01    -0.09   0.09   0.07     0.04  -0.01   0.07
  27   6    -0.02  -0.01  -0.01    -0.07   0.09   0.04     0.06  -0.02   0.08
  28   6    -0.04  -0.01  -0.00    -0.05   0.07   0.00     0.08  -0.02   0.08
  29   7    -0.07   0.01   0.01    -0.03   0.07  -0.03     0.10  -0.03   0.09
  30   6    -0.08  -0.03   0.06     0.01   0.08  -0.02     0.09  -0.03   0.10
  31   6    -0.07  -0.07   0.07     0.01   0.13  -0.04     0.10  -0.05   0.13
  32   6    -0.09  -0.11   0.13     0.04   0.15  -0.03     0.11  -0.07   0.17
  33   6    -0.11  -0.11   0.18     0.09   0.11  -0.01     0.11  -0.07   0.18
  34   6    -0.11  -0.07   0.16     0.09   0.06   0.01     0.09  -0.04   0.12
  35   6    -0.10  -0.02   0.09     0.05   0.05  -0.00     0.09  -0.02   0.07
  36   6    -0.10   0.02   0.06     0.06  -0.00   0.01     0.06   0.03  -0.04
  37   6    -0.08  -0.04   0.06     0.05  -0.08   0.02     0.17   0.12  -0.11
  38   6    -0.15   0.08   0.12     0.12   0.02   0.05    -0.07   0.00  -0.12
  39   6    -0.09   0.07  -0.02     0.01  -0.00  -0.03     0.07   0.02  -0.03
  40   6    -0.10   0.12  -0.08     0.00  -0.04  -0.05     0.05   0.06  -0.10
  41   6    -0.09   0.16  -0.14    -0.04  -0.05  -0.08     0.05   0.05  -0.09
  42   6    -0.07   0.15  -0.14    -0.08  -0.01  -0.08     0.07   0.00   0.00
  43   6    -0.06   0.10  -0.09    -0.07   0.02  -0.06     0.08  -0.03   0.07
  44   6    -0.07   0.06  -0.03    -0.03   0.03  -0.04     0.08  -0.01   0.04
  45   6    -0.04  -0.02  -0.01    -0.04   0.07  -0.01     0.09  -0.00   0.07
  46   6    -0.02  -0.03  -0.01    -0.06   0.07   0.03     0.09   0.01   0.05
  47   6     0.00  -0.02   0.01    -0.09  -0.09   0.07    -0.04  -0.01  -0.07
  48   6     0.02  -0.01   0.01    -0.07  -0.09   0.04    -0.06  -0.02  -0.08
  49   6     0.07   0.06   0.03    -0.03  -0.03  -0.04    -0.08  -0.01  -0.04
  50   6     0.07   0.10   0.09    -0.07  -0.02  -0.06    -0.08  -0.03  -0.07
  51   6     0.08   0.15   0.14    -0.08   0.01  -0.08    -0.07   0.00  -0.00
  52   6     0.09   0.16   0.14    -0.04   0.05  -0.07    -0.05   0.05   0.09
  53   6     0.10   0.12   0.07     0.00   0.04  -0.05    -0.05   0.06   0.10
  54   6     0.09   0.07   0.02     0.01   0.00  -0.03    -0.07   0.02   0.03
  55   1     0.05   0.01  -0.05     0.04  -0.00   0.02     0.02   0.00   0.04
  56   1     0.05   0.04  -0.04     0.03  -0.02   0.01     0.04  -0.02   0.02
  57   1     0.05   0.03  -0.03     0.04   0.01   0.02     0.03   0.01   0.06
  58   1     0.02  -0.02  -0.03     0.03   0.03   0.01    -0.05   0.04   0.04
  59   1     0.02  -0.00  -0.01     0.02   0.04   0.01    -0.04   0.05   0.06
  60   1     0.01  -0.02  -0.00     0.00   0.03  -0.00    -0.08   0.04   0.02
  61   1     0.04  -0.02  -0.06     0.04  -0.01   0.01    -0.03  -0.01  -0.03
  62   1     0.03  -0.04  -0.07     0.03  -0.04   0.00    -0.03  -0.02  -0.06
  63   1     0.02  -0.04  -0.04     0.01  -0.05  -0.01    -0.04  -0.03  -0.06
  64   1     0.02  -0.02  -0.01    -0.01  -0.04  -0.02    -0.03  -0.02  -0.04
  65   1     0.01  -0.01   0.00    -0.00  -0.02  -0.01    -0.03   0.00  -0.02
  66   1     0.01  -0.01   0.00    -0.01  -0.02   0.01    -0.03   0.01  -0.01
  67   1    -0.00  -0.01  -0.00     0.04  -0.04  -0.01    -0.04   0.00  -0.00
  68   1    -0.00  -0.01  -0.00     0.10  -0.02  -0.04    -0.02   0.00  -0.00
  69   1     0.00  -0.01  -0.00     0.10   0.02  -0.04     0.02   0.00   0.00
  70   1     0.00  -0.01  -0.00     0.04   0.04  -0.01     0.04   0.00   0.00
  71   1     0.00  -0.00  -0.00    -0.03   0.03   0.03     0.01  -0.00   0.02
  72   1    -0.00   0.00  -0.00    -0.02   0.03   0.01     0.01  -0.01   0.03
  73   1    -0.02  -0.02   0.01    -0.01   0.04  -0.02     0.03  -0.02   0.04
  74   1    -0.02  -0.04   0.04     0.01   0.05  -0.01     0.03  -0.03   0.06
  75   1    -0.03  -0.04   0.07     0.03   0.04   0.00     0.03  -0.02   0.06
  76   1    -0.04  -0.02   0.06     0.04   0.01   0.01     0.03  -0.01   0.03
  77   1    -0.02  -0.02   0.03     0.03  -0.03   0.01     0.05   0.04  -0.04
  78   1    -0.02  -0.00   0.01     0.02  -0.04   0.01     0.04   0.05  -0.06
  79   1    -0.01  -0.02   0.00     0.00  -0.03  -0.00     0.08   0.04  -0.02
  80   1    -0.05   0.01   0.05     0.04   0.00   0.02    -0.02   0.00  -0.04
  81   1    -0.05   0.04   0.04     0.03   0.02   0.01    -0.04  -0.02  -0.02
  82   1    -0.05   0.04   0.03     0.04  -0.01   0.02    -0.03   0.01  -0.06
  83   1    -0.03   0.04  -0.02     0.01  -0.02  -0.01     0.01   0.03  -0.05
  84   1    -0.03   0.06  -0.05    -0.01  -0.02  -0.03     0.01   0.02  -0.04
  85   1    -0.02   0.05  -0.05    -0.03  -0.00  -0.03     0.02  -0.00   0.01
  86   1    -0.02   0.02  -0.02    -0.03   0.01  -0.02     0.03  -0.02   0.04
  87   1    -0.01  -0.01  -0.00    -0.00   0.02  -0.01     0.03   0.00   0.02
  88   1    -0.01  -0.01  -0.00    -0.01   0.02   0.01     0.03   0.01   0.01
  89   1    -0.00  -0.00   0.00    -0.03  -0.03   0.03    -0.01  -0.00  -0.02
  90   1     0.00   0.00   0.00    -0.02  -0.03   0.01    -0.01  -0.01  -0.03
  91   1     0.02   0.02   0.03    -0.03  -0.01  -0.02    -0.03  -0.02  -0.04
  92   1     0.02   0.05   0.05    -0.03   0.00  -0.03    -0.02  -0.00  -0.01
  93   1     0.03   0.06   0.05    -0.01   0.02  -0.03    -0.01   0.02   0.04
  94   1     0.03   0.04   0.02     0.01   0.02  -0.01    -0.01   0.03   0.05
                      7                      8                      9
                        a                      a                      a 
 Frequencies --    38.1599                41.9861                47.9379
 Red. masses --    11.8865                10.9092                10.9674
 Frc consts  --     0.0000                 0.0000                 0.0000
 IR Inten    --     0.0288                 0.8136                 0.0108
 Raman Activ --     0.0000                 0.0000                 0.0000
 Depolar     --     0.0000                 0.0000                 0.0000
 Atom AN      X      Y      Z        X      Y      Z        X      Y      Z
   1   6     0.07  -0.00   0.03    -0.09   0.09  -0.09     0.11  -0.09   0.14
   2   6     0.02   0.01  -0.00    -0.04   0.05  -0.02     0.03  -0.02   0.02
   3   6     0.03   0.08   0.00    -0.01  -0.04  -0.05    -0.05   0.10   0.08
   4   6     0.02  -0.05   0.00    -0.03   0.07   0.01     0.02  -0.00  -0.06
   5   6     0.06  -0.08  -0.02    -0.03   0.09   0.05    -0.03  -0.00  -0.11
   6   6     0.05  -0.14  -0.02    -0.02   0.11   0.08    -0.04   0.02  -0.16
   7   6     0.01  -0.17  -0.01    -0.01   0.12   0.07    -0.01   0.04  -0.16
   8   6    -0.03  -0.13   0.02    -0.02   0.09   0.03     0.04   0.05  -0.10
   9   6    -0.02  -0.07   0.03    -0.02   0.07  -0.00     0.05   0.02  -0.07
  10   7    -0.07  -0.04   0.07    -0.03   0.05  -0.05     0.11   0.02  -0.03
  11   6    -0.08  -0.03   0.11    -0.03   0.04  -0.06     0.12   0.04  -0.03
  12   6    -0.05   0.01   0.08    -0.04   0.02  -0.04     0.14   0.05  -0.05
  13   6    -0.01   0.04   0.06    -0.05   0.02  -0.05     0.13   0.05  -0.03
  14   6     0.02   0.03   0.08    -0.04   0.02  -0.06     0.09   0.03   0.02
  15   6     0.11   0.08  -0.00    -0.04   0.03  -0.03     0.10   0.03   0.01
  16   8     0.26   0.14  -0.09    -0.10   0.06  -0.01     0.15   0.04  -0.01
  17   6     0.06   0.07   0.00     0.05   0.02  -0.01     0.06   0.03   0.00
  18   6     0.13   0.07   0.01     0.22   0.04   0.03     0.12   0.03   0.00
  19   6     0.07   0.07   0.00     0.40   0.02   0.07     0.07   0.03   0.00
  20   6    -0.07   0.07  -0.00     0.40  -0.02   0.07    -0.07   0.03  -0.00
  21   6    -0.13   0.07  -0.01     0.22  -0.04   0.03    -0.12   0.03  -0.00
  22   6    -0.06   0.07  -0.00     0.05  -0.02  -0.01    -0.06   0.03  -0.00
  23   6    -0.11   0.08   0.00    -0.04  -0.03  -0.03    -0.10   0.03  -0.01
  24   8    -0.26   0.14   0.09    -0.10  -0.06  -0.01    -0.15   0.04   0.01
  25   6    -0.02   0.03  -0.08    -0.04  -0.02  -0.06    -0.09   0.03  -0.02
  26   6     0.03  -0.02  -0.14    -0.03  -0.04  -0.08    -0.07   0.02  -0.04
  27   6     0.07  -0.05  -0.15    -0.02  -0.04  -0.07    -0.09   0.02  -0.01
  28   6     0.08  -0.03  -0.11    -0.03  -0.04  -0.06    -0.12   0.04   0.03
  29   7     0.07  -0.04  -0.07    -0.03  -0.05  -0.05    -0.11   0.02   0.03
  30   6     0.02  -0.07  -0.03    -0.03  -0.07  -0.00    -0.05   0.02   0.07
  31   6     0.03  -0.13  -0.02    -0.02  -0.09   0.03    -0.04   0.05   0.10
  32   6    -0.01  -0.16   0.01    -0.01  -0.12   0.07     0.01   0.04   0.16
  33   6    -0.05  -0.14   0.02    -0.02  -0.11   0.08     0.04   0.02   0.16
  34   6    -0.06  -0.08   0.02    -0.03  -0.09   0.05     0.03  -0.00   0.11
  35   6    -0.02  -0.05  -0.00    -0.03  -0.07   0.01    -0.02  -0.00   0.06
  36   6    -0.02   0.01   0.00    -0.04  -0.05  -0.02    -0.03  -0.02  -0.02
  37   6    -0.03   0.08  -0.00    -0.01   0.04  -0.05     0.05   0.10  -0.08
  38   6    -0.07  -0.00  -0.03    -0.09  -0.09  -0.09    -0.11  -0.09  -0.14
  39   6     0.04   0.02   0.03    -0.02  -0.07   0.02    -0.06  -0.06   0.04
  40   6     0.06   0.05   0.08    -0.01  -0.08   0.07    -0.06  -0.11   0.05
  41   6     0.11   0.06   0.11     0.01  -0.09   0.10    -0.09  -0.14   0.09
  42   6     0.15   0.04   0.07     0.01  -0.09   0.08    -0.12  -0.11   0.08
  43   6     0.13   0.01   0.01    -0.00  -0.07   0.02    -0.12  -0.06   0.06
  44   6     0.08  -0.00  -0.01    -0.02  -0.06   0.00    -0.10  -0.03   0.04
  45   6     0.05   0.01  -0.08    -0.04  -0.02  -0.04    -0.14   0.05   0.05
  46   6     0.01   0.04  -0.06    -0.05  -0.02  -0.05    -0.13   0.05   0.03
  47   6    -0.03  -0.02   0.14    -0.03   0.04  -0.08     0.07   0.02   0.04
  48   6    -0.07  -0.05   0.15    -0.02   0.04  -0.08     0.09   0.02   0.01
  49   6    -0.08  -0.00   0.01    -0.02   0.06   0.00     0.10  -0.03  -0.04
  50   6    -0.13   0.01  -0.01    -0.00   0.07   0.02     0.12  -0.06  -0.06
  51   6    -0.15   0.04  -0.07     0.01   0.08   0.08     0.12  -0.11  -0.08
  52   6    -0.11   0.06  -0.11     0.01   0.09   0.10     0.09  -0.14  -0.09
  53   6    -0.06   0.05  -0.08    -0.01   0.08   0.07     0.06  -0.11  -0.05
  54   6    -0.04   0.02  -0.03    -0.02   0.07   0.02     0.06  -0.06  -0.04
  55   1     0.03  -0.00   0.02    -0.03   0.02  -0.04     0.03  -0.02   0.06
  56   1     0.02  -0.02   0.01    -0.03   0.04  -0.02     0.05  -0.05   0.03
  57   1     0.02   0.01   0.01    -0.03   0.02  -0.03     0.03  -0.03   0.06
  58   1     0.02   0.02   0.01    -0.01  -0.02  -0.03    -0.02   0.04   0.04
  59   1     0.01   0.04   0.00    -0.00  -0.02  -0.02    -0.01   0.03   0.04
  60   1    -0.00   0.02  -0.00     0.01  -0.02  -0.00    -0.03   0.04   0.00
  61   1     0.03  -0.02  -0.01    -0.01   0.02   0.01    -0.02  -0.00  -0.03
  62   1     0.03  -0.05  -0.01    -0.01   0.04   0.03    -0.02   0.01  -0.06
  63   1     0.00  -0.06  -0.00    -0.00   0.04   0.03    -0.00   0.02  -0.06
  64   1    -0.02  -0.04   0.01    -0.00   0.03   0.00     0.02   0.02  -0.03
  65   1    -0.02   0.01   0.01    -0.01   0.00  -0.01     0.04   0.02  -0.02
  66   1     0.01   0.02   0.01    -0.02   0.00  -0.01     0.04   0.02  -0.02
  67   1     0.07   0.02   0.00     0.06   0.02   0.01     0.06   0.01   0.00
  68   1     0.04   0.02   0.00     0.16   0.01   0.03     0.03   0.01   0.00
  69   1    -0.04   0.02  -0.00     0.16  -0.01   0.03    -0.03   0.01  -0.00
  70   1    -0.07   0.02  -0.00     0.06  -0.02   0.01    -0.06   0.01  -0.00
  71   1     0.01  -0.01  -0.05    -0.01  -0.01  -0.03    -0.01   0.00  -0.03
  72   1     0.03  -0.03  -0.05    -0.01  -0.01  -0.02    -0.02   0.00  -0.01
  73   1     0.02  -0.04  -0.01    -0.00  -0.03   0.00    -0.02   0.02   0.03
  74   1    -0.00  -0.06   0.00    -0.00  -0.04   0.03     0.00   0.02   0.06
  75   1    -0.03  -0.05   0.01    -0.01  -0.04   0.03     0.02   0.01   0.06
  76   1    -0.03  -0.02   0.01    -0.01  -0.02   0.01     0.02  -0.00   0.03
  77   1    -0.02   0.02  -0.01    -0.01   0.02  -0.03     0.02   0.04  -0.04
  78   1    -0.01   0.04  -0.00    -0.00   0.02  -0.02     0.01   0.03  -0.04
  79   1     0.00   0.02   0.00     0.01   0.02  -0.00     0.03   0.04  -0.00
  80   1    -0.03  -0.00  -0.02    -0.03  -0.02  -0.04    -0.03  -0.02  -0.06
  81   1    -0.02  -0.01  -0.01    -0.03  -0.04  -0.02    -0.05  -0.05  -0.03
  82   1    -0.02   0.01  -0.01    -0.03  -0.02  -0.03    -0.03  -0.03  -0.06
  83   1     0.01   0.02   0.03    -0.00  -0.02   0.02    -0.01  -0.04   0.01
  84   1     0.04   0.03   0.04     0.00  -0.03   0.04    -0.03  -0.05   0.03
  85   1     0.06   0.02   0.02     0.01  -0.03   0.03    -0.04  -0.04   0.03
  86   1     0.05  -0.00  -0.01     0.00  -0.02   0.00    -0.04  -0.01   0.01
  87   1     0.02   0.01  -0.01    -0.01  -0.00  -0.01    -0.04   0.02   0.02
  88   1    -0.01   0.02  -0.01    -0.02  -0.00  -0.01    -0.04   0.02   0.02
  89   1    -0.01  -0.01   0.05    -0.01   0.01  -0.03     0.01   0.00   0.03
  90   1    -0.03  -0.03   0.05    -0.01   0.01  -0.02     0.02   0.00   0.01
  91   1    -0.05  -0.00   0.01     0.00   0.02   0.00     0.04  -0.01  -0.01
  92   1    -0.06   0.02  -0.02     0.01   0.03   0.03     0.04  -0.04  -0.03
  93   1    -0.04   0.03  -0.04     0.00   0.03   0.04     0.03  -0.05  -0.03
  94   1    -0.01   0.02  -0.03    -0.00   0.02   0.02     0.01  -0.04  -0.01
                     10                     11                     12
                        a                      a                      a 
 Frequencies --    52.1626                63.0476                66.7559
 Red. masses --    12.4584                10.6608                11.3976
 Frc consts  --     0.0000                 0.0000                 0.0000
 IR Inten    --     1.7945                 0.3972                 0.0556
 Raman Activ --     0.0000                 0.0000                 0.0000
 Depolar     --     0.0000                 0.0000                 0.0000
 Atom AN      X      Y      Z        X      Y      Z        X      Y      Z
   1   6     0.03   0.06  -0.07     0.07  -0.01   0.09    -0.05   0.02  -0.07
   2   6     0.02   0.01  -0.02    -0.02   0.04   0.01     0.01  -0.01  -0.01
   3   6     0.05  -0.03  -0.04    -0.10   0.14   0.06     0.04  -0.08  -0.04
   4   6     0.02  -0.05   0.01    -0.03   0.02  -0.06     0.01   0.01   0.02
   5   6     0.07  -0.08  -0.00    -0.07  -0.03  -0.20     0.03   0.06   0.14
   6   6     0.07  -0.13   0.02    -0.08  -0.03  -0.21     0.04   0.07   0.15
   7   6     0.03  -0.15   0.06    -0.03   0.03  -0.05     0.01   0.02   0.01
   8   6    -0.02  -0.12   0.08     0.01   0.09   0.10    -0.02  -0.03  -0.12
   9   6    -0.03  -0.07   0.05     0.00   0.07   0.07    -0.01  -0.04  -0.10
  10   7    -0.08  -0.04   0.06     0.03   0.12   0.18    -0.03  -0.10  -0.23
  11   6    -0.09  -0.05   0.08     0.02   0.09   0.13    -0.02  -0.07  -0.17
  12   6    -0.11  -0.04   0.09     0.00   0.02   0.16     0.00   0.00  -0.20
  13   6    -0.05  -0.01   0.04    -0.01  -0.01   0.10     0.02   0.04  -0.15
  14   6     0.03   0.01  -0.03     0.00   0.03   0.01     0.01  -0.01  -0.05
  15   6     0.13   0.06  -0.11    -0.00   0.00  -0.04     0.07   0.05  -0.03
  16   8     0.28   0.13  -0.22     0.01  -0.02  -0.05     0.15   0.14  -0.08
  17   6     0.08   0.03  -0.08     0.00   0.01  -0.04     0.06   0.03   0.00
  18   6     0.05   0.06  -0.03     0.07   0.01  -0.04     0.14   0.03   0.01
  19   6     0.02   0.03   0.01     0.16   0.00  -0.03     0.08   0.03   0.00
  20   6     0.02  -0.03   0.01     0.16  -0.00  -0.03    -0.08   0.03  -0.00
  21   6     0.05  -0.06  -0.03     0.07  -0.01  -0.04    -0.14   0.03  -0.01
  22   6     0.08  -0.03  -0.08     0.00  -0.01  -0.04    -0.06   0.03  -0.00
  23   6     0.13  -0.06  -0.11    -0.00  -0.00  -0.04    -0.07   0.05   0.03
  24   8     0.28  -0.13  -0.22     0.01   0.03  -0.05    -0.15   0.14   0.08
  25   6     0.03  -0.01  -0.03     0.00  -0.03   0.01    -0.01  -0.01   0.05
  26   6     0.03   0.01  -0.02     0.02  -0.10  -0.02     0.02  -0.08  -0.01
  27   6    -0.04   0.04   0.04     0.03  -0.13   0.04     0.03  -0.11   0.06
  28   6    -0.09   0.05   0.08     0.02  -0.09   0.13     0.02  -0.07   0.17
  29   7    -0.08   0.04   0.06     0.03  -0.13   0.19     0.03  -0.10   0.23
  30   6    -0.03   0.07   0.05     0.00  -0.07   0.07     0.01  -0.04   0.10
  31   6    -0.02   0.12   0.07     0.01  -0.09   0.10     0.02  -0.03   0.12
  32   6     0.03   0.15   0.06    -0.03  -0.03  -0.05    -0.01   0.02  -0.01
  33   6     0.07   0.13   0.02    -0.08   0.03  -0.21    -0.04   0.07  -0.15
  34   6     0.07   0.08  -0.00    -0.07   0.03  -0.20    -0.03   0.06  -0.14
  35   6     0.02   0.05   0.01    -0.03  -0.02  -0.06    -0.01   0.01  -0.02
  36   6     0.02  -0.01  -0.02    -0.02  -0.04   0.01    -0.01  -0.01   0.01
  37   6     0.05   0.03  -0.04    -0.10  -0.14   0.06    -0.04  -0.08   0.04
  38   6     0.03  -0.06  -0.07     0.07   0.01   0.10     0.05   0.02   0.07
  39   6    -0.04  -0.04   0.02    -0.02  -0.02  -0.03    -0.01  -0.00  -0.01
  40   6    -0.04  -0.11   0.02    -0.04   0.03  -0.11    -0.04   0.05  -0.12
  41   6    -0.09  -0.13   0.02    -0.04   0.04  -0.14    -0.04   0.06  -0.14
  42   6    -0.14  -0.09   0.01    -0.02   0.00  -0.06    -0.03   0.01  -0.04
  43   6    -0.13  -0.03   0.02     0.00  -0.06   0.04    -0.00  -0.05   0.09
  44   6    -0.08  -0.01   0.03     0.01  -0.06   0.06     0.01  -0.05   0.10
  45   6    -0.11   0.04   0.09     0.00  -0.02   0.16    -0.00   0.00   0.20
  46   6    -0.05   0.01   0.04    -0.01   0.01   0.10    -0.02   0.04   0.15
  47   6     0.03  -0.01  -0.02     0.02   0.10  -0.02    -0.02  -0.08   0.01
  48   6    -0.04  -0.04   0.04     0.03   0.13   0.04    -0.03  -0.11  -0.06
  49   6    -0.08   0.01   0.03     0.01   0.06   0.06    -0.01  -0.05  -0.10
  50   6    -0.13   0.03   0.02     0.00   0.05   0.04     0.00  -0.05  -0.09
  51   6    -0.14   0.09   0.01    -0.02  -0.00  -0.06     0.03   0.01   0.04
  52   6    -0.09   0.13   0.02    -0.04  -0.04  -0.14     0.04   0.06   0.14
  53   6    -0.04   0.11   0.01    -0.04  -0.03  -0.11     0.04   0.05   0.12
  54   6    -0.04   0.04   0.02    -0.02   0.02  -0.03     0.01  -0.00   0.01
  55   1     0.02   0.01  -0.03     0.03   0.00   0.04    -0.02   0.00  -0.03
  56   1     0.00   0.02  -0.02     0.03  -0.03   0.02    -0.02   0.02  -0.01
  57   1     0.01   0.03  -0.03     0.02   0.00   0.05    -0.02   0.00  -0.03
  58   1     0.02  -0.02  -0.02    -0.03   0.05   0.03     0.01  -0.03  -0.02
  59   1     0.01   0.00  -0.02    -0.02   0.05   0.04     0.01  -0.03  -0.02
  60   1     0.01  -0.02  -0.00    -0.05   0.05  -0.00     0.02  -0.03  -0.00
  61   1     0.03  -0.02  -0.01    -0.03  -0.02  -0.08     0.01   0.02   0.06
  62   1     0.03  -0.05   0.00    -0.03  -0.02  -0.10     0.02   0.03   0.07
  63   1     0.01  -0.05   0.03    -0.01   0.01  -0.01     0.00   0.01   0.00
  64   1    -0.01  -0.04   0.03     0.02   0.04   0.07    -0.01  -0.02  -0.06
  65   1    -0.04  -0.01   0.04     0.00  -0.00   0.07     0.00   0.01  -0.08
  66   1    -0.01  -0.00   0.01    -0.01  -0.02   0.04     0.01   0.03  -0.05
  67   1     0.02   0.03  -0.01     0.02   0.00  -0.01     0.07   0.01   0.00
  68   1    -0.00   0.01   0.01     0.07   0.00  -0.01     0.04   0.01   0.00
  69   1    -0.00  -0.01   0.01     0.07  -0.00  -0.01    -0.04   0.01  -0.00
  70   1     0.02  -0.03  -0.01     0.02  -0.00  -0.01    -0.07   0.01  -0.00
  71   1     0.03  -0.00  -0.02     0.01  -0.04  -0.03     0.01  -0.03  -0.03
  72   1    -0.01   0.01   0.01     0.01  -0.05   0.01     0.01  -0.05   0.01
  73   1    -0.01   0.04   0.03     0.02  -0.04   0.07     0.01  -0.02   0.06
  74   1     0.01   0.05   0.03    -0.01  -0.01  -0.01    -0.00   0.01  -0.00
  75   1     0.03   0.05   0.00    -0.03   0.02  -0.10    -0.02   0.03  -0.07
  76   1     0.03   0.02  -0.01    -0.03   0.02  -0.08    -0.01   0.02  -0.06
  77   1     0.02   0.02  -0.02    -0.03  -0.05   0.03    -0.01  -0.03   0.02
  78   1     0.01  -0.00  -0.02    -0.02  -0.05   0.04    -0.01  -0.03   0.02
  79   1     0.01   0.02  -0.00    -0.05  -0.05  -0.00    -0.02  -0.03   0.00
  80   1     0.02  -0.01  -0.03     0.03  -0.00   0.04     0.02   0.00   0.03
  81   1     0.00  -0.02  -0.02     0.03   0.03   0.02     0.02   0.02   0.01
  82   1     0.01  -0.03  -0.03     0.02  -0.00   0.05     0.02   0.00   0.03
  83   1    -0.00  -0.04   0.00    -0.01   0.01  -0.05    -0.01   0.02  -0.05
  84   1    -0.03  -0.05   0.01    -0.02   0.03  -0.06    -0.02   0.03  -0.07
  85   1    -0.05  -0.03   0.00    -0.01   0.00  -0.02    -0.01   0.00  -0.01
  86   1    -0.05   0.00   0.00     0.00  -0.03   0.03     0.00  -0.03   0.05
  87   1    -0.04   0.01   0.04     0.00   0.00   0.07    -0.00   0.01   0.08
  88   1    -0.01   0.00   0.01    -0.01   0.02   0.04    -0.01   0.03   0.05
  89   1     0.03   0.00  -0.02     0.01   0.04  -0.03    -0.01  -0.03   0.03
  90   1    -0.01  -0.01   0.01     0.01   0.05   0.01    -0.01  -0.05  -0.01
  91   1    -0.05  -0.00   0.00     0.00   0.03   0.03    -0.00  -0.03  -0.05
  92   1    -0.05   0.03   0.00    -0.01  -0.00  -0.02     0.01   0.00   0.01
  93   1    -0.03   0.05   0.01    -0.02  -0.02  -0.06     0.02   0.03   0.07
  94   1    -0.00   0.04   0.00    -0.01  -0.01  -0.05     0.01   0.02   0.05
                     13                     14                     15
                        a                      a                      a 
 Frequencies --    83.6924                87.2365               100.9073
 Red. masses --     9.8900                10.2111                11.5903
 Frc consts  --     0.0000                 0.0000                 0.0000
 IR Inten    --     0.3383                 0.9039                 0.6782
 Raman Activ --     0.0000                 0.0000                 0.0000
 Depolar     --     0.0000                 0.0000                 0.0000
 Atom AN      X      Y      Z        X      Y      Z        X      Y      Z
   1   6    -0.10  -0.04   0.04     0.02   0.05  -0.06    -0.01  -0.08   0.06
   2   6    -0.01   0.01   0.01     0.01  -0.01   0.02    -0.01  -0.01  -0.03
   3   6     0.08   0.06  -0.04    -0.02  -0.11   0.02     0.01   0.11  -0.03
   4   6     0.00   0.03   0.08     0.00  -0.01  -0.01    -0.01  -0.01  -0.01
   5   6     0.02   0.05   0.14    -0.00  -0.03  -0.05     0.01   0.00   0.04
   6   6     0.01   0.01   0.06     0.00  -0.03  -0.03     0.02  -0.00   0.06
   7   6    -0.05  -0.06  -0.11     0.02  -0.00   0.05    -0.01  -0.03  -0.00
   8   6    -0.06  -0.06  -0.13     0.02   0.01   0.07    -0.02  -0.04  -0.04
   9   6    -0.02  -0.00   0.01     0.01  -0.00   0.02    -0.02  -0.02  -0.03
  10   7    -0.01   0.03   0.09     0.00  -0.01  -0.01    -0.02  -0.01  -0.02
  11   6    -0.00   0.03   0.05     0.01   0.01   0.02    -0.03  -0.02  -0.01
  12   6     0.13   0.06  -0.11    -0.12  -0.02   0.17    -0.01  -0.00  -0.04
  13   6     0.15   0.06  -0.15    -0.11  -0.01   0.18    -0.01  -0.00  -0.03
  14   6     0.04   0.03  -0.04     0.01   0.03   0.06    -0.01  -0.01  -0.02
  15   6     0.02   0.01  -0.04     0.02   0.04   0.06    -0.04  -0.01   0.05
  16   8     0.03   0.01  -0.05    -0.08  -0.00   0.14    -0.30  -0.06   0.23
  17   6     0.00   0.00  -0.03     0.08   0.08   0.01     0.10   0.03   0.01
  18   6     0.02   0.01  -0.02     0.22   0.07   0.00     0.30   0.03   0.01
  19   6     0.05   0.00  -0.01     0.13   0.07   0.00     0.19   0.03   0.01
  20   6     0.05  -0.01  -0.01    -0.13   0.07  -0.00    -0.19   0.03  -0.01
  21   6     0.03  -0.01  -0.02    -0.22   0.07  -0.00    -0.30   0.03  -0.01
  22   6     0.00  -0.01  -0.03    -0.08   0.08  -0.01    -0.10   0.03  -0.01
  23   6     0.02  -0.01  -0.04    -0.02   0.04  -0.06     0.04  -0.01  -0.05
  24   8     0.03  -0.01  -0.05     0.08  -0.00  -0.14     0.30  -0.06  -0.23
  25   6     0.04  -0.03  -0.04    -0.01   0.03  -0.06     0.01  -0.01   0.02
  26   6    -0.07  -0.00   0.10    -0.13   0.05   0.08     0.01  -0.01   0.01
  27   6    -0.10   0.00   0.16    -0.14   0.05   0.11     0.03  -0.02  -0.01
  28   6    -0.00  -0.03   0.05    -0.02   0.01  -0.02     0.03  -0.02   0.01
  29   7    -0.01  -0.03   0.09    -0.00  -0.01   0.01     0.02  -0.01   0.01
  30   6    -0.02   0.00   0.01    -0.01  -0.00  -0.02     0.02  -0.02   0.03
  31   6    -0.06   0.06  -0.13    -0.03   0.01  -0.07     0.02  -0.04   0.04
  32   6    -0.05   0.06  -0.11    -0.02  -0.00  -0.05     0.01  -0.03   0.00
  33   6     0.01  -0.01   0.06    -0.00  -0.03   0.03    -0.02  -0.00  -0.05
  34   6     0.02  -0.05   0.14     0.00  -0.03   0.05    -0.01   0.01  -0.04
  35   6     0.00  -0.03   0.08    -0.00  -0.01   0.01     0.01  -0.01   0.01
  36   6    -0.01  -0.01   0.01    -0.01  -0.01  -0.02     0.01  -0.01   0.03
  37   6     0.08  -0.06  -0.04     0.02  -0.12  -0.02    -0.01   0.11   0.03
  38   6    -0.10   0.04   0.04    -0.02   0.05   0.06     0.01  -0.08  -0.06
  39   6    -0.03   0.01  -0.05    -0.02   0.01  -0.08     0.03  -0.03   0.08
  40   6    -0.06   0.06  -0.18    -0.04   0.04  -0.16     0.04  -0.05   0.13
  41   6    -0.05   0.04  -0.13    -0.02   0.00  -0.08     0.02   0.00   0.02
  42   6    -0.01  -0.08   0.10     0.01  -0.10   0.11    -0.02   0.09  -0.15
  43   6     0.01  -0.11   0.20     0.02  -0.11   0.16    -0.02   0.09  -0.16
  44   6    -0.01  -0.04   0.08    -0.00  -0.03   0.03     0.01   0.02  -0.02
  45   6     0.13  -0.06  -0.11     0.12  -0.02  -0.17     0.01  -0.00   0.04
  46   6     0.15  -0.06  -0.14     0.11  -0.01  -0.18     0.01  -0.00   0.03
  47   6    -0.07   0.00   0.10     0.13   0.05  -0.08    -0.01  -0.01  -0.01
  48   6    -0.11  -0.01   0.16     0.14   0.04  -0.11    -0.03  -0.02   0.00
  49   6    -0.01   0.05   0.08    -0.00  -0.03  -0.03    -0.01   0.02   0.02
  50   6     0.01   0.11   0.20    -0.02  -0.11  -0.15     0.02   0.09   0.16
  51   6    -0.01   0.08   0.10    -0.01  -0.09  -0.11     0.02   0.09   0.16
  52   6    -0.05  -0.03  -0.13     0.02   0.00   0.07    -0.02   0.00  -0.02
  53   6    -0.06  -0.06  -0.18     0.04   0.04   0.15    -0.04  -0.05  -0.13
  54   6    -0.03  -0.01  -0.05     0.02   0.01   0.08    -0.03  -0.03  -0.09
  55   1    -0.03  -0.00   0.03     0.00   0.01  -0.04     0.01  -0.02   0.04
  56   1    -0.05  -0.02   0.02     0.01   0.04  -0.02    -0.01  -0.05   0.02
  57   1    -0.03  -0.02  -0.01     0.01   0.02  -0.01    -0.00  -0.02   0.01
  58   1     0.03   0.02   0.01    -0.01  -0.04  -0.02     0.01   0.04   0.02
  59   1     0.02   0.01  -0.03    -0.01  -0.03   0.01     0.00   0.03  -0.01
  60   1     0.04   0.03  -0.02    -0.01  -0.05   0.02     0.00   0.05  -0.03
  61   1     0.02   0.03   0.07    -0.00  -0.01  -0.03     0.01   0.01   0.02
  62   1     0.01   0.01   0.03    -0.00  -0.01  -0.02     0.01   0.00   0.03
  63   1    -0.02  -0.03  -0.07     0.01   0.00   0.03    -0.00  -0.01  -0.00
  64   1    -0.03  -0.03  -0.07     0.01   0.01   0.04    -0.01  -0.01  -0.02
  65   1     0.06   0.02  -0.06    -0.06  -0.01   0.07     0.00   0.00  -0.02
  66   1     0.07   0.03  -0.08    -0.06  -0.01   0.08    -0.00   0.00  -0.01
  67   1     0.01   0.00  -0.01     0.11   0.02   0.00     0.15   0.01   0.00
  68   1     0.02   0.00  -0.00     0.07   0.02   0.00     0.10   0.01   0.00
  69   1     0.02  -0.00  -0.00    -0.07   0.02  -0.00    -0.10   0.01  -0.00
  70   1     0.01  -0.00  -0.01    -0.11   0.02  -0.00    -0.15   0.01  -0.00
  71   1    -0.03   0.00   0.05    -0.06   0.02   0.05     0.00  -0.00   0.00
  72   1    -0.06   0.01   0.08    -0.07   0.02   0.07     0.02  -0.01  -0.01
  73   1    -0.03   0.03  -0.07    -0.01   0.01  -0.04     0.01  -0.02   0.02
  74   1    -0.02   0.03  -0.07    -0.01   0.00  -0.03     0.00  -0.01   0.00
  75   1     0.01  -0.01   0.03     0.00  -0.01   0.02    -0.01   0.00  -0.03
  76   1     0.01  -0.03   0.07     0.00  -0.01   0.03    -0.01   0.01  -0.02
  77   1     0.03  -0.02   0.01     0.01  -0.04   0.02    -0.01   0.04  -0.02
  78   1     0.02  -0.01  -0.03     0.01  -0.03  -0.01    -0.00   0.03   0.01
  79   1     0.04  -0.03  -0.02     0.01  -0.05  -0.02    -0.01   0.05   0.03
  80   1    -0.03   0.00   0.03    -0.00   0.01   0.04    -0.01  -0.01  -0.04
  81   1    -0.05   0.02   0.02    -0.01   0.04   0.02     0.01  -0.05  -0.02
  82   1    -0.03   0.02  -0.01    -0.01   0.02   0.01     0.00  -0.02  -0.01
  83   1    -0.02   0.04  -0.09    -0.02   0.03  -0.08     0.02  -0.03   0.07
  84   1    -0.02   0.02  -0.07    -0.01   0.01  -0.04     0.01  -0.00   0.02
  85   1    -0.00  -0.04   0.06     0.01  -0.05   0.06    -0.01   0.05  -0.08
  86   1     0.01  -0.06   0.10     0.01  -0.05   0.08    -0.01   0.04  -0.07
  87   1     0.06  -0.02  -0.06     0.06  -0.01  -0.07    -0.00   0.00   0.02
  88   1     0.07  -0.03  -0.07     0.06  -0.01  -0.08     0.00   0.00   0.01
  89   1    -0.03  -0.00   0.05     0.06   0.02  -0.05    -0.00  -0.00  -0.00
  90   1    -0.06  -0.01   0.08     0.07   0.02  -0.07    -0.02  -0.01   0.01
  91   1     0.01   0.06   0.10    -0.01  -0.05  -0.08     0.01   0.04   0.08
  92   1    -0.00   0.04   0.06    -0.01  -0.04  -0.06     0.01   0.05   0.08
  93   1    -0.02  -0.02  -0.07     0.01   0.01   0.04    -0.01  -0.00  -0.02
  94   1    -0.02  -0.04  -0.09     0.02   0.03   0.08    -0.02  -0.03  -0.07
                     16                     17                     18
                        a                      a                      a 
 Frequencies --   102.3425               108.9263               117.5304
 Red. masses --     9.9893                10.4311                 9.7814
 Frc consts  --     0.0000                 0.0000                 0.0000
 IR Inten    --     0.5585                 0.1165                 0.0020
 Raman Activ --     0.0000                 0.0000                 0.0000
 Depolar     --     0.0000                 0.0000                 0.0000
 Atom AN      X      Y      Z        X      Y      Z        X      Y      Z
   1   6    -0.13   0.16  -0.10     0.13  -0.12   0.05     0.09   0.08  -0.04
   2   6     0.01   0.05   0.09    -0.02  -0.04  -0.09    -0.02   0.03  -0.02
   3   6     0.10  -0.18   0.01    -0.12   0.13  -0.01    -0.12  -0.01   0.03
   4   6     0.02   0.07   0.13    -0.02  -0.06  -0.14    -0.03  -0.01  -0.06
   5   6     0.01   0.04   0.08    -0.02  -0.04  -0.11    -0.07  -0.03  -0.14
   6   6    -0.03  -0.03  -0.08     0.02   0.04   0.08    -0.05   0.04  -0.03
   7   6    -0.06  -0.07  -0.19     0.08   0.10   0.23     0.02   0.12   0.16
   8   6    -0.05  -0.03  -0.09     0.06   0.07   0.14     0.04   0.12   0.18
   9   6    -0.00   0.04   0.06     0.01  -0.01  -0.04     0.00   0.04   0.07
  10   7     0.02   0.06   0.12    -0.01  -0.04  -0.10     0.00   0.02   0.06
  11   6     0.04   0.05   0.07    -0.02  -0.03  -0.04    -0.01  -0.01   0.01
  12   6     0.05   0.03   0.05    -0.12  -0.04   0.07     0.12  -0.03  -0.12
  13   6     0.06   0.02   0.02    -0.12  -0.04   0.09     0.12  -0.04  -0.17
  14   6     0.04   0.03   0.00    -0.05  -0.02   0.02     0.02  -0.07  -0.07
  15   6    -0.00  -0.01   0.01     0.02   0.02  -0.02     0.01  -0.08  -0.03
  16   8    -0.05  -0.06   0.04     0.15   0.08  -0.11    -0.05  -0.07   0.00
  17   6    -0.01  -0.00  -0.01    -0.01   0.00  -0.00     0.04  -0.09   0.00
  18   6     0.01  -0.01  -0.02    -0.03   0.01   0.00     0.15  -0.09   0.01
  19   6     0.02  -0.00  -0.03    -0.02   0.01  -0.00     0.10  -0.09   0.00
  20   6     0.02   0.00  -0.03     0.02   0.01   0.00    -0.10  -0.09  -0.00
  21   6     0.00   0.01  -0.02     0.03   0.01  -0.00    -0.15  -0.09  -0.01
  22   6    -0.01   0.00  -0.01     0.01   0.00   0.00    -0.04  -0.09  -0.00
  23   6    -0.00   0.01   0.01    -0.02   0.02   0.02    -0.00  -0.08   0.03
  24   8    -0.04   0.06   0.04    -0.15   0.08   0.11     0.05  -0.07   0.00
  25   6     0.04  -0.03   0.01     0.05  -0.02  -0.02    -0.02  -0.07   0.07
  26   6     0.04  -0.06  -0.00    -0.01  -0.02   0.05     0.08  -0.05  -0.04
  27   6     0.05  -0.07   0.02    -0.02  -0.02   0.09     0.08  -0.04  -0.08
  28   6     0.04  -0.05   0.07     0.02  -0.03   0.04     0.01  -0.01  -0.01
  29   7     0.02  -0.06   0.12     0.01  -0.04   0.11    -0.00   0.02  -0.06
  30   6    -0.00  -0.04   0.06    -0.01  -0.01   0.04    -0.00   0.04  -0.06
  31   6    -0.05   0.03  -0.09    -0.06   0.07  -0.14    -0.04   0.12  -0.17
  32   6    -0.06   0.07  -0.18    -0.07   0.10  -0.23    -0.02   0.12  -0.15
  33   6    -0.03   0.03  -0.08    -0.02   0.04  -0.08     0.04   0.04   0.03
  34   6     0.01  -0.04   0.08     0.02  -0.04   0.11     0.06  -0.03   0.13
  35   6     0.02  -0.07   0.13     0.02  -0.06   0.14     0.03  -0.01   0.06
  36   6     0.01  -0.05   0.09     0.02  -0.04   0.09     0.02   0.03   0.02
  37   6     0.10   0.18   0.01     0.12   0.13   0.01     0.11  -0.00  -0.03
  38   6    -0.12  -0.16  -0.10    -0.13  -0.12  -0.06    -0.09   0.07   0.04
  39   6     0.02  -0.07   0.15     0.02  -0.05   0.11     0.00   0.05  -0.03
  40   6     0.02  -0.07   0.12     0.00  -0.04   0.05     0.00   0.09  -0.04
  41   6    -0.03   0.02  -0.06    -0.04   0.02  -0.09     0.05   0.07   0.02
  42   6    -0.07   0.11  -0.22    -0.07   0.06  -0.15     0.08   0.02   0.10
  43   6    -0.05   0.07  -0.13    -0.05   0.03  -0.05     0.07  -0.00   0.08
  44   6     0.00  -0.02   0.05    -0.00  -0.02   0.06     0.02   0.02   0.01
  45   6     0.05  -0.03   0.05     0.12  -0.04  -0.06    -0.11  -0.03   0.11
  46   6     0.06  -0.02   0.02     0.12  -0.04  -0.09    -0.11  -0.04   0.16
  47   6     0.04   0.06  -0.00     0.01  -0.02  -0.05    -0.08  -0.06   0.05
  48   6     0.05   0.07   0.03     0.02  -0.02  -0.09    -0.09  -0.04   0.09
  49   6     0.00   0.02   0.05     0.00  -0.02  -0.06    -0.02   0.02  -0.01
  50   6    -0.05  -0.07  -0.13     0.05   0.03   0.05    -0.08  -0.00  -0.08
  51   6    -0.07  -0.10  -0.21     0.07   0.06   0.15    -0.09   0.02  -0.11
  52   6    -0.03  -0.02  -0.06     0.04   0.02   0.09    -0.05   0.08  -0.02
  53   6     0.02   0.07   0.12    -0.00  -0.04  -0.05    -0.00   0.09   0.05
  54   6     0.02   0.07   0.15    -0.02  -0.05  -0.11    -0.00   0.05   0.03
  55   1    -0.05   0.04  -0.06     0.04  -0.03   0.03    -0.02   0.02  -0.05
  56   1    -0.05   0.10  -0.01     0.06  -0.07  -0.00     0.09   0.05  -0.04
  57   1    -0.04   0.04  -0.05     0.04  -0.03   0.05     0.04   0.00   0.05
  58   1     0.02  -0.07  -0.03    -0.03   0.04   0.01    -0.00  -0.03  -0.03
  59   1     0.02  -0.07  -0.02    -0.03   0.06   0.03    -0.03   0.06   0.04
  60   1     0.06  -0.07   0.04    -0.07   0.05  -0.03    -0.09  -0.04   0.03
  61   1     0.01   0.02   0.04    -0.01  -0.02  -0.06    -0.03  -0.03  -0.08
  62   1    -0.01  -0.02  -0.04     0.01   0.02   0.03    -0.02   0.01  -0.02
  63   1    -0.03  -0.04  -0.10     0.04   0.05   0.12     0.01   0.05   0.08
  64   1    -0.02  -0.02  -0.04     0.03   0.03   0.07     0.03   0.05   0.08
  65   1     0.02   0.01   0.02    -0.05  -0.02   0.03     0.06  -0.01  -0.05
  66   1     0.02   0.00   0.00    -0.05  -0.01   0.04     0.06  -0.01  -0.08
  67   1     0.00  -0.01  -0.00    -0.02   0.00   0.00     0.07  -0.03   0.00
  68   1     0.01  -0.00  -0.01    -0.01   0.00  -0.00     0.05  -0.03   0.00
  69   1     0.01   0.00  -0.01     0.01   0.00   0.00    -0.05  -0.03  -0.00
  70   1    -0.00   0.01  -0.00     0.02   0.00  -0.00    -0.07  -0.03  -0.00
  71   1     0.01  -0.02  -0.01    -0.01  -0.00   0.02     0.04  -0.02  -0.03
  72   1     0.02  -0.03   0.00    -0.02  -0.00   0.04     0.04  -0.01  -0.05
  73   1    -0.02   0.02  -0.04    -0.03   0.03  -0.07    -0.03   0.05  -0.08
  74   1    -0.03   0.04  -0.10    -0.04   0.05  -0.12    -0.01   0.05  -0.08
  75   1    -0.01   0.02  -0.04    -0.01   0.02  -0.03     0.02   0.01   0.02
  76   1     0.01  -0.02   0.04     0.01  -0.02   0.06     0.03  -0.02   0.07
  77   1     0.02   0.07  -0.03     0.03   0.05  -0.01     0.00  -0.03   0.03
  78   1     0.02   0.07  -0.02     0.03   0.06  -0.03     0.03   0.05  -0.04
  79   1     0.06   0.07   0.04     0.07   0.05   0.03     0.09  -0.03  -0.03
  80   1    -0.05  -0.03  -0.06    -0.04  -0.03  -0.03     0.02   0.02   0.05
  81   1    -0.05  -0.10  -0.01    -0.06  -0.07   0.00    -0.08   0.05   0.04
  82   1    -0.04  -0.04  -0.05    -0.04  -0.03  -0.05    -0.04   0.00  -0.05
  83   1     0.01  -0.03   0.06     0.01  -0.02   0.03    -0.01   0.04  -0.02
  84   1    -0.01   0.01  -0.03    -0.02   0.01  -0.04     0.01   0.03   0.01
  85   1    -0.03   0.06  -0.11    -0.03   0.04  -0.08     0.03  -0.00   0.05
  86   1    -0.02   0.04  -0.06    -0.02   0.02  -0.02     0.03  -0.01   0.03
  87   1     0.02  -0.01   0.02     0.05  -0.02  -0.03    -0.06  -0.01   0.04
  88   1     0.02  -0.00   0.00     0.05  -0.01  -0.04    -0.06  -0.01   0.07
  89   1     0.01   0.02  -0.01     0.01  -0.00  -0.02    -0.04  -0.02   0.03
  90   1     0.02   0.02   0.00     0.02  -0.00  -0.04    -0.04  -0.02   0.05
  91   1    -0.02  -0.04  -0.06     0.02   0.02   0.02    -0.03  -0.01  -0.03
  92   1    -0.03  -0.06  -0.11     0.03   0.04   0.08    -0.03  -0.00  -0.05
  93   1    -0.01  -0.01  -0.03     0.02   0.01   0.04    -0.01   0.03  -0.00
  94   1     0.01   0.03   0.06    -0.01  -0.02  -0.03     0.01   0.04   0.03
                     19                     20                     21
                        a                      a                      a 
 Frequencies --   119.8202               127.3370               127.9482
 Red. masses --     8.9153                 3.2452                 3.5325
 Frc consts  --     0.0000                 0.0000                 0.0000
 IR Inten    --     0.9381                 0.0778                 1.3455
 Raman Activ --     0.0000                 0.0000                 0.0000
 Depolar     --     0.0000                 0.0000                 0.0000
 Atom AN      X      Y      Z        X      Y      Z        X      Y      Z
   1   6    -0.10  -0.05   0.04    -0.09  -0.04   0.04     0.07   0.05  -0.04
   2   6     0.01   0.00   0.01    -0.01   0.01  -0.00     0.01   0.00   0.01
   3   6     0.11   0.05  -0.04     0.08   0.06  -0.04    -0.06  -0.05   0.03
   4   6     0.03   0.03   0.06    -0.00   0.02   0.03     0.00  -0.01  -0.02
   5   6     0.05   0.04   0.10    -0.03  -0.01  -0.07     0.04   0.03   0.08
   6   6     0.03  -0.03  -0.00    -0.04  -0.01  -0.10     0.04   0.01   0.08
   7   6    -0.02  -0.08  -0.15    -0.01   0.04   0.00     0.00  -0.04  -0.03
   8   6    -0.03  -0.07  -0.13     0.02   0.06   0.08    -0.02  -0.05  -0.09
   9   6     0.00  -0.01  -0.04     0.01   0.03   0.05    -0.01  -0.02  -0.05
  10   7     0.01   0.01  -0.03     0.01   0.01   0.02    -0.00   0.01  -0.00
  11   6    -0.00   0.01  -0.01    -0.00  -0.00   0.00    -0.00   0.00  -0.00
  12   6    -0.15  -0.05   0.16     0.01  -0.03  -0.00    -0.06  -0.01   0.06
  13   6    -0.18  -0.07   0.19     0.01  -0.04  -0.02    -0.07  -0.02   0.06
  14   6    -0.07  -0.01   0.03    -0.00  -0.04  -0.02    -0.03   0.00  -0.00
  15   6    -0.03  -0.00  -0.00     0.01  -0.03  -0.02    -0.02   0.01  -0.01
  16   8    -0.01   0.01  -0.02     0.04  -0.01  -0.05    -0.02   0.01  -0.01
  17   6    -0.02   0.00  -0.00     0.01  -0.05  -0.00    -0.01   0.01  -0.01
  18   6    -0.01   0.01   0.01     0.06  -0.05   0.00    -0.01   0.01   0.01
  19   6     0.00   0.00   0.02     0.04  -0.05   0.00     0.00   0.01   0.02
  20   6    -0.00  -0.01   0.02    -0.04  -0.05  -0.00     0.00  -0.01   0.02
  21   6    -0.02  -0.02   0.01    -0.06  -0.05  -0.00    -0.01  -0.01   0.01
  22   6    -0.02  -0.01  -0.00    -0.01  -0.05   0.00    -0.01  -0.01  -0.01
  23   6    -0.04  -0.00   0.00    -0.01  -0.03   0.02    -0.02  -0.01  -0.01
  24   8    -0.01  -0.01  -0.02    -0.04  -0.01   0.04    -0.02  -0.01  -0.01
  25   6    -0.07   0.01   0.03     0.00  -0.04   0.02    -0.03  -0.00  -0.00
  26   6     0.06  -0.04  -0.14     0.01  -0.02   0.02     0.02  -0.02  -0.06
  27   6     0.10  -0.06  -0.16     0.00  -0.00   0.01     0.03  -0.03  -0.06
  28   6    -0.00  -0.01  -0.01     0.00  -0.00  -0.00    -0.00  -0.00  -0.00
  29   7     0.01  -0.01  -0.03    -0.01   0.01  -0.02    -0.00  -0.01  -0.00
  30   6     0.00   0.01  -0.04    -0.01   0.03  -0.06    -0.01   0.02  -0.05
  31   6    -0.03   0.08  -0.14    -0.02   0.06  -0.08    -0.02   0.05  -0.09
  32   6    -0.02   0.09  -0.15     0.01   0.04  -0.00     0.00   0.04  -0.03
  33   6     0.03   0.03  -0.00     0.04  -0.01   0.10     0.04  -0.01   0.08
  34   6     0.05  -0.04   0.11     0.03  -0.01   0.07     0.04  -0.02   0.08
  35   6     0.03  -0.03   0.06     0.00   0.02  -0.03     0.00   0.01  -0.02
  36   6     0.01   0.00   0.01     0.01   0.01   0.00     0.01  -0.00   0.00
  37   6     0.12  -0.05  -0.04    -0.08   0.06   0.04    -0.06   0.04   0.03
  38   6    -0.11   0.06   0.04     0.10  -0.04  -0.04     0.07  -0.05  -0.03
  39   6     0.00   0.03  -0.04     0.01   0.00   0.03     0.01  -0.01   0.03
  40   6     0.00   0.07  -0.07    -0.01   0.05  -0.04    -0.01   0.06  -0.07
  41   6     0.05   0.05   0.01    -0.00   0.06  -0.06     0.00   0.07  -0.08
  42   6     0.09  -0.01   0.11     0.02   0.02   0.01     0.03   0.01   0.02
  43   6     0.08  -0.04   0.09     0.03  -0.01   0.06     0.05  -0.03   0.08
  44   6     0.03  -0.01   0.01     0.01  -0.00   0.03     0.02  -0.02   0.05
  45   6    -0.16   0.05   0.17    -0.01  -0.03   0.00    -0.06   0.01   0.06
  46   6    -0.19   0.06   0.20    -0.01  -0.04   0.02    -0.07   0.02   0.06
  47   6     0.06   0.04  -0.13    -0.01  -0.02  -0.02     0.02   0.02  -0.06
  48   6     0.09   0.06  -0.16    -0.01  -0.00  -0.01     0.03   0.03  -0.06
  49   6     0.02   0.01   0.01    -0.01  -0.00  -0.03     0.02   0.02   0.05
  50   6     0.08   0.04   0.08    -0.03  -0.01  -0.06     0.05   0.03   0.08
  51   6     0.08   0.02   0.10    -0.02   0.02  -0.01     0.03  -0.01   0.02
  52   6     0.04  -0.05   0.00     0.00   0.06   0.06     0.00  -0.07  -0.08
  53   6     0.00  -0.07  -0.06     0.01   0.05   0.04    -0.01  -0.06  -0.07
  54   6     0.00  -0.02  -0.04    -0.01   0.00  -0.03     0.01   0.01   0.03
  55   1     0.04  -0.02   0.07     0.20  -0.03   0.14    -0.20   0.04  -0.14
  56   1    -0.12  -0.06   0.05    -0.24  -0.14   0.11     0.23   0.15  -0.11
  57   1    -0.04   0.02  -0.08    -0.06   0.13  -0.21     0.05  -0.13   0.20
  58   1    -0.01   0.06   0.04    -0.13   0.14   0.11     0.14  -0.13  -0.11
  59   1     0.02  -0.07  -0.05     0.00  -0.21  -0.06    -0.00   0.21   0.05
  60   1     0.11   0.06  -0.05     0.21   0.14  -0.10    -0.20  -0.13   0.09
  61   1     0.03   0.02   0.05    -0.02  -0.01  -0.04     0.02   0.02   0.05
  62   1     0.01  -0.01   0.00    -0.02  -0.01  -0.06     0.02   0.01   0.05
  63   1    -0.01  -0.04  -0.07    -0.00   0.01   0.00    -0.00  -0.02  -0.02
  64   1    -0.02  -0.03  -0.05     0.01   0.02   0.03    -0.02  -0.02  -0.04
  65   1    -0.07  -0.02   0.07     0.01  -0.01   0.00    -0.03  -0.01   0.03
  66   1    -0.08  -0.03   0.09     0.00  -0.01  -0.01    -0.03  -0.01   0.03
  67   1    -0.00   0.01   0.00     0.03  -0.01   0.00    -0.00   0.01   0.00
  68   1     0.00   0.00   0.01     0.02  -0.01   0.00     0.00   0.00   0.01
  69   1     0.00  -0.00   0.01    -0.02  -0.01  -0.00     0.00  -0.00   0.01
  70   1    -0.01  -0.01   0.00    -0.03  -0.01  -0.00    -0.00  -0.01   0.00
  71   1     0.04  -0.02  -0.07     0.01  -0.00   0.01     0.01  -0.01  -0.03
  72   1     0.05  -0.03  -0.08     0.00   0.00   0.00     0.02  -0.01  -0.03
  73   1    -0.02   0.03  -0.05    -0.01   0.02  -0.03    -0.02   0.02  -0.04
  74   1    -0.01   0.04  -0.08     0.00   0.01  -0.00    -0.00   0.02  -0.02
  75   1     0.01   0.01   0.00     0.02  -0.01   0.06     0.02  -0.01   0.05
  76   1     0.03  -0.03   0.06     0.02  -0.01   0.04     0.02  -0.02   0.05
  77   1    -0.01  -0.06   0.05     0.13   0.13  -0.11     0.13   0.13  -0.10
  78   1     0.03   0.07  -0.05    -0.01  -0.21   0.06    -0.00  -0.20   0.05
  79   1     0.12  -0.06  -0.05    -0.21   0.13   0.10    -0.20   0.13   0.09
  80   1     0.05   0.02   0.07    -0.20  -0.03  -0.14    -0.20  -0.03  -0.14
  81   1    -0.12   0.07   0.05     0.25  -0.15  -0.11     0.23  -0.15  -0.11
  82   1    -0.05  -0.02  -0.08     0.06   0.13   0.21     0.05   0.13   0.20
  83   1    -0.01   0.03  -0.04    -0.01   0.02  -0.03    -0.01   0.03  -0.04
  84   1     0.01   0.02  -0.00    -0.00   0.03  -0.04    -0.00   0.04  -0.05
  85   1     0.03  -0.01   0.05     0.01   0.01   0.01     0.01   0.00   0.01
  86   1     0.03  -0.02   0.04     0.01  -0.01   0.03     0.02  -0.02   0.04
  87   1    -0.07   0.02   0.08    -0.01  -0.01  -0.00    -0.03   0.01   0.03
  88   1    -0.09   0.03   0.09    -0.00  -0.01   0.01    -0.03   0.01   0.03
  89   1     0.03   0.02  -0.07    -0.01  -0.00  -0.01     0.01   0.01  -0.03
  90   1     0.05   0.03  -0.08    -0.00   0.00  -0.00     0.02   0.01  -0.03
  91   1     0.03   0.02   0.03    -0.01  -0.01  -0.03     0.02   0.02   0.04
  92   1     0.03   0.01   0.05    -0.01   0.01  -0.01     0.01  -0.00   0.01
  93   1     0.01  -0.02  -0.00     0.00   0.03   0.04    -0.00  -0.04  -0.05
  94   1    -0.01  -0.03  -0.03     0.01   0.02   0.03    -0.01  -0.03  -0.04
                     22                     23                     24
                        a                      a                      a 
 Frequencies --   137.1398               137.5769               155.6421
 Red. masses --    11.1971                12.5246                11.4127
 Frc consts  --     0.0000                 0.0000                 0.0000
 IR Inten    --     4.1417                 8.5446                 1.4894
 Raman Activ --     0.0000                 0.0000                 0.0000
 Depolar     --     0.0000                 0.0000                 0.0000
 Atom AN      X      Y      Z        X      Y      Z        X      Y      Z
   1   6    -0.07   0.08  -0.01     0.03  -0.03   0.01     0.05  -0.01   0.03
   2   6    -0.01   0.06   0.04     0.00  -0.03   0.00     0.06  -0.03   0.06
   3   6     0.02   0.02   0.01     0.01  -0.01   0.00     0.07  -0.11   0.05
   4   6    -0.01   0.07   0.06     0.01  -0.04   0.01     0.06  -0.01   0.04
   5   6    -0.02   0.06   0.04     0.03  -0.07  -0.02     0.06  -0.05  -0.04
   6   6    -0.05   0.03  -0.07     0.04  -0.10   0.02     0.05  -0.08  -0.07
   7   6    -0.06   0.01  -0.12     0.03  -0.10   0.08     0.07  -0.05   0.02
   8   6    -0.03   0.03  -0.05     0.00  -0.07   0.09     0.07  -0.02   0.09
   9   6    -0.01   0.05   0.02    -0.01  -0.04   0.06     0.07   0.00   0.07
  10   7     0.01   0.06   0.05    -0.04  -0.00   0.10     0.03   0.02   0.04
  11   6    -0.02   0.00  -0.02    -0.01  -0.01   0.01    -0.03  -0.01  -0.03
  12   6    -0.08  -0.10   0.06     0.01   0.00  -0.02    -0.00  -0.02  -0.08
  13   6    -0.12  -0.15   0.03     0.10   0.04  -0.14    -0.06  -0.05  -0.10
  14   6    -0.08  -0.11  -0.09     0.13   0.07  -0.21    -0.18  -0.03  -0.08
  15   6     0.01  -0.06  -0.10     0.01   0.03  -0.06    -0.14   0.03  -0.08
  16   8     0.16   0.09  -0.22    -0.34  -0.04   0.16    -0.04   0.15  -0.18
  17   6     0.04  -0.12  -0.00     0.11   0.03  -0.04    -0.15   0.02  -0.02
  18   6     0.17  -0.12   0.01     0.02   0.07   0.03    -0.06   0.07   0.07
  19   6     0.12  -0.12   0.00    -0.10   0.03   0.10     0.06   0.03   0.15
  20   6    -0.12  -0.12  -0.01    -0.10  -0.03   0.10     0.06  -0.03   0.15
  21   6    -0.17  -0.12  -0.01     0.02  -0.07   0.03    -0.06  -0.07   0.07
  22   6    -0.04  -0.12   0.00     0.11  -0.03  -0.04    -0.15  -0.02  -0.02
  23   6    -0.01  -0.06   0.10     0.01  -0.03  -0.06    -0.14  -0.03  -0.08
  24   8    -0.16   0.09   0.22    -0.34   0.04   0.16    -0.04  -0.15  -0.18
  25   6     0.08  -0.11   0.09     0.13  -0.07  -0.21    -0.18   0.03  -0.08
  26   6     0.03  -0.01   0.18     0.14  -0.07  -0.22    -0.21   0.03  -0.04
  27   6    -0.01   0.04   0.14     0.07  -0.04  -0.12    -0.15  -0.01  -0.03
  28   6     0.02   0.00   0.02    -0.01   0.01   0.01    -0.03   0.01  -0.03
  29   7    -0.01   0.06  -0.05    -0.04   0.00   0.09     0.03  -0.02   0.04
  30   6     0.01   0.05  -0.02    -0.01   0.04   0.06     0.07  -0.00   0.07
  31   6     0.03   0.03   0.05     0.00   0.07   0.09     0.07   0.02   0.09
  32   6     0.06   0.01   0.12     0.03   0.10   0.08     0.07   0.05   0.02
  33   6     0.04   0.03   0.07     0.04   0.10   0.02     0.05   0.08  -0.07
  34   6     0.02   0.06  -0.04     0.03   0.07  -0.02     0.06   0.05  -0.04
  35   6     0.01   0.06  -0.06     0.01   0.04   0.01     0.06   0.01   0.04
  36   6     0.01   0.06  -0.04     0.00   0.03   0.00     0.06   0.03   0.06
  37   6    -0.02   0.02  -0.01     0.01   0.01   0.00     0.07   0.11   0.05
  38   6     0.07   0.08   0.01     0.03   0.03   0.01     0.05   0.01   0.03
  39   6     0.00   0.05  -0.03    -0.03   0.01   0.01     0.04   0.02   0.08
  40   6     0.02  -0.01   0.06    -0.03   0.01  -0.03     0.04   0.07   0.05
  41   6     0.01  -0.03   0.09    -0.04   0.00  -0.01     0.05   0.14  -0.05
  42   6    -0.01   0.02  -0.00    -0.05  -0.01   0.04     0.07   0.12  -0.04
  43   6    -0.03   0.08  -0.08    -0.04  -0.00   0.07     0.08   0.04   0.05
  44   6    -0.02   0.07  -0.06    -0.03   0.01   0.06     0.04   0.01   0.07
  45   6     0.08  -0.11  -0.06     0.02  -0.01  -0.02    -0.00   0.02  -0.08
  46   6     0.12  -0.15  -0.03     0.10  -0.04  -0.14    -0.06   0.05  -0.10
  47   6    -0.03  -0.01  -0.17     0.14   0.07  -0.22    -0.21  -0.03  -0.04
  48   6     0.01   0.04  -0.14     0.07   0.04  -0.12    -0.15   0.01  -0.03
  49   6     0.02   0.07   0.06    -0.03  -0.01   0.06     0.04  -0.01   0.07
  50   6     0.03   0.08   0.08    -0.04   0.00   0.07     0.08  -0.04   0.05
  51   6     0.01   0.03  -0.00    -0.05   0.01   0.04     0.07  -0.12  -0.04
  52   6    -0.01  -0.03  -0.09    -0.04  -0.00  -0.01     0.05  -0.14  -0.05
  53   6    -0.02  -0.01  -0.06    -0.03  -0.01  -0.03     0.04  -0.07   0.05
  54   6    -0.00   0.05   0.03    -0.03  -0.01   0.01     0.04  -0.02   0.08
  55   1    -0.07   0.03  -0.03     0.03  -0.01   0.01     0.03  -0.01   0.01
  56   1     0.01   0.06  -0.01    -0.01  -0.02   0.01     0.00  -0.00   0.02
  57   1    -0.02  -0.02   0.03     0.01   0.01  -0.01     0.01   0.01  -0.01
  58   1     0.03  -0.02  -0.02     0.01  -0.00   0.00    -0.00  -0.02   0.01
  59   1     0.01   0.04  -0.00     0.00  -0.00  -0.00     0.02  -0.06   0.01
  60   1    -0.02  -0.02   0.02     0.00   0.00  -0.00     0.05  -0.03   0.02
  61   1    -0.00   0.02   0.03     0.01  -0.02  -0.02     0.02  -0.02  -0.03
  62   1    -0.02   0.00  -0.03     0.02  -0.03  -0.00     0.01  -0.03  -0.04
  63   1    -0.02  -0.01  -0.06     0.01  -0.03   0.03     0.02  -0.02   0.01
  64   1    -0.01   0.01  -0.02    -0.00  -0.02   0.03     0.02  -0.00   0.04
  65   1    -0.02  -0.04   0.05    -0.01  -0.01   0.01     0.01  -0.00  -0.03
  66   1    -0.05  -0.06   0.03     0.03   0.01  -0.04    -0.00  -0.03  -0.04
  67   1     0.08  -0.03   0.00     0.01   0.04   0.01    -0.02   0.04   0.02
  68   1     0.07  -0.03   0.00    -0.06   0.02   0.04     0.05   0.02   0.06
  69   1    -0.07  -0.03  -0.00    -0.06  -0.02   0.04     0.05  -0.02   0.06
  70   1    -0.08  -0.03  -0.00     0.01  -0.04   0.01    -0.02  -0.04   0.02
  71   1     0.01   0.01   0.08     0.05  -0.02  -0.08    -0.07   0.01  -0.00
  72   1    -0.02   0.03   0.06     0.02  -0.02  -0.03    -0.06  -0.02   0.00
  73   1     0.01   0.01   0.02    -0.00   0.02   0.03     0.02   0.00   0.04
  74   1     0.02  -0.01   0.06     0.01   0.03   0.03     0.02   0.02   0.01
  75   1     0.02   0.00   0.03     0.02   0.03  -0.00     0.01   0.03  -0.04
  76   1     0.00   0.02  -0.03     0.01   0.02  -0.02     0.02   0.02  -0.03
  77   1    -0.03  -0.02   0.02     0.01   0.00   0.00    -0.00   0.02   0.01
  78   1    -0.01   0.04   0.00     0.00   0.00  -0.00     0.02   0.06   0.01
  79   1     0.02  -0.02  -0.02     0.00  -0.00  -0.00     0.05   0.03   0.02
  80   1     0.07   0.03   0.03     0.03   0.01   0.01     0.03   0.01   0.01
  81   1    -0.01   0.06   0.01    -0.01   0.02   0.01    -0.00   0.00   0.02
  82   1     0.02  -0.02  -0.03     0.01  -0.01  -0.01     0.01  -0.01  -0.01
  83   1     0.01  -0.01   0.03    -0.01   0.01  -0.02     0.00   0.02   0.02
  84   1     0.01  -0.02   0.05    -0.01  -0.00  -0.01     0.01   0.06  -0.03
  85   1    -0.01   0.01  -0.00    -0.02  -0.01   0.02     0.02   0.05  -0.03
  86   1    -0.02   0.03  -0.03    -0.01  -0.00   0.02     0.03   0.00   0.02
  87   1     0.02  -0.04  -0.05    -0.01   0.01   0.01     0.01   0.00  -0.03
  88   1     0.05  -0.06  -0.03     0.03  -0.01  -0.04    -0.00   0.03  -0.04
  89   1    -0.01   0.01  -0.08     0.05   0.02  -0.08    -0.07  -0.01  -0.00
  90   1     0.02   0.03  -0.06     0.02   0.02  -0.03    -0.06   0.02   0.00
  91   1     0.02   0.03   0.03    -0.01   0.00   0.02     0.03  -0.00   0.02
  92   1     0.01   0.01  -0.00    -0.02   0.01   0.01     0.02  -0.05  -0.03
  93   1    -0.01  -0.02  -0.05    -0.01   0.00  -0.01     0.01  -0.06  -0.03
  94   1    -0.01  -0.01  -0.03    -0.01  -0.01  -0.02     0.00  -0.02   0.02
                     25                     26                     27
                        a                      a                      a 
 Frequencies --   162.8159               176.4896               186.7960
 Red. masses --    11.7043                11.2394                 9.5537
 Frc consts  --     0.0000                 0.0000                 0.0000
 IR Inten    --     1.4997                 0.0329                 0.3589
 Raman Activ --     0.0000                 0.0000                 0.0000
 Depolar     --     0.0000                 0.0000                 0.0000
 Atom AN      X      Y      Z        X      Y      Z        X      Y      Z
   1   6     0.05  -0.02   0.02     0.05   0.03   0.02     0.02  -0.09  -0.01
   2   6     0.03  -0.03   0.03     0.05  -0.00   0.05    -0.02  -0.05  -0.06
   3   6     0.04  -0.06   0.02     0.05  -0.08   0.04    -0.08  -0.01  -0.02
   4   6     0.03  -0.04   0.02     0.05   0.02   0.03    -0.01  -0.04  -0.09
   5   6     0.06  -0.09  -0.04     0.03  -0.01  -0.05     0.05  -0.03   0.00
   6   6     0.07  -0.13  -0.01     0.02  -0.01  -0.08     0.09  -0.03   0.14
   7   6     0.06  -0.11   0.10     0.05   0.02   0.01     0.05  -0.07   0.06
   8   6     0.03  -0.07   0.13     0.07   0.04   0.06    -0.03  -0.10  -0.08
   9   6     0.02  -0.02   0.08     0.06   0.03   0.03    -0.02  -0.03  -0.07
  10   7    -0.03   0.01   0.10     0.02   0.02  -0.04    -0.01   0.04   0.03
  11   6    -0.01   0.01  -0.03    -0.06  -0.02  -0.03     0.04   0.10   0.07
  12   6     0.03   0.03  -0.09    -0.07  -0.02  -0.04     0.05   0.12   0.06
  13   6     0.09   0.06  -0.21    -0.15  -0.05   0.01     0.07   0.12   0.03
  14   6     0.07   0.08  -0.24    -0.23  -0.04   0.05     0.03   0.13   0.02
  15   6     0.00   0.09  -0.10    -0.11   0.06   0.02    -0.09   0.03  -0.04
  16   8    -0.09   0.21  -0.07    -0.10   0.17  -0.01    -0.00  -0.09  -0.09
  17   6    -0.00   0.04  -0.00    -0.01   0.09  -0.00    -0.25   0.01  -0.04
  18   6    -0.02   0.06   0.01     0.01   0.09   0.00    -0.13   0.02  -0.02
  19   6    -0.01   0.06   0.00     0.01   0.09   0.00     0.14   0.01   0.01
  20   6     0.02   0.06  -0.00    -0.01   0.09   0.00     0.14  -0.01   0.01
  21   6     0.02   0.06  -0.01    -0.01   0.09  -0.00    -0.13  -0.02  -0.02
  22   6    -0.00   0.04   0.00     0.01   0.08   0.00    -0.25  -0.01  -0.04
  23   6    -0.00   0.09   0.10     0.11   0.06  -0.02    -0.09  -0.03  -0.04
  24   8     0.09   0.21   0.07     0.10   0.17   0.01    -0.00   0.09  -0.09
  25   6    -0.07   0.08   0.24     0.23  -0.04  -0.05     0.03  -0.13   0.02
  26   6    -0.07   0.07   0.24     0.27  -0.08  -0.11     0.03  -0.13   0.03
  27   6    -0.03   0.06   0.16     0.21  -0.05  -0.07     0.04  -0.13   0.04
  28   6     0.01   0.01   0.03     0.06  -0.02   0.03     0.04  -0.10   0.07
  29   7     0.03   0.01  -0.10    -0.02   0.02   0.04    -0.01  -0.03   0.03
  30   6    -0.02  -0.02  -0.08    -0.06   0.03  -0.03    -0.02   0.03  -0.07
  31   6    -0.03  -0.07  -0.13    -0.07   0.04  -0.06    -0.03   0.10  -0.08
  32   6    -0.06  -0.11  -0.10    -0.05   0.02  -0.01     0.05   0.07   0.06
  33   6    -0.07  -0.13   0.01    -0.02  -0.01   0.08     0.09   0.03   0.14
  34   6    -0.06  -0.09   0.04    -0.03  -0.01   0.05     0.05   0.03   0.00
  35   6    -0.03  -0.04  -0.02    -0.05   0.02  -0.03    -0.01   0.04  -0.09
  36   6    -0.03  -0.03  -0.03    -0.05  -0.00  -0.05    -0.02   0.05  -0.06
  37   6    -0.04  -0.06  -0.02    -0.05  -0.08  -0.04    -0.08   0.01  -0.02
  38   6    -0.05  -0.02  -0.02    -0.05   0.03  -0.02     0.03   0.08  -0.01
  39   6     0.01  -0.02  -0.05    -0.04   0.01  -0.07    -0.02   0.05  -0.05
  40   6     0.02  -0.04  -0.00    -0.04  -0.06  -0.05    -0.00   0.02   0.05
  41   6     0.02  -0.07   0.03    -0.06  -0.13   0.06     0.02   0.00   0.11
  42   6     0.01  -0.05  -0.02    -0.09  -0.10   0.05     0.01   0.05   0.00
  43   6    -0.00  -0.02  -0.08    -0.10  -0.01  -0.04    -0.01   0.07  -0.08
  44   6     0.01  -0.01  -0.08    -0.05   0.01  -0.04    -0.02   0.04  -0.04
  45   6    -0.03   0.03   0.09     0.07  -0.02   0.04     0.05  -0.13   0.06
  46   6    -0.09   0.06   0.21     0.15  -0.05  -0.01     0.07  -0.12   0.03
  47   6     0.07   0.07  -0.24    -0.27  -0.07   0.11     0.03   0.13   0.03
  48   6     0.03   0.06  -0.16    -0.21  -0.05   0.07     0.04   0.13   0.04
  49   6    -0.01  -0.01   0.08     0.05   0.01   0.04    -0.02  -0.04  -0.04
  50   6     0.00  -0.02   0.08     0.10  -0.01   0.04    -0.01  -0.07  -0.08
  51   6    -0.01  -0.05   0.02     0.09  -0.10  -0.05     0.01  -0.05   0.00
  52   6    -0.02  -0.07  -0.03     0.06  -0.13  -0.06     0.02  -0.00   0.11
  53   6    -0.02  -0.04   0.00     0.04  -0.06   0.05    -0.00  -0.02   0.05
  54   6    -0.01  -0.02   0.05     0.04   0.01   0.07    -0.02  -0.05  -0.05
  55   1     0.04  -0.01   0.01     0.01   0.00  -0.01     0.11  -0.03   0.06
  56   1    -0.01  -0.02   0.01     0.02   0.02   0.00    -0.08  -0.10   0.03
  57   1     0.01   0.01  -0.02     0.01   0.00   0.01    -0.00   0.05  -0.09
  58   1     0.01  -0.02   0.00    -0.03  -0.00   0.02     0.05  -0.05  -0.05
  59   1     0.01  -0.02   0.00     0.01  -0.08   0.00    -0.01   0.10   0.02
  60   1     0.01  -0.02   0.01     0.06  -0.01   0.01    -0.12  -0.05   0.02
  61   1     0.02  -0.03  -0.04     0.00  -0.01  -0.03     0.03  -0.00  -0.00
  62   1     0.03  -0.05  -0.02    -0.00  -0.01  -0.05     0.04   0.00   0.08
  63   1     0.02  -0.04   0.04     0.02   0.01   0.01     0.02  -0.02   0.03
  64   1     0.00  -0.02   0.05     0.02   0.01   0.03    -0.02  -0.04  -0.04
  65   1    -0.00   0.00  -0.01    -0.01   0.00  -0.03     0.01   0.04   0.01
  66   1     0.04   0.01  -0.07    -0.04  -0.02  -0.00     0.03   0.03   0.00
  67   1    -0.01   0.02   0.00     0.00   0.03   0.00    -0.04   0.01  -0.01
  68   1    -0.01   0.02  -0.00     0.01   0.03  -0.00     0.10   0.01   0.01
  69   1     0.01   0.02   0.00    -0.01   0.03   0.00     0.10  -0.01   0.01
  70   1     0.01   0.02  -0.00    -0.00   0.03  -0.00    -0.04  -0.01  -0.01
  71   1    -0.02   0.02   0.08     0.09  -0.03  -0.05     0.01  -0.04   0.01
  72   1    -0.00   0.03   0.04     0.07  -0.01  -0.03     0.01  -0.04   0.01
  73   1    -0.00  -0.02  -0.05    -0.02   0.02  -0.03    -0.02   0.04  -0.04
  74   1    -0.02  -0.04  -0.04    -0.02   0.01  -0.01     0.02   0.02   0.03
  75   1    -0.03  -0.05   0.02     0.00  -0.01   0.05     0.04  -0.00   0.08
  76   1    -0.02  -0.03   0.04    -0.00  -0.01   0.03     0.03   0.00  -0.00
  77   1    -0.01  -0.02  -0.00     0.03  -0.00  -0.02     0.04   0.05  -0.05
  78   1    -0.01  -0.02  -0.00    -0.01  -0.08  -0.00    -0.02  -0.10   0.02
  79   1    -0.01  -0.02  -0.01    -0.06  -0.01  -0.01    -0.12   0.05   0.02
  80   1    -0.04  -0.01  -0.01    -0.01   0.00   0.01     0.11   0.03   0.06
  81   1     0.01  -0.02  -0.01    -0.02   0.02  -0.00    -0.08   0.10   0.03
  82   1    -0.01   0.01   0.02    -0.01   0.00  -0.01    -0.00  -0.05  -0.08
  83   1     0.01  -0.02   0.00    -0.00  -0.02  -0.03    -0.00   0.00   0.03
  84   1     0.01  -0.03   0.02    -0.01  -0.06   0.04     0.01  -0.01   0.06
  85   1     0.01  -0.02  -0.00    -0.03  -0.04   0.03     0.01   0.02  -0.00
  86   1    -0.01   0.00  -0.03    -0.04   0.01  -0.02    -0.00   0.03  -0.04
  87   1     0.00   0.00   0.01     0.01   0.00   0.03     0.01  -0.04   0.01
  88   1    -0.04   0.01   0.07     0.04  -0.02   0.00     0.03  -0.03   0.00
  89   1     0.02   0.02  -0.08    -0.09  -0.03   0.05     0.01   0.04   0.01
  90   1     0.00   0.03  -0.04    -0.07  -0.01   0.03     0.01   0.04   0.01
  91   1     0.01   0.00   0.03     0.04   0.01   0.02    -0.00  -0.03  -0.04
  92   1    -0.01  -0.02   0.00     0.03  -0.04  -0.03     0.01  -0.02  -0.00
  93   1    -0.01  -0.03  -0.02     0.01  -0.06  -0.04     0.01   0.01   0.06
  94   1    -0.01  -0.02  -0.00     0.00  -0.02   0.03    -0.00  -0.00   0.03
                     28                     29                     30
                        a                      a                      a 
 Frequencies --   189.3275               189.6166               217.2536
 Red. masses --     1.4520                 2.4706                 9.6364
 Frc consts  --     0.0000                 0.0000                 0.0000
 IR Inten    --     0.1459                 0.0955                 3.4497
 Raman Activ --     0.0000                 0.0000                 0.0000
[...]
  44   6    -0.00   0.00   0.00    -0.00   0.00  -0.00    -0.00   0.00   0.00
  45   6    -0.01   0.08  -0.04    -0.02   0.13  -0.06     0.00  -0.01   0.01
  46   6    -0.06   0.01  -0.05    -0.10   0.01  -0.09     0.01  -0.00   0.01
  47   6     0.00   0.01   0.00    -0.00  -0.01  -0.01    -0.00  -0.01  -0.00
  48   6     0.01  -0.00   0.01    -0.01  -0.00  -0.01    -0.00  -0.00  -0.00
  49   6     0.00   0.00  -0.00    -0.00  -0.00  -0.00     0.00   0.00  -0.00
  50   6     0.01  -0.01   0.00    -0.00   0.00  -0.00     0.00  -0.00   0.00
  51   6     0.00   0.01  -0.00    -0.00  -0.00   0.00     0.00   0.00  -0.00
  52   6     0.02   0.00  -0.00    -0.00  -0.00   0.00     0.01   0.00  -0.00
  53   6     0.01  -0.01   0.00    -0.00   0.00  -0.00     0.00  -0.00   0.00
  54   6    -0.00  -0.00   0.00     0.00  -0.00   0.00    -0.00  -0.00   0.00
  55   1     0.01   0.02  -0.01    -0.00  -0.00   0.00     0.00   0.00  -0.00
  56   1     0.00  -0.00   0.00     0.00   0.00   0.00     0.00  -0.00   0.00
  57   1    -0.01   0.00   0.00     0.00   0.00  -0.00    -0.00   0.00   0.00
  58   1     0.00   0.01  -0.01    -0.00  -0.00   0.00     0.00   0.00  -0.00
  59   1    -0.01  -0.00   0.00     0.00   0.00  -0.00    -0.00   0.00   0.00
  60   1     0.00  -0.00   0.00    -0.00   0.00   0.00     0.00  -0.00   0.00
  61   1    -0.13   0.20  -0.05     0.04  -0.07   0.02    -0.01   0.02  -0.00
  62   1     0.15   0.30  -0.15    -0.06  -0.11   0.05     0.01   0.03  -0.01
  63   1     0.13  -0.00  -0.03    -0.09   0.00   0.02     0.01  -0.00  -0.00
  64   1    -0.04   0.06  -0.01    -0.01   0.02  -0.01    -0.00   0.00  -0.00
  65   1    -0.06  -0.38  -0.17     0.06   0.37   0.17     0.01   0.04   0.02
  66   1    -0.27  -0.04  -0.24     0.31   0.05   0.27     0.03   0.00   0.03
  67   1    -0.00   0.00   0.00    -0.00   0.00   0.01    -0.01   0.00   0.37
  68   1    -0.00  -0.01   0.00    -0.00  -0.00   0.00    -0.01  -0.48   0.28
  69   1     0.00  -0.01  -0.01    -0.00   0.01   0.00     0.01  -0.48  -0.28
  70   1     0.00   0.00  -0.01    -0.00  -0.00   0.01     0.01   0.00  -0.37
  71   1     0.01  -0.03   0.01     0.01  -0.05   0.02    -0.00   0.02  -0.01
  72   1     0.01  -0.00   0.01     0.04  -0.01   0.04    -0.01   0.00  -0.01
  73   1     0.05   0.07   0.01    -0.00  -0.00  -0.00     0.00   0.00   0.00
  74   1    -0.12  -0.00   0.03    -0.13  -0.00   0.03    -0.02  -0.00   0.00
  75   1    -0.15   0.29   0.15    -0.10   0.20   0.10    -0.01   0.03   0.01
  76   1     0.13   0.19   0.05     0.08   0.13   0.03     0.01   0.02   0.00
  77   1    -0.00   0.01   0.01    -0.00   0.01   0.00    -0.00   0.00   0.00
  78   1     0.01  -0.00  -0.00     0.00  -0.00  -0.00     0.00   0.00  -0.00
  79   1    -0.00  -0.00  -0.00    -0.00  -0.00   0.00    -0.00  -0.00  -0.00
  80   1    -0.01   0.02   0.01    -0.00   0.01   0.00    -0.00   0.00   0.00
  81   1    -0.00  -0.00  -0.00     0.00  -0.00   0.00    -0.00  -0.00  -0.00
  82   1     0.01   0.00  -0.00     0.00  -0.00  -0.00     0.00   0.00  -0.00
  83   1     0.04   0.05   0.01     0.01   0.01   0.00     0.01   0.01   0.00
  84   1     0.08  -0.00  -0.02     0.02  -0.00  -0.00     0.02  -0.00  -0.00
  85   1     0.01  -0.02  -0.01     0.00  -0.01  -0.00     0.00  -0.01  -0.00
  86   1     0.03   0.04   0.01     0.01   0.01   0.00     0.01   0.01   0.00
  87   1     0.04  -0.28   0.13     0.07  -0.42   0.19    -0.01   0.04  -0.02
  88   1     0.19  -0.03   0.16     0.34  -0.06   0.30    -0.03   0.00  -0.03
  89   1    -0.01  -0.04  -0.02     0.01   0.05   0.02     0.00   0.02   0.01
  90   1    -0.02  -0.00  -0.02     0.04   0.01   0.03     0.01   0.00   0.01
  91   1    -0.03   0.04  -0.01     0.00  -0.00   0.00    -0.01   0.01  -0.00
  92   1    -0.01  -0.02   0.01     0.00   0.00  -0.00    -0.00  -0.01   0.00
  93   1    -0.07  -0.00   0.02     0.00   0.00  -0.00    -0.02  -0.00   0.00
  94   1    -0.04   0.04  -0.01     0.00  -0.00   0.00    -0.01   0.01  -0.00
                    271                    272                    273
                        a                      a                      a 
 Frequencies --  3100.3707              3100.4936              3104.9324
 Red. masses --     1.8824                 1.8819                 1.8691
 Frc consts  --     0.0000                 0.0000                 0.0000
 IR Inten    --     6.0418                11.8520                28.8308
 Raman Activ --     0.0000                 0.0000                 0.0000
 Depolar     --     0.0000                 0.0000                 0.0000
 Atom AN      X      Y      Z        X      Y      Z        X      Y      Z
   1   6     0.00  -0.00   0.00    -0.00   0.00  -0.00     0.00  -0.00   0.00
   2   6     0.00  -0.00   0.00    -0.00   0.00   0.00    -0.00  -0.00   0.00
   3   6    -0.00   0.00   0.00    -0.00   0.00   0.00     0.00  -0.00   0.00
   4   6     0.00  -0.00  -0.00    -0.00   0.00  -0.00    -0.00   0.00  -0.00
   5   6     0.00  -0.00   0.00    -0.00   0.00  -0.00    -0.00  -0.00   0.00
   6   6    -0.00  -0.00   0.00     0.00   0.00  -0.00     0.00   0.00  -0.00
   7   6     0.00  -0.00  -0.00     0.00  -0.00  -0.00     0.00  -0.00  -0.00
   8   6     0.00  -0.00  -0.00     0.00  -0.00   0.00     0.01  -0.01   0.00
   9   6    -0.00   0.00   0.00    -0.00  -0.00   0.00    -0.00  -0.00   0.00
  10   7    -0.00   0.00  -0.00    -0.00   0.00  -0.00     0.00   0.00  -0.00
  11   6     0.00  -0.00   0.00     0.00  -0.00   0.00    -0.00  -0.00   0.00
  12   6    -0.00  -0.01  -0.01    -0.00  -0.01  -0.01     0.00  -0.00   0.00
  13   6    -0.01  -0.00  -0.01    -0.01  -0.00  -0.01     0.00   0.00   0.00
  14   6    -0.00   0.00  -0.00    -0.00   0.00  -0.00    -0.00   0.00  -0.00
  15   6    -0.00   0.00  -0.00     0.00   0.00   0.00     0.00   0.00   0.00
  16   8     0.00  -0.00   0.00    -0.00  -0.00  -0.00    -0.00  -0.00  -0.00
  17   6     0.00  -0.00  -0.00    -0.00  -0.00  -0.00    -0.00  -0.00   0.00
  18   6     0.00  -0.00  -0.00     0.00  -0.00  -0.00    -0.00  -0.00  -0.00
  19   6     0.00   0.00  -0.00     0.00   0.00  -0.00    -0.00   0.00  -0.00
  20   6    -0.00   0.00   0.00     0.00  -0.00  -0.00     0.00  -0.00  -0.00
  21   6    -0.00  -0.00   0.00     0.00   0.00  -0.00     0.00   0.00  -0.00
  22   6    -0.00  -0.00   0.00    -0.00   0.00  -0.00    -0.00   0.00   0.00
  23   6     0.00   0.00   0.00     0.00  -0.00   0.00    -0.00  -0.00  -0.00
  24   8    -0.00  -0.00  -0.00    -0.00   0.00  -0.00     0.00   0.00   0.00
  25   6     0.00   0.00   0.00    -0.00  -0.00  -0.00    -0.00  -0.00  -0.00
  26   6    -0.03   0.12  -0.05     0.03  -0.13   0.05     0.00  -0.01   0.00
  27   6    -0.10   0.02  -0.09     0.11  -0.02   0.09     0.02  -0.00   0.01
  28   6    -0.00  -0.00  -0.00     0.00   0.01   0.00    -0.00   0.00   0.00
  29   7     0.00   0.00   0.00    -0.00  -0.00  -0.00     0.00  -0.00  -0.00
  30   6     0.00   0.00  -0.00    -0.00  -0.00   0.00    -0.00   0.00   0.00
  31   6     0.00   0.00   0.00     0.00   0.00   0.00     0.01   0.02   0.00
  32   6    -0.00   0.00   0.00     0.00   0.00  -0.00     0.00   0.00  -0.00
  33   6     0.00  -0.00  -0.00     0.00  -0.00  -0.00    -0.00   0.00   0.00
  34   6    -0.00  -0.00  -0.00    -0.00  -0.00  -0.00     0.00   0.00   0.00
  35   6    -0.00  -0.00   0.00    -0.00  -0.00  -0.00    -0.00  -0.00  -0.00
  36   6    -0.00  -0.00  -0.00    -0.00  -0.00   0.00    -0.00   0.00   0.00
  37   6     0.00   0.00  -0.00    -0.00  -0.00   0.00     0.00   0.00   0.00
  38   6    -0.00  -0.00  -0.00    -0.00  -0.00  -0.00     0.00   0.00   0.00
  39   6     0.00   0.00   0.00    -0.00  -0.00  -0.00     0.00   0.00   0.00
  40   6     0.00   0.00   0.00    -0.00  -0.00  -0.00     0.02   0.02   0.01
  41   6     0.01  -0.00  -0.00    -0.01   0.00   0.00     0.06  -0.00  -0.01
  42   6     0.00  -0.01  -0.01    -0.00   0.01   0.01     0.03  -0.08  -0.05
  43   6    -0.01  -0.01  -0.00     0.01   0.01   0.00    -0.13  -0.15  -0.06
  44   6    -0.00   0.00   0.00     0.00  -0.00  -0.00    -0.01  -0.00   0.00
  45   6     0.00  -0.01   0.01    -0.00   0.02  -0.01     0.00   0.00  -0.00
  46   6     0.01  -0.00   0.01    -0.01   0.00  -0.01    -0.00  -0.00  -0.00
  47   6     0.03   0.13   0.05     0.03   0.12   0.05     0.00   0.00   0.00
  48   6     0.11   0.02   0.09     0.10   0.02   0.09     0.01   0.00   0.01
  49   6     0.00   0.00  -0.00     0.00   0.00  -0.00    -0.00   0.00   0.00
  50   6     0.01  -0.01   0.00     0.01  -0.01   0.00    -0.07   0.09  -0.03
  51   6    -0.00  -0.01   0.01    -0.00  -0.01   0.00     0.02   0.05  -0.03
  52   6    -0.01  -0.00   0.00    -0.01  -0.00   0.00     0.04   0.00  -0.01
  53   6    -0.00   0.00  -0.00    -0.00   0.00  -0.00     0.01  -0.01   0.00
  54   6    -0.00   0.00  -0.00    -0.00   0.00  -0.00     0.00  -0.00   0.00
  55   1     0.00   0.00  -0.00    -0.00  -0.00   0.00     0.00   0.00  -0.00
  56   1     0.00  -0.00   0.00     0.00  -0.00   0.00     0.00  -0.00   0.00
  57   1    -0.00  -0.00   0.00     0.00  -0.00  -0.00    -0.00  -0.00   0.00
  58   1     0.00   0.00  -0.00    -0.00  -0.00   0.00     0.00   0.00  -0.00
  59   1    -0.00  -0.00   0.00     0.00  -0.00  -0.00    -0.00  -0.00   0.00
  60   1     0.00  -0.00  -0.00     0.00  -0.00  -0.00     0.00  -0.00   0.00
  61   1    -0.00   0.00  -0.00     0.00  -0.00   0.00    -0.00  -0.00   0.00
  62   1     0.00   0.00  -0.00    -0.00  -0.00   0.00    -0.00  -0.00   0.00
  63   1    -0.00  -0.00   0.00    -0.01   0.00   0.00    -0.01   0.00   0.00
  64   1    -0.00  -0.00   0.00    -0.01   0.01  -0.00    -0.03   0.05  -0.01
  65   1     0.01   0.04   0.02     0.01   0.05   0.02     0.00   0.00  -0.00
  66   1     0.03   0.01   0.03     0.04   0.01   0.03    -0.00  -0.00  -0.00
  67   1    -0.00   0.00   0.01    -0.00   0.00   0.02     0.00   0.00   0.00
  68   1    -0.00  -0.02   0.01    -0.00  -0.01   0.00     0.00  -0.00   0.00
  69   1     0.00  -0.01  -0.01    -0.00   0.01   0.00    -0.00   0.00   0.00
  70   1     0.00   0.00  -0.01    -0.00  -0.00   0.02    -0.00  -0.00   0.00
  71   1     0.08  -0.41   0.17    -0.09   0.43  -0.18    -0.01   0.03  -0.01
  72   1     0.36  -0.07   0.31    -0.37   0.07  -0.32    -0.06   0.01  -0.05
  73   1    -0.00  -0.00  -0.00    -0.01  -0.01  -0.00    -0.04  -0.06  -0.01
  74   1     0.00  -0.00  -0.00    -0.01  -0.00   0.00    -0.01  -0.00   0.00
  75   1    -0.00   0.00   0.00    -0.00   0.00   0.00     0.00  -0.00  -0.00
  76   1     0.00   0.01   0.00     0.00   0.00   0.00    -0.00  -0.00  -0.00
  77   1    -0.00   0.00   0.00    -0.00   0.00   0.00     0.00  -0.00  -0.00
  78   1     0.00  -0.00  -0.00     0.00   0.00  -0.00    -0.00  -0.00   0.00
  79   1    -0.00  -0.00   0.00     0.00   0.00  -0.00     0.00   0.00   0.00
  80   1    -0.00   0.00   0.00    -0.00   0.00   0.00     0.00  -0.00  -0.00
  81   1    -0.00  -0.00  -0.00     0.00   0.00   0.00     0.00   0.00  -0.00
  82   1     0.00  -0.00  -0.00     0.00   0.00  -0.00    -0.00   0.00   0.00
  83   1    -0.01  -0.01  -0.00     0.01   0.02   0.01    -0.05  -0.07  -0.02
  84   1    -0.04   0.00   0.01     0.04  -0.00  -0.01    -0.21   0.01   0.05
  85   1    -0.01   0.03   0.02     0.01  -0.03  -0.02    -0.10   0.25   0.16
  86   1     0.03   0.04   0.01    -0.03  -0.03  -0.01     0.45   0.53   0.20
  87   1    -0.01   0.04  -0.02     0.01  -0.05   0.02     0.00  -0.00   0.00
  88   1    -0.03   0.01  -0.03     0.04  -0.01   0.04     0.00  -0.00  -0.00
  89   1    -0.09  -0.43  -0.18    -0.09  -0.41  -0.17    -0.00  -0.02  -0.01
  90   1    -0.37  -0.07  -0.32    -0.36  -0.06  -0.31    -0.03  -0.01  -0.03
  91   1    -0.03   0.04  -0.01    -0.03   0.03  -0.01     0.26  -0.32   0.12
  92   1     0.01   0.03  -0.02     0.01   0.03  -0.02    -0.06  -0.15   0.09
  93   1     0.04   0.00  -0.01     0.04   0.00  -0.01    -0.12  -0.01   0.03
  94   1     0.01  -0.01   0.00     0.01  -0.01   0.00    -0.03   0.04  -0.01
                    274                    275                    276
                        a                      a                      a 
 Frequencies --  3104.9508              3109.2526              3113.6752
 Red. masses --     1.8698                 1.8502                 1.8364
 Frc consts  --     0.0000                 0.0000                 0.0000
 IR Inten    --    39.4312                47.3258                19.4183
 Raman Activ --     0.0000                 0.0000                 0.0000
 Depolar     --     0.0000                 0.0000                 0.0000
 Atom AN      X      Y      Z        X      Y      Z        X      Y      Z
   1   6    -0.00   0.00  -0.00     0.00  -0.00   0.00    -0.00  -0.00   0.00
   2   6     0.00   0.00  -0.00     0.00   0.00  -0.00    -0.00  -0.00   0.00
   3   6    -0.00   0.00  -0.00     0.00  -0.00  -0.00    -0.00  -0.00   0.00
   4   6     0.00  -0.00   0.00     0.00  -0.00   0.00    -0.00   0.00  -0.00
   5   6    -0.00   0.00  -0.00     0.01  -0.01   0.00    -0.00   0.00  -0.00
   6   6     0.00   0.00  -0.00    -0.01  -0.03   0.01     0.01   0.02  -0.01
   7   6    -0.00   0.00   0.00    -0.05   0.00   0.01     0.05  -0.00  -0.01
   8   6    -0.01   0.01  -0.00    -0.10   0.15  -0.02     0.10  -0.15   0.02
   9   6    -0.00   0.00  -0.00     0.00   0.01  -0.00    -0.00  -0.01   0.00
  10   7    -0.00  -0.00   0.00    -0.00   0.00   0.00     0.00  -0.00   0.00
  11   6     0.00   0.00  -0.00     0.00  -0.00   0.00    -0.00  -0.00   0.00
  12   6     0.00   0.00   0.00    -0.00  -0.02  -0.01    -0.00   0.00   0.00
  13   6     0.00  -0.00   0.00    -0.01  -0.00  -0.01    -0.01  -0.00  -0.01
  14   6     0.00  -0.00   0.00    -0.00   0.00  -0.00    -0.00  -0.00  -0.00
  15   6     0.00  -0.00   0.00    -0.00   0.00  -0.00     0.00   0.00  -0.00
  16   8    -0.00   0.00  -0.00     0.00  -0.00   0.00     0.00  -0.00   0.00
  17   6    -0.00   0.00   0.00     0.00  -0.00  -0.00    -0.00  -0.00  -0.00
  18   6    -0.00   0.00   0.00    -0.00   0.00  -0.00     0.00  -0.00  -0.00
  19   6    -0.00  -0.00   0.00     0.00   0.00  -0.00     0.00   0.00  -0.00
  20   6     0.00  -0.00  -0.00     0.00  -0.00  -0.00    -0.00   0.00   0.00
  21   6     0.00   0.00  -0.00    -0.00  -0.00  -0.00    -0.00  -0.00   0.00
  22   6     0.00   0.00  -0.00     0.00   0.00  -0.00     0.00  -0.00   0.00
  23   6    -0.00  -0.00  -0.00    -0.00  -0.00  -0.00    -0.00   0.00   0.00
  24   8     0.00   0.00   0.00     0.00   0.00   0.00    -0.00  -0.00  -0.00
  25   6    -0.00  -0.00  -0.00    -0.00  -0.00  -0.00     0.00  -0.00   0.00
  26   6     0.00  -0.01   0.00     0.00  -0.00   0.00    -0.00  -0.00  -0.00
  27   6     0.01  -0.00   0.01     0.00  -0.00   0.00     0.00   0.00   0.00
  28   6    -0.00   0.00   0.00     0.00   0.00   0.00     0.00  -0.00  -0.00
  29   7     0.00  -0.00  -0.00    -0.00  -0.00   0.00    -0.00  -0.00  -0.00
  30   6     0.00  -0.00   0.00     0.00  -0.01  -0.00     0.00  -0.01  -0.00
  31   6     0.00   0.00   0.00    -0.10  -0.15  -0.02    -0.10  -0.16  -0.02
  32   6    -0.00  -0.00   0.00    -0.05  -0.00   0.01    -0.05  -0.00   0.01
  33   6    -0.00   0.00   0.00    -0.01   0.03   0.01    -0.01   0.02   0.01
  34   6     0.00   0.00   0.00     0.01   0.01   0.00     0.00   0.00   0.00
  35   6    -0.00  -0.00  -0.00     0.00   0.00   0.00     0.00   0.00   0.00
  36   6    -0.00   0.00   0.00     0.00  -0.00  -0.00     0.00  -0.00  -0.00
  37   6     0.00   0.00   0.00     0.00   0.00  -0.00     0.00  -0.00  -0.00
  38   6     0.00   0.00   0.00     0.00   0.00   0.00     0.00  -0.00  -0.00
  39   6     0.00   0.00   0.00     0.00   0.00  -0.00     0.00  -0.00  -0.00
  40   6     0.01   0.01   0.00     0.00   0.00   0.00     0.00   0.00   0.00
  41   6     0.04  -0.00  -0.01     0.01  -0.00  -0.00     0.00   0.00  -0.00
  42   6     0.02  -0.05  -0.03     0.00  -0.01  -0.00     0.00  -0.00  -0.00
  43   6    -0.07  -0.09  -0.04    -0.01  -0.01  -0.00    -0.00  -0.00  -0.00
  44   6    -0.00  -0.00   0.00    -0.00   0.00   0.00    -0.00   0.00   0.00
  45   6    -0.00   0.00  -0.00    -0.00   0.02  -0.01     0.00   0.00  -0.00
  46   6    -0.00   0.00  -0.00    -0.01   0.00  -0.01     0.01  -0.00   0.00
  47   6    -0.00  -0.01  -0.00     0.00   0.00   0.00     0.00  -0.00   0.00
  48   6    -0.02  -0.00  -0.02     0.00   0.00   0.00    -0.00   0.00  -0.00
  49   6     0.01  -0.00  -0.00    -0.00  -0.00   0.00     0.00   0.00  -0.00
  50   6     0.13  -0.15   0.06    -0.01   0.01  -0.00     0.00  -0.00   0.00
  51   6    -0.03  -0.08   0.05     0.00   0.01  -0.00    -0.00  -0.00   0.00
  52   6    -0.06  -0.00   0.01     0.01   0.00  -0.00    -0.00   0.00   0.00
  53   6    -0.02   0.02  -0.01     0.00  -0.00   0.00    -0.00   0.00  -0.00
  54   6    -0.00   0.00  -0.00     0.00  -0.00  -0.00    -0.00  -0.00   0.00
  55   1    -0.00  -0.00   0.00     0.00   0.00  -0.00     0.00   0.00  -0.00
  56   1     0.00   0.00   0.00     0.00  -0.00  -0.00     0.00  -0.00   0.00
  57   1     0.00  -0.00  -0.00    -0.00   0.00   0.00     0.00  -0.00  -0.00
  58   1    -0.00  -0.00   0.00     0.00   0.00  -0.00     0.00   0.00  -0.00
  59   1     0.00  -0.00  -0.00    -0.00   0.00   0.00     0.00  -0.00  -0.00
  60   1    -0.00   0.00  -0.00     0.00   0.00   0.00    -0.00  -0.00  -0.00
  61   1     0.00  -0.01   0.00    -0.02   0.03  -0.01     0.01  -0.01   0.00
  62   1    -0.00  -0.01   0.00     0.04   0.09  -0.04    -0.02  -0.05   0.02
  63   1     0.00  -0.00  -0.00     0.17  -0.01  -0.04    -0.14   0.00   0.04
  64   1     0.02  -0.03   0.00     0.35  -0.54   0.09    -0.35   0.54  -0.09
  65   1    -0.00  -0.01  -0.00     0.01   0.07   0.03    -0.00  -0.00  -0.00
  66   1    -0.00  -0.00  -0.00     0.04   0.01   0.03     0.02   0.00   0.02
  67   1     0.00  -0.00  -0.00    -0.00   0.00   0.00    -0.00   0.00   0.00
  68   1     0.00   0.00  -0.00    -0.00  -0.00   0.00    -0.00  -0.00   0.00
  69   1    -0.00   0.00   0.00    -0.00   0.00   0.00     0.00  -0.00  -0.00
  70   1    -0.00  -0.00   0.00    -0.00  -0.00   0.00     0.00   0.00  -0.00
  71   1    -0.00   0.02  -0.01    -0.00   0.01  -0.00     0.00  -0.00   0.00
  72   1    -0.04   0.01  -0.03    -0.01   0.00  -0.01    -0.00   0.00  -0.00
  73   1    -0.00  -0.00  -0.00     0.34   0.52   0.08     0.36   0.56   0.09
  74   1     0.00   0.00  -0.00     0.16   0.01  -0.04     0.15   0.00  -0.04
  75   1     0.00  -0.01  -0.00     0.04  -0.09  -0.04     0.03  -0.05  -0.02
  76   1    -0.00  -0.01  -0.00    -0.02  -0.03  -0.01    -0.01  -0.01  -0.00
  77   1     0.00  -0.00  -0.00     0.00  -0.00  -0.00    -0.00   0.00   0.00
  78   1    -0.00  -0.00   0.00    -0.00  -0.00   0.00    -0.00  -0.00   0.00
  79   1     0.00   0.00   0.00     0.00  -0.00   0.00     0.00  -0.00   0.00
  80   1     0.00  -0.00  -0.00     0.00  -0.00  -0.00     0.00   0.00   0.00
  81   1    -0.00   0.00  -0.00     0.00   0.00  -0.00    -0.00  -0.00  -0.00
  82   1    -0.00  -0.00   0.00    -0.00  -0.00   0.00    -0.00  -0.00   0.00
  83   1    -0.03  -0.04  -0.01    -0.01  -0.01  -0.00     0.00  -0.00  -0.00
  84   1    -0.12   0.01   0.03    -0.02   0.00   0.00    -0.00   0.00   0.00
  85   1    -0.06   0.15   0.09    -0.01   0.02   0.01    -0.00   0.01   0.00
  86   1     0.26   0.31   0.12     0.03   0.04   0.01     0.01   0.01   0.00
  87   1     0.00  -0.01   0.00     0.01  -0.07   0.03     0.00  -0.01   0.00
  88   1     0.00  -0.00   0.00     0.04  -0.01   0.04    -0.02   0.00  -0.02
  89   1     0.01   0.03   0.01    -0.00  -0.01  -0.00    -0.00  -0.00  -0.00
  90   1     0.06   0.01   0.05    -0.01  -0.00  -0.01     0.00   0.00   0.00
  91   1    -0.44   0.53  -0.20     0.03  -0.04   0.02    -0.01   0.01  -0.00
  92   1     0.11   0.25  -0.16    -0.01  -0.02   0.01     0.00   0.01  -0.00
  93   1     0.21   0.01  -0.05    -0.02  -0.00   0.00     0.00   0.00  -0.00
  94   1     0.05  -0.07   0.02    -0.01   0.01  -0.00    -0.00   0.00  -0.00
