$hessian                                                                        
        0.6527358240  -0.0119115126  -0.0234150778  -0.1537632083  -0.0601040954
        0.0053522298   0.0588913820  -0.0289667715  -0.0021653009  -0.0447483140
       -0.0298278938   0.0018296888  -0.0014215978   0.0007965869   0.0001440000
       -0.0000124291  -0.0014760886  -0.0000441153  -0.0006016418   0.0004843176
        0.0000178456  -0.0000619791  -0.0001148700  -0.0000030393   0.0000605697
       -0.0000351533   0.0000009888   0.0000401647   0.0000107204   0.0000021573
       -0.0000055738   0.0000003390   0.0000025587  -0.0000197998  -0.0000374630
       -0.0000017866  -0.0000250943   0.0000736882  -0.0000011151   0.0005020143
        0.0001975974  -0.0000126943  -0.0000045125  -0.0002288788   0.0000206172
       -0.0000008459   0.0000061343  -0.0000093197   0.0000303714  -0.0000131264
       -0.0000076507  -0.0000409424   0.0000339590   0.0000071284   0.0000146305
       -0.0000297812  -0.0000010577  -0.0000187036  -0.0000030108   0.0000137936
       -0.0000003744   0.0000027244  -0.0000030180  -0.0000001278  -0.0000013606
       -0.0000000855  -0.0000052545  -0.0000024472   0.0000051031  -0.0000054889
        0.0000086406  -0.0000001964   0.0000008946  -0.0000104540   0.0000030234
        0.0000059371   0.0000027460  -0.0000055725   0.0000013689  -0.0000049718
        0.0000003697  -0.0000030528   0.0000073586  -0.0000012847  -0.0000000803
       -0.0000007725  -0.0000001152  -0.0000014646   0.0000029813   0.0000009221
        0.0000047628   0.0000200275  -0.0000095018  -0.0000489776  -0.0000010321
        0.0000022121   0.0000301675   0.0000006182  -0.0000004636  -0.0000084289
        0.0000135648  -0.0000048618  -0.0000000437  -0.0000041634   0.0000029322
       -0.0000003029   0.0000028169  -0.0000037507  -0.0000040380   0.0000036915
       -0.0000031532  -0.0000075444  -0.0000020265   0.0000011650   0.0000072642
        0.0000051455  -0.0000054791   0.0000035882  -0.0000018362   0.0000032349
        0.0000020030  -0.0000016376  -0.0000001893  -0.0000078809  -0.0000049824
        0.0000049345   0.0000038214   0.0000027784  -0.0000033423  -0.0000052219
        0.0000017004  -0.0000057694  -0.0000036479  -0.0000112335   0.0000077118
        0.0000201084   0.0000190209   0.0000096061   0.0000067034  -0.0000226133
        0.0000178981  -0.0000008138   0.0000421557  -0.0000111832   0.0000083784
       -0.0000096751  -0.0000010391  -0.0000012727   0.0000005411  -0.0000308339
        0.0000082275  -0.0000240461   0.0000134771  -0.0000096736  -0.0000120268
       -0.0000024854   0.0000009718   0.0000030372  -0.0000057925  -0.0000071686
        0.0000118889  -0.0000093936   0.0000040398  -0.0000037554  -0.0000032814
       -0.0000159949  -0.0000113078  -0.0000008772   0.0000080837   0.0000125057
       -0.0000001486  -0.0000016334   0.0000007087  -0.0000016473   0.0000017310
       -0.0000035771   0.0000063511  -0.0000219415  -0.0000225952  -0.0000126867
       -0.0000576093   0.0003698318  -0.0000405731  -0.0376228546   0.0846088753
        0.0007393627  -0.3267136095  -0.0428925777   0.0128412734  -0.1095833456
        0.1120908456   0.0019717134  -0.0185183756  -0.0262173928   0.0011614058
       -0.0006919035   0.0031180093   0.0003843927   0.0000222268  -0.0000027295
       -0.0000012674  -0.0000144870  -0.0000023936  -0.0000005895   0.0000085955
       -0.0000039519  -0.0000007679  -0.0000042481   0.0000004597   0.0000005089
       -0.0000011318  -0.0000097562  -0.0000002864  -0.0000115772   0.0000044840
        0.0000005983   0.0000025480   0.0000013846  -0.0000016973   0.0000006630
        0.0000019230   0.0000005355   0.0000018277  -0.0000005753  -0.0000016150
        0.0000012995  -0.0000021740   0.0000008800  -0.0000007133  -0.0000019853
        0.0000019824  -0.0000021960   0.0000012363   0.0000013212  -0.0000005043
       -0.0000072745   0.0000004547   0.0000000794  -0.0000007270   0.0000010685
       -0.0000002071  -0.0000015824   0.0000026676   0.0000026298  -0.0000008674
        0.0000014130   0.0000016322  -0.0000001078   0.0000001076   0.0000010067
        0.0000031958  -0.0000016030  -0.0000011184  -0.0000004787   0.0000009942
        0.0000001757   0.0000027942  -0.0000013418   0.0000098200   0.0000286402
       -0.0000121929  -0.0000093300  -0.0000052985   0.0000189339  -0.0000023306
        0.0000016910  -0.0000019068   0.0000051408   0.0000053591   0.0000047411
        0.0000060194  -0.0000003930   0.0000038573  -0.0000001589  -0.0000049416
        0.0000038798   0.0000018730  -0.0000018656   0.0000032813   0.0000605163
        0.0000448110   0.0000216876  -0.0007315543   0.0027940507   0.0003855189
       -0.0176667362  -0.0027833542   0.0008286213
       -0.0119115126   0.6664853909  -0.0059501998  -0.1399158318  -0.2690289310
        0.0087846808   0.0304280606  -0.0688613934  -0.0004599139  -0.0298223117
       -0.0113366762   0.0012516978   0.0007507185  -0.0023014117   0.0000367269
        0.0003501948   0.0005706521  -0.0000381176   0.0001448741  -0.0001321049
        0.0000058372   0.0000369282   0.0000674100  -0.0000034697  -0.0000605582
        0.0000119557  -0.0000044709  -0.0000031375  -0.0000081343  -0.0000004197
       -0.0000001564  -0.0000383419   0.0000005840   0.0000033931  -0.0000387878
        0.0000016047   0.0000252711  -0.0000015495  -0.0000002323   0.0001684616
        0.0003217585  -0.0000089874   0.0001704081  -0.0008065993   0.0000126313
       -0.0001440312  -0.0000160554  -0.0000129061   0.0000320403  -0.0000518730
        0.0000014580   0.0000010037  -0.0000597920   0.0000065676  -0.0000392569
        0.0000546958   0.0000138658   0.0000231288  -0.0000024347  -0.0000089516
       -0.0000076447  -0.0000003265   0.0000072744   0.0000123026  -0.0000047249
       -0.0000093243   0.0000043383   0.0000015902  -0.0000033666  -0.0000016742
       -0.0000041884   0.0000037378   0.0000037619   0.0000060011  -0.0000068259
        0.0000024484  -0.0000081579   0.0000057529  -0.0000034111   0.0000104248
       -0.0000001095   0.0000052812  -0.0000079269  -0.0000004242   0.0000021502
       -0.0000081116   0.0000044524   0.0000054998   0.0000030570  -0.0000088371
       -0.0000123878  -0.0000181658   0.0000066691   0.0001024260  -0.0000227000
       -0.0000060382  -0.0001135462   0.0000054110  -0.0000016158   0.0000271229
       -0.0000371890   0.0000111701  -0.0000056848   0.0000098726  -0.0000101236
        0.0000152092  -0.0000058489   0.0000058376  -0.0000037176  -0.0000047952
        0.0000040013   0.0000001691   0.0000080375  -0.0000051736  -0.0000086886
       -0.0000120943   0.0000098743   0.0000096451   0.0000130083  -0.0000125695
       -0.0000209079  -0.0000068664   0.0000025041   0.0000096063  -0.0000010576
        0.0000021717   0.0000118422   0.0000128268  -0.0000160272  -0.0000107276
       -0.0000079980   0.0000053896   0.0000244448   0.0000348870  -0.0000069054
        0.0000358092   0.0000558652  -0.0000076009  -0.0000516130  -0.0000690568
       -0.0000181886  -0.0000043389   0.0000574314  -0.0000167968  -0.0000176655
       -0.0000333239  -0.0000121926   0.0000228360   0.0000375695  -0.0000073171
       -0.0000006730  -0.0000064003   0.0000073688  -0.0000065136  -0.0000165602
        0.0000019465  -0.0000063184   0.0000193495  -0.0000212649   0.0000090498
       -0.0000052138   0.0000109574  -0.0000087744  -0.0000185789   0.0000001533
       -0.0000057645   0.0000081940  -0.0000043677   0.0000061135   0.0000083503
        0.0000008044   0.0000030170  -0.0000022360   0.0000037888   0.0000542389
        0.0000188251   0.0000361158   0.0000018387   0.0000764085   0.0000200694
       -0.0014562626   0.0005732135   0.0000235047   0.0251850280   0.0277577532
       -0.0014361636   0.0368808996  -0.0960614240  -0.0010468284   0.1120758631
       -0.2354808522  -0.0025717014  -0.0023388464  -0.0014244640   0.0001141567
        0.0027791147  -0.0040614420   0.0000438393   0.0000663574   0.0000501690
        0.0000084309   0.0000131032  -0.0000070639   0.0000008328   0.0000060344
        0.0000005123   0.0000000983  -0.0000066664   0.0000084819  -0.0000009978
       -0.0000066596  -0.0000061155  -0.0000009305  -0.0000014575   0.0000063084
       -0.0000037603   0.0000001074   0.0000029601  -0.0000009704   0.0000003564
       -0.0000006094   0.0000014443  -0.0000011583   0.0000011461   0.0000033628
        0.0000009725  -0.0000002820  -0.0000004038   0.0000008986   0.0000007268
        0.0000000705   0.0000003602  -0.0000010447   0.0000003729  -0.0000048986
        0.0000039660   0.0000024079  -0.0000032160  -0.0000015108   0.0000010183
        0.0000010707   0.0000003240  -0.0000001430  -0.0000007650   0.0000027856
       -0.0000026687   0.0000010092   0.0000003829   0.0000007751  -0.0000050063
        0.0000013351   0.0000034368   0.0000012738  -0.0000054580   0.0000042036
       -0.0000057676  -0.0000004820  -0.0000004917  -0.0000116324   0.0000009252
        0.0000054051   0.0000039073  -0.0000050215   0.0000020018   0.0000019508
       -0.0000034066   0.0000033877   0.0000004902   0.0000006396  -0.0000010821
        0.0000007866  -0.0000020308   0.0000001487  -0.0000019902  -0.0000027564
        0.0000001976  -0.0000011473  -0.0000023660  -0.0000000408  -0.0000186961
        0.0000071797  -0.0000076072   0.0031588589  -0.0040314169   0.0000273639
       -0.0266310589  -0.0022344288   0.0012243748
       -0.0234150778  -0.0059501998   0.1195527412   0.0063075660   0.0051777568
       -0.0488973886  -0.0029413571   0.0021249640   0.0013562295   0.0020323104
        0.0013835098  -0.0069394958   0.0000530865  -0.0000110797  -0.0002434972
       -0.0000089991   0.0000805407  -0.0000247979   0.0000224237  -0.0000250154
        0.0000498629   0.0000003816   0.0000081379  -0.0000129597   0.0000021138
        0.0000004164  -0.0000035538  -0.0000017332   0.0000024950   0.0000010894
       -0.0000032098   0.0000007196   0.0000003639   0.0000032768  -0.0000001082
        0.0000017536   0.0000017029  -0.0000019048   0.0000006550  -0.0000285518
       -0.0000162576  -0.0000127503  -0.0000028830   0.0000230292   0.0000493351
        0.0000049944  -0.0000045244  -0.0000138795   0.0000002594   0.0000009086
        0.0000012487   0.0000010312  -0.0000020987   0.0000008214  -0.0000008383
        0.0000024461   0.0000010871   0.0000004577   0.0000011150  -0.0000012701
        0.0000007297  -0.0000012538   0.0000007700  -0.0000018480   0.0000014981
        0.0000008821   0.0000011728  -0.0000005902  -0.0000002509   0.0000020722
       -0.0000013402  -0.0000006986  -0.0000010298   0.0000009074   0.0000007837
        0.0000000572  -0.0000004700   0.0000000952   0.0000001694   0.0000001571
        0.0000002712  -0.0000005758   0.0000001440   0.0000002829  -0.0000000286
       -0.0000000678   0.0000001353   0.0000000464  -0.0000007159   0.0000006139
       -0.0000006769   0.0000012732  -0.0000011371   0.0000023132  -0.0000025230
       -0.0000003760  -0.0000017144  -0.0000001238   0.0000009517  -0.0000003116
        0.0000004339  -0.0000011605  -0.0000008103   0.0000002107   0.0000002735
        0.0000012297  -0.0000003842   0.0000006306  -0.0000000927   0.0000002681
        0.0000000301  -0.0000008764   0.0000007050  -0.0000003453   0.0000007198
       -0.0000005215   0.0000008980  -0.0000007307   0.0000002048  -0.0000005395
       -0.0000000871   0.0000009213   0.0000001408   0.0000010243  -0.0000004386
        0.0000002495  -0.0000002207  -0.0000000071  -0.0000001782   0.0000007850
        0.0000000330   0.0000003009   0.0000015175  -0.0000001468  -0.0000006090
        0.0000013925  -0.0000051286  -0.0000004251  -0.0000000762  -0.0000005511
        0.0000016291   0.0000007924  -0.0000009341   0.0000008635   0.0000000655
        0.0000036973   0.0000018698  -0.0000009306   0.0000021513  -0.0000007536
        0.0000011207   0.0000006421   0.0000009639  -0.0000014017  -0.0000016038
       -0.0000001176  -0.0000001346   0.0000007122  -0.0000003710  -0.0000001262
        0.0000003193  -0.0000004587  -0.0000000380  -0.0000007882   0.0000017512
       -0.0000005320   0.0000009202  -0.0000014413  -0.0000003488   0.0000006296
       -0.0000000209  -0.0000002783  -0.0000001748   0.0000002780  -0.0000005546
       -0.0000004134  -0.0000004013  -0.0000001535   0.0000051256  -0.0000000176
        0.0000311425  -0.0000412743  -0.0000280106   0.0014024584  -0.0040947445
        0.0012252911   0.0118015018   0.0025099607  -0.0491305000   0.0019692249
       -0.0025639881  -0.0351543530   0.0008873664   0.0011906919   0.0008054073
        0.0003696496   0.0000072659   0.0082948818  -0.0000026215  -0.0000033129
        0.0000068111   0.0000000525  -0.0000007660  -0.0000004273   0.0000001891
        0.0000000642  -0.0000003045   0.0000000642   0.0000001836  -0.0000002412
        0.0000003370  -0.0000003158  -0.0000006157   0.0000001406   0.0000005188
       -0.0000006518   0.0000000125  -0.0000004407  -0.0000001728  -0.0000000906
       -0.0000004395   0.0000000730  -0.0000003956  -0.0000000356   0.0000002304
       -0.0000002304   0.0000002651  -0.0000001081   0.0000001468   0.0000000145
       -0.0000001112   0.0000001757  -0.0000000687  -0.0000002314   0.0000000961
        0.0000004727  -0.0000002713  -0.0000002713   0.0000000108  -0.0000002675
       -0.0000001734  -0.0000001121  -0.0000000574  -0.0000001009  -0.0000002534
        0.0000001488  -0.0000000329  -0.0000000271  -0.0000000540  -0.0000003292
       -0.0000001491   0.0000001212  -0.0000002322  -0.0000001456   0.0000000124
        0.0000001081   0.0000000003  -0.0000002213   0.0000029910  -0.0000030420
        0.0000000376  -0.0000009556   0.0000017093  -0.0000018306  -0.0000013516
       -0.0000013138  -0.0000006735   0.0000002382  -0.0000000118  -0.0000002162
       -0.0000000487   0.0000000623  -0.0000001541   0.0000001083  -0.0000001541
       -0.0000000269  -0.0000001582  -0.0000000453  -0.0000006081  -0.0000087527
        0.0000004365   0.0000032101   0.0003681422   0.0000389082   0.0083070798
        0.0011530137   0.0001624476   0.0008058464
       -0.1537632083  -0.1399158318   0.0063075660   0.6756539780  -0.0044699895
       -0.0246956284  -0.1581456270   0.1455404404   0.0031616867  -0.0343911243
        0.0252597155   0.0013846014  -0.0060869379  -0.0002284154   0.0006213860
        0.0006994828  -0.0015517616  -0.0000745312  -0.0004067410   0.0005961350
       -0.0000115925  -0.0000591106  -0.0002194093  -0.0000025672   0.0000087569
        0.0000228605  -0.0000085362   0.0000830895  -0.0000582434   0.0000045392
        0.0000406485   0.0000039103   0.0000014163  -0.0000663506   0.0000091298
       -0.0000020096  -0.0000713589   0.0000540435   0.0000006589   0.0004042884
       -0.0002851278   0.0000323864  -0.0007894495   0.0003968722  -0.0000939291
        0.0000900389   0.0001486255   0.0000164641  -0.0000495974   0.0000586604
       -0.0000080004  -0.0000223998   0.0001083253   0.0000018634   0.0000610813
       -0.0000858597  -0.0000159919  -0.0000409034   0.0000032189   0.0000167132
        0.0000128384   0.0000001577  -0.0000109996  -0.0000160103   0.0000064890
        0.0000119365  -0.0000043814  -0.0000028004   0.0000041024   0.0000030850
        0.0000069424  -0.0000055342  -0.0000036430  -0.0000127231   0.0000104564
        0.0000010517   0.0000096904  -0.0000102402   0.0000087646  -0.0000157278
       -0.0000007533  -0.0000060891   0.0000114863  -0.0000011201  -0.0000000563
        0.0000079701  -0.0000054347  -0.0000101740   0.0000001286   0.0000148681
        0.0000174660   0.0000318485  -0.0000147409  -0.0001418809   0.0000344411
        0.0000084465   0.0001597645  -0.0000036920   0.0000033846  -0.0000405043
        0.0000565407  -0.0000213554   0.0000067502  -0.0000129168   0.0000136125
       -0.0000189160   0.0000073933  -0.0000074454   0.0000073714   0.0000072583
       -0.0000063743  -0.0000011120  -0.0000101704   0.0000062052   0.0000135859
        0.0000179260  -0.0000143675  -0.0000103512  -0.0000186035   0.0000177567
        0.0000299485   0.0000093937  -0.0000029194  -0.0000133657   0.0000019043
       -0.0000037496  -0.0000153028  -0.0000139065   0.0000191880   0.0000153502
        0.0000111171  -0.0000071858  -0.0000369821  -0.0000563750   0.0000149335
       -0.0000262480  -0.0000900685   0.0000076371   0.0000696067   0.0000949011
        0.0000224482   0.0000141887  -0.0000785275   0.0000296751   0.0000122554
        0.0000249069   0.0000028522  -0.0000189394  -0.0000419870   0.0000208125
        0.0000016923   0.0000173953  -0.0000054721   0.0000075398   0.0000151524
       -0.0000000479   0.0000123166  -0.0000152780   0.0000273101  -0.0000077489
        0.0000076946  -0.0000100358   0.0000088106   0.0000211292  -0.0000003953
        0.0000040660  -0.0000041811   0.0000001061  -0.0000063337  -0.0000082769
       -0.0000013906  -0.0000043561  -0.0000008443  -0.0000031403  -0.0000710211
       -0.0000158246  -0.0000508053   0.0000058771  -0.0001093002  -0.0000168064
       -0.0005016619   0.0010800414  -0.0000079005   0.0037314678   0.0006361864
       -0.0003999879  -0.0340693541  -0.0267061868   0.0018433646   0.0066483530
        0.0125682994  -0.0003652277  -0.3003320925  -0.0012628761   0.0117716299
        0.0065551707  -0.0114259014  -0.0000694571   0.0000893803   0.0001151216
        0.0000124247  -0.0000201954  -0.0000087697  -0.0000019984  -0.0000077330
       -0.0000225282  -0.0000003246   0.0000070491  -0.0000237531   0.0000002141
        0.0000073462   0.0000017150  -0.0000006015  -0.0000145942  -0.0000014157
        0.0000072042   0.0000009639  -0.0000046090   0.0000010360   0.0000010761
        0.0000010249  -0.0000026338   0.0000031478  -0.0000015057  -0.0000040065
        0.0000001298  -0.0000006829   0.0000005775   0.0000004073  -0.0000026268
        0.0000009072  -0.0000018670   0.0000016238  -0.0000006401   0.0000036991
       -0.0000077012  -0.0000038411   0.0000031954   0.0000004969  -0.0000006741
       -0.0000014667  -0.0000011579   0.0000006562   0.0000019920  -0.0000033840
        0.0000033516   0.0000005368  -0.0000007754  -0.0000008611   0.0000068231
       -0.0000006007  -0.0000040422   0.0000005096   0.0000066286  -0.0000058778
        0.0000057606  -0.0000019527  -0.0000000338   0.0000037908  -0.0000022514
       -0.0000013613  -0.0000031595   0.0000037299  -0.0000178395   0.0000003515
        0.0000105963  -0.0000051362  -0.0000001015   0.0000025252   0.0000003056
        0.0000006194   0.0000027717   0.0000009335   0.0000025328   0.0000015139
        0.0000004969   0.0000004311   0.0000015956   0.0000000789   0.0000063295
        0.0000246405  -0.0000009642   0.0007970112   0.0000744833  -0.0000319329
       -0.0060333181  -0.0003322780   0.0006102486
       -0.0601040954  -0.2690289310   0.0051777568  -0.0044699895   0.6487600457
       -0.0061634787   0.0679907870  -0.2764683733  -0.0003830367   0.0806914191
        0.0211695830  -0.0035591580  -0.0030297467   0.0061572586   0.0001056498
       -0.0006693884  -0.0014433166   0.0000085613  -0.0003013367   0.0006905650
       -0.0000171433  -0.0000746555  -0.0000760784   0.0000006500   0.0000008141
        0.0000364379  -0.0000136664   0.0000609420  -0.0000452794   0.0000013075
       -0.0000091757  -0.0000083576   0.0000022891  -0.0000172802  -0.0000070671
       -0.0000020654  -0.0000263551   0.0000421573   0.0000004511   0.0000239968
       -0.0008512323   0.0000171073  -0.0006265432   0.0014284828  -0.0000298980
        0.0001978608  -0.0000141101   0.0000101605  -0.0000492214   0.0001221049
        0.0000110140   0.0000339152   0.0001050396  -0.0000076190   0.0000623488
       -0.0000484314  -0.0000107117  -0.0000487809   0.0000001588   0.0000296084
        0.0000120012   0.0000001599  -0.0000103562  -0.0000100275   0.0000026395
        0.0000082127  -0.0000014941  -0.0000037221   0.0000027230  -0.0000010713
        0.0000057279  -0.0000017019   0.0000051214  -0.0000133417   0.0000019371
       -0.0000020686   0.0000099524  -0.0000073356   0.0000142052  -0.0000188058
        0.0000000255  -0.0000061508   0.0000056459   0.0000012711   0.0000032781
        0.0000070820  -0.0000056170  -0.0000152445   0.0000027062   0.0000185289
        0.0000123606   0.0000282360  -0.0000198056  -0.0001381315  -0.0000073356
       -0.0000121846   0.0001660148   0.0000178413  -0.0000037662  -0.0000302000
        0.0000543753  -0.0000188826   0.0000029074  -0.0000122220   0.0000158191
       -0.0000134726   0.0000083682  -0.0000082664   0.0000078592   0.0000080455
       -0.0000064852   0.0000000446  -0.0000104615   0.0000070097   0.0000105710
        0.0000174958  -0.0000128599   0.0000107092  -0.0000175130   0.0000134238
        0.0000193673   0.0000130665  -0.0000010320  -0.0000070363  -0.0000049437
        0.0000009642  -0.0000048006  -0.0000068542   0.0000141099   0.0000131154
        0.0000104032  -0.0000045678  -0.0000508558  -0.0000708763   0.0000214316
       -0.0000547819  -0.0001903585  -0.0000194260   0.0000724137   0.0001705896
       -0.0000089463   0.0000439104  -0.0001376583   0.0000670476  -0.0000282368
        0.0000180620  -0.0000135026   0.0000067040  -0.0000134281   0.0000378499
        0.0000051150   0.0000236556   0.0000022117  -0.0000016848  -0.0000042761
        0.0000052266   0.0000234933   0.0000209893   0.0000177129  -0.0000031002
       -0.0000069333  -0.0000041091   0.0000150396   0.0000236884   0.0000126229
        0.0000030497   0.0000078495  -0.0000076356  -0.0000168378  -0.0000127511
       -0.0000102452   0.0000134433  -0.0000144442   0.0000236525  -0.0000651892
        0.0000211595  -0.0000508837   0.0000539567  -0.0000902230   0.0000114356
        0.0032219250  -0.0008257210  -0.0000584746   0.0014454367  -0.0635935118
        0.0006452815  -0.0838452840   0.0279586814   0.0033786153  -0.0112725814
       -0.0260589537   0.0008383159  -0.0012539538  -0.0438136334   0.0002046863
        0.0116318585  -0.0248496567  -0.0002399113   0.0000025393   0.0001263307
        0.0000238834  -0.0000099466   0.0000038517  -0.0000003080   0.0000039610
       -0.0000204849   0.0000000874   0.0000021108  -0.0000176651   0.0000002463
        0.0000061318   0.0000050669   0.0000002381  -0.0000172734   0.0000169519
        0.0000157351  -0.0000037605  -0.0000022868   0.0000037490   0.0000033547
        0.0000016582  -0.0000035602   0.0000039069  -0.0000017037  -0.0000039608
        0.0000020652  -0.0000017294  -0.0000000753   0.0000017806  -0.0000048122
        0.0000008372  -0.0000024435   0.0000001043   0.0000000164   0.0000013861
       -0.0000018085  -0.0000082425  -0.0000013896   0.0000020752  -0.0000044707
       -0.0000012680  -0.0000025183   0.0000015726   0.0000037470  -0.0000031668
        0.0000025814   0.0000032027  -0.0000014416  -0.0000010732   0.0000040886
        0.0000007372  -0.0000051823   0.0000008155   0.0000055817  -0.0000065958
       -0.0000031275  -0.0000093274   0.0000001726  -0.0000032066  -0.0000369241
        0.0000074123  -0.0000015039   0.0000090691  -0.0000326578   0.0000038536
        0.0000097912  -0.0000096876  -0.0000015465   0.0000024752  -0.0000049533
        0.0000006052   0.0000032514  -0.0000008753   0.0000005303   0.0000013802
       -0.0000006456  -0.0000004312   0.0000060868  -0.0000083733  -0.0000516713
       -0.0000769298  -0.0000153846   0.0001921566  -0.0004993202  -0.0000295339
        0.0002341202   0.0013062546   0.0000771503
        0.0053522298   0.0087846808  -0.0488973886  -0.0246956284  -0.0061634787
        0.1173142100   0.0041237600  -0.0036303575  -0.0475576542   0.0004944691
       -0.0014929621   0.0020258345   0.0006806457   0.0000650358   0.0080548542
       -0.0001196707   0.0002353638  -0.0005985873   0.0000646385  -0.0000394952
       -0.0004233974  -0.0000001025   0.0000101057   0.0000847598  -0.0000033818
        0.0000038872   0.0000046820  -0.0000059406   0.0000022453  -0.0000081420
       -0.0000026404  -0.0000006836   0.0000011118   0.0000060372   0.0000004264
       -0.0000081111   0.0000065862  -0.0000060601   0.0000091063  -0.0000537311
       -0.0000071452   0.0003449705   0.0000954629   0.0000412220  -0.0009342365
       -0.0000083523  -0.0000127143   0.0000493420   0.0000030355  -0.0000071674
        0.0000130132   0.0000018304  -0.0000029998  -0.0000071142  -0.0000014726
        0.0000010432   0.0000007676   0.0000032639   0.0000011750  -0.0000038094
        0.0000003535  -0.0000014726   0.0000012354  -0.0000025268   0.0000023239
        0.0000008143   0.0000017529  -0.0000007093  -0.0000006117   0.0000026552
       -0.0000020427  -0.0000007764  -0.0000019213   0.0000019135   0.0000010319
        0.0000005599  -0.0000005009  -0.0000001962  -0.0000000471   0.0000004927
        0.0000004663  -0.0000004842  -0.0000008508   0.0000007658   0.0000000641
       -0.0000001880   0.0000000902   0.0000005385  -0.0000000567  -0.0000004155
       -0.0000022317   0.0000009737   0.0000003819   0.0000072263  -0.0000021962
       -0.0000007286  -0.0000034043  -0.0000026299   0.0000039283  -0.0000010843
       -0.0000000730  -0.0000010751  -0.0000002307   0.0000005803  -0.0000001354
        0.0000002880  -0.0000006571   0.0000008875   0.0000004405  -0.0000005366
        0.0000007056   0.0000000171   0.0000011080  -0.0000007829   0.0000004917
       -0.0000013103   0.0000014255  -0.0000050597  -0.0000000480  -0.0000000820
        0.0000026038   0.0000008176  -0.0000002018   0.0000013290   0.0000012453
       -0.0000011760  -0.0000020650  -0.0000008094   0.0000002111   0.0000007052
        0.0000000054   0.0000003268   0.0000028396   0.0000022154  -0.0000015332
        0.0000002188   0.0000079240  -0.0000054073   0.0000011258  -0.0000072231
        0.0000046986  -0.0000021209   0.0000054057  -0.0000041177   0.0000021794
        0.0000024060   0.0000014475  -0.0000016942  -0.0000021519  -0.0000006610
       -0.0000003693  -0.0000008574   0.0000003912   0.0000001737   0.0000022462
       -0.0000006579  -0.0000010080  -0.0000026995   0.0000005510   0.0000007843
        0.0000022191  -0.0000004485  -0.0000008494  -0.0000000927   0.0000001429
        0.0000005991  -0.0000001735   0.0000008549   0.0000012904   0.0000007957
        0.0000016209  -0.0000020349   0.0000005569  -0.0000016457  -0.0000022408
       -0.0000034068  -0.0000017018   0.0000003123   0.0000042840   0.0000000213
        0.0000486591  -0.0001613291  -0.0001202412  -0.0004168030   0.0006764079
       -0.0056878852   0.0025580111   0.0008198342   0.0011680138  -0.0000988299
       -0.0002291515   0.0014342648   0.0117588857   0.0001860328  -0.0353497811
       -0.0003593900   0.0008307049   0.0014463079  -0.0000049871  -0.0000038071
       -0.0000114068   0.0000029318   0.0000015963  -0.0000019797   0.0000007212
        0.0000018669   0.0000025456  -0.0000002052   0.0000019283  -0.0000016138
       -0.0000004439  -0.0000001364   0.0000017950   0.0000035201  -0.0000026803
        0.0000017590   0.0000001445  -0.0000002247  -0.0000003272  -0.0000000153
       -0.0000005706   0.0000002091  -0.0000005842  -0.0000002024   0.0000005445
       -0.0000002547   0.0000002494  -0.0000001605   0.0000001649   0.0000001926
       -0.0000002071   0.0000003304  -0.0000002996  -0.0000001661  -0.0000001207
        0.0000007302  -0.0000003594  -0.0000004150  -0.0000001496  -0.0000001475
        0.0000002911  -0.0000002018  -0.0000000425  -0.0000001671   0.0000001113
       -0.0000002405  -0.0000002170  -0.0000001639   0.0000000697  -0.0000002135
       -0.0000002666   0.0000005913   0.0000002266  -0.0000001700   0.0000000869
       -0.0000001337   0.0000003180  -0.0000003358  -0.0000004892   0.0000007162
       -0.0000011828   0.0000001760  -0.0000000279   0.0000005905   0.0000004542
       -0.0000000071   0.0000002902   0.0000008588   0.0000003340   0.0000002939
        0.0000001049  -0.0000003491  -0.0000000609   0.0000004449  -0.0000002317
        0.0000001259   0.0000002192  -0.0000007076   0.0000000399  -0.0000001820
       -0.0000032870   0.0000028667  -0.0000439684   0.0000015835  -0.0002356576
        0.0006110599   0.0000924094   0.0078875453
        0.0588913820   0.0304280606  -0.0029413571  -0.1581456270   0.0679907870
        0.0041237600   0.6399416021   0.0003420651  -0.0231012707  -0.3090913544
        0.0178647337   0.0112434396  -0.0286377859   0.0222652069   0.0008195167
       -0.0035508733  -0.0056839189   0.0002286496  -0.0008601178   0.0012333346
       -0.0000301430  -0.0001345642  -0.0004194199  -0.0000051902   0.0003453213
       -0.0002842422   0.0000284294   0.0000099680  -0.0000005720   0.0000025117
        0.0000591548   0.0000610989  -0.0000018204  -0.0001257039   0.0000586890
       -0.0000036188  -0.0002165406   0.0001671788   0.0000002915   0.0001107929
       -0.0019055339  -0.0000195214  -0.0026612253   0.0034652120   0.0000091881
        0.0005121459   0.0001149497   0.0000061089  -0.0001610619   0.0002916848
        0.0000236974   0.0000252776   0.0002843352   0.0000035285   0.0001340813
       -0.0001545160  -0.0000281035  -0.0001140353   0.0000035348   0.0000706621
        0.0000253305   0.0000002816  -0.0000235312  -0.0000221868   0.0000053646
        0.0000165178  -0.0000036077  -0.0000132236   0.0000095310  -0.0000041800
        0.0000170181  -0.0000045631   0.0000036271  -0.0000404273   0.0000146603
        0.0000101134   0.0000154123  -0.0000257120   0.0000247134  -0.0000378101
       -0.0000006433  -0.0000124348   0.0000188978  -0.0000016833   0.0000052643
        0.0000161242  -0.0000142642  -0.0000171695  -0.0000061889   0.0000296482
        0.0000362755   0.0000941860  -0.0000536174  -0.0003613002  -0.0000193293
       -0.0000236517   0.0003760947   0.0000318281  -0.0000094755  -0.0000812872
        0.0001354417  -0.0000490655   0.0000161863  -0.0000257955   0.0000287063
       -0.0000297019   0.0000173675  -0.0000182703   0.0000164828   0.0000195937
       -0.0000166838  -0.0000101261  -0.0000218921   0.0000135559   0.0000293415