$hessian                                                                        
        0.5413543354   0.2028627663   0.0233225783  -0.4392633809  -0.1687121230
       -0.0201807870  -0.0718767806  -0.0179396450  -0.0014508582   0.0302931698
       -0.0179664824  -0.0037564694   0.0263521712  -0.0004013809  -0.0006052598
       -0.0075754699  -0.0059231696  -0.0005942005   0.0038523591   0.0001921761
        0.0002548585  -0.0064408283  -0.0025254635  -0.0002431865   0.0018107945
       -0.0003226907   0.0000657754  -0.0001475208  -0.0006822725  -0.0000118287
       -0.0002967816  -0.0016330678   0.0003909961   0.0036251376  -0.0009556056
       -0.0000111100  -0.0017345321   0.0001405380   0.0000113035  -0.0013194193
       -0.0014107668  -0.0005968894   0.0015018467  -0.0006093152  -0.0001524569
        0.0002437757  -0.0003638267  -0.0000834420   0.0003830012   0.0004624133
       -0.0001038926  -0.0002137638   0.0001026130   0.0000568676  -0.0009904779
        0.0012754708   0.0001226995  -0.0009949713   0.0012269148   0.0006045014
        0.0016544886   0.0005784916   0.0001324519   0.0003313023   0.0004016182
        0.0000806622   0.0004062763  -0.0004349883   0.0001167946  -0.0000978647
       -0.0000149975  -0.0000789619  -0.0013885145  -0.0004380975  -0.0001517030
        0.0000256498   0.0017229297  -0.0003875272  -0.0000512365   0.0009311703
       -0.0002051706   0.0030202973   0.0017507865  -0.0000776562   0.0043233051
       -0.0003065288   0.0001180482  -0.0047223381   0.0002114265  -0.0001579574
        0.0073258125  -0.0095898881  -0.0018104200  -0.0809477956   0.0016237815
        0.0025078957  -0.0079700427   0.0155145472   0.0026199268  -0.0004120287
        0.0000718768   0.0000244987   0.0002107625   0.0001786087   0.0001111196
       -0.0001040327  -0.0001825137   0.0002503733  -0.0003420081   0.0002600396
        0.0000564168  -0.0000947330   0.0004598205  -0.0000859058  -0.0004032706
       -0.0001272918   0.0001340129  -0.0002632503  -0.0002687133   0.0001456290
       -0.0000369349  -0.0004306557  -0.0000714525   0.0004367763   0.0000436998
        0.0000737824  -0.0001554033  -0.0003998022   0.0000978663  -0.0002855597
        0.0001746010  -0.0001410607  -0.0001538682   0.0001280484  -0.0001303027
        0.0001588632   0.0002305811   0.0000759805   0.0003556862  -0.0002018481
       -0.0000863452  -0.0004161484  -0.0001567282  -0.0000660755   0.0002541357
        0.0001097971  -0.0003881251   0.0002445147  -0.0001295265  -0.0000535254
        0.0000564268   0.0004338996   0.0001433674   0.0004780682   0.0010387734
        0.0001641634
        0.2028627663   0.1404800815   0.0166009869  -0.1647024055  -0.1195838028
       -0.0110641572  -0.0492254760  -0.0286323106  -0.0045529456   0.0043798686
       -0.0016757661  -0.0004484418   0.0069311988  -0.0036026032  -0.0011610646
       -0.0028367394  -0.0024033730  -0.0005109961   0.0010014928   0.0005479695
        0.0001305776  -0.0022664222  -0.0009853914  -0.0000810476   0.0000383117
       -0.0000902797   0.0001305833   0.0003213471  -0.0006833542   0.0001514464
       -0.0004620317  -0.0010607081   0.0002818125   0.0019334200  -0.0004813739
       -0.0000268827  -0.0007900802   0.0000788599  -0.0000006794  -0.0006803493
       -0.0007482770  -0.0002645293   0.0009054842  -0.0004089738  -0.0001424744
        0.0001597950  -0.0002626434  -0.0001087758   0.0002280108   0.0002802856
       -0.0000574429  -0.0001862621   0.0000732905   0.0000965721  -0.0006291721
        0.0007681407   0.0001302448  -0.0005177911   0.0006855886   0.0002649242
        0.0010121769   0.0003249779   0.0001315238   0.0002417635   0.0002969701
        0.0001120132   0.0002329406  -0.0002638168   0.0000597738  -0.0001354759
       -0.0000069546  -0.0001092328  -0.0008536250  -0.0003481367  -0.0001315413
       -0.0001443907   0.0011770169  -0.0002651117   0.0003812800   0.0006251546
       -0.0003219751   0.0026003546   0.0000853889  -0.0000591795   0.0014362943
        0.0003129422   0.0001695477  -0.0015235508   0.0004352814   0.0001290187
        0.0020988740  -0.0012840209  -0.0000617875  -0.0000149771   0.0104404264
        0.0004613925  -0.0008161570   0.0049682997   0.0002953434  -0.0002484964
        0.0000856890   0.0000272859   0.0000816811   0.0000947416   0.0001729698
       -0.0000646628  -0.0000516735   0.0000705626  -0.0001658732   0.0001440338
        0.0001023945  -0.0000527973   0.0002376434  -0.0000753056  -0.0002346154
       -0.0000632725   0.0000706653  -0.0001406227  -0.0001444461   0.0000729468
       -0.0000139910  -0.0002435497  -0.0000362594   0.0002120186   0.0000133156
        0.0000612928  -0.0000796077  -0.0001969871   0.0000842160  -0.0001677943
        0.0000984756  -0.0000742330  -0.0000835995   0.0000990884  -0.0000689212
        0.0000883517   0.0001525649   0.0000369277   0.0001779007  -0.0000934125
       -0.0000692387  -0.0002097803  -0.0000768004  -0.0000879454   0.0001308905
        0.0000102198  -0.0001574545   0.0001626352  -0.0001403646  -0.0000794301
        0.0000120040   0.0001357738   0.0000223480  -0.0003841146   0.0008800720
        0.0001496827
        0.0233225783   0.0166009869   0.0191201265  -0.0193103505  -0.0106419259
       -0.0365523557  -0.0067897585  -0.0056579336   0.0043977550   0.0000419178
        0.0002208175   0.0001506660   0.0007979970  -0.0011757751   0.0037251346
       -0.0003942580  -0.0003407194  -0.0000214208   0.0001658819   0.0001558239
       -0.0005647045  -0.0003790370  -0.0002215759  -0.0001449407   0.0000774117
       -0.0000088608  -0.0001315212   0.0000448016  -0.0000546810   0.0000481926
       -0.0000845595  -0.0001622423   0.0000445834   0.0003751582  -0.0000690738
       -0.0000125740  -0.0001660998   0.0000128398  -0.0000037318  -0.0001231296
       -0.0001418016  -0.0000306621   0.0001320382  -0.0000541457  -0.0000230173
        0.0000183908  -0.0000476570  -0.0000137743   0.0000175156   0.0000435844
       -0.0000175524  -0.0000275512   0.0000012287   0.0000267388  -0.0000890160
        0.0001128497   0.0000131185  -0.0000883904   0.0001333765   0.0000441147
        0.0001431912   0.0000405346   0.0000067112   0.0000340992   0.0000534327
        0.0000185556   0.0000412878  -0.0000362893  -0.0000003249  -0.0000372996
        0.0000107786  -0.0000112081  -0.0001170496  -0.0000542144  -0.0000125814
       -0.0000175495   0.0001784699  -0.0000172107   0.0000614103   0.0001207531
        0.0000207098   0.0003837364   0.0001138245   0.0000183971   0.0001505980
        0.0000292599   0.0000692892  -0.0001720309   0.0002705705  -0.0007970659
        0.0001935343  -0.0000609877   0.0000073663   0.0017894793   0.0004782853
        0.0080134024   0.0001889153   0.0000672869   0.0021562249  -0.0000265503
        0.0000073376   0.0000532654   0.0000203973   0.0000286715  -0.0000204714
       -0.0000105202  -0.0000004740   0.0000013605  -0.0000164403   0.0000158616
        0.0000063087  -0.0000092252   0.0000318264  -0.0000154760  -0.0000315395
       -0.0000071875   0.0000076440  -0.0000179787  -0.0000188930   0.0000079739
        0.0000005926  -0.0000312077  -0.0000048764   0.0000289860   0.0000010594
        0.0000123444  -0.0000107473  -0.0000267870   0.0000152142  -0.0000221137
        0.0000116454  -0.0000111403  -0.0000109043   0.0000133350  -0.0000109776
        0.0000123961   0.0000205397   0.0000016984   0.0000250104  -0.0000120419
       -0.0000156225  -0.0000249640  -0.0000189006  -0.0000270677   0.0000094052
        0.0000012335  -0.0000279201   0.0000497753  -0.0000479245   0.0001758526
       -0.0000021914   0.0000138430   0.0000070564  -0.0001472506   0.0001012429
        0.0003183927
       -0.4392633809  -0.1647024055  -0.0193103505   0.6955132919   0.1349792496
        0.0114018533   0.0120068881  -0.0307930978  -0.0066241867  -0.0366989439
        0.0497295643   0.0092602094  -0.0620651216  -0.0214791033  -0.0022385805
        0.0083727470   0.0090242277   0.0009733805  -0.0082301546   0.0012527918
       -0.0001751039   0.0062772780   0.0009095566  -0.0001574007  -0.0029651852
        0.0000812674  -0.0001254490   0.0006659327   0.0005225766   0.0000785091
       -0.0000247597   0.0015927269  -0.0003576712  -0.0038351211   0.0010409650
       -0.0000047678   0.0021735180  -0.0001872554  -0.0000277223   0.0012473167
        0.0012738492   0.0007371724  -0.0015185586   0.0006443217   0.0001448262
       -0.0003019774   0.0003274979   0.0000826143  -0.0003984473  -0.0004865334
        0.0001099395   0.0001886027  -0.0001634653  -0.0000522293   0.0010479330
       -0.0012869527  -0.0001311495   0.0009588241  -0.0010386080  -0.0007358950
       -0.0016895192  -0.0006705492  -0.0001174976  -0.0003733506  -0.0003669939
       -0.0000715737  -0.0004320342   0.0004524971  -0.0001204432   0.0000710161
        0.0000856077   0.0000820477   0.0014585259   0.0003493966   0.0001809609
       -0.0002377111  -0.0016370151   0.0004531216   0.0004001553  -0.0008773256
        0.0001629466  -0.0006088996  -0.0102233627  -0.0013140705  -0.0089512129
        0.0016309777   0.0002394313   0.0132592759   0.0006688018   0.0001361537
       -0.0198240549   0.0305068903   0.0058603245  -0.1040653402   0.0296485365
        0.0054099293  -0.0540294095  -0.0285482794  -0.0033659055   0.0004928356
        0.0000820731   0.0000241987  -0.0004036613  -0.0001707212  -0.0001027280
        0.0001470775   0.0001422341  -0.0002181871   0.0004201998  -0.0002753681
        0.0000152103   0.0001000485  -0.0005074841   0.0000699497   0.0004255710
        0.0001257360  -0.0001526093   0.0002914524   0.0002905731  -0.0001548041
        0.0000462013   0.0004547751   0.0000823055  -0.0004781236  -0.0000560694
       -0.0000572489   0.0001647874   0.0004435714  -0.0000769766   0.0003058173
       -0.0001841210   0.0001679256   0.0001701055  -0.0001242172   0.0001457799
       -0.0001609777  -0.0002522870  -0.0000847097  -0.0003790015   0.0002386347
        0.0000710532   0.0004765814   0.0001536781  -0.0000003449  -0.0002584330
       -0.0000545425   0.0003927988  -0.0001759088   0.0000973296   0.0000694900
       -0.0000577086  -0.0007651790  -0.0001712282   0.0007450140  -0.0018989707
       -0.0004032981
       -0.1687121230  -0.1195838028  -0.0106419259   0.1349792496   0.3900528392
        0.0454156071  -0.0127576294  -0.1013612346  -0.0103006287   0.0176033710
       -0.0576118764  -0.0107969888  -0.0377655589  -0.0196332102  -0.0032649403
        0.0021625859   0.0042301796   0.0009609413  -0.0023901259  -0.0007204477
        0.0001246572   0.0028160141   0.0005069694   0.0000927222   0.0004759687
        0.0001450381  -0.0001956146  -0.0009944256   0.0011986061  -0.0003163210
        0.0011414985   0.0019246862  -0.0005286020  -0.0033976557   0.0006924300
        0.0000690507   0.0010059470  -0.0001121073   0.0000122283   0.0013357655
        0.0015857900   0.0002437786  -0.0016448380   0.0007445836   0.0002964014
       -0.0002024543   0.0006415370   0.0002759280  -0.0003783834  -0.0004365735
        0.0001006118   0.0004725486  -0.0000020803  -0.0002686348   0.0010991587
       -0.0013926958  -0.0002566092   0.0009883125  -0.0016285294  -0.0002378010
       -0.0018270011  -0.0004123747  -0.0002751273  -0.0004092049  -0.0006869463
       -0.0002878410  -0.0003494801   0.0004339607  -0.0000931822   0.0004027062
       -0.0001685407   0.0002702052   0.0014702997   0.0008791034   0.0001881477
        0.0003720121  -0.0021287597   0.0004052906  -0.0010310915  -0.0009062261
        0.0007491773  -0.0126114512   0.0043941034   0.0003129312   0.0032594603
       -0.0036134947  -0.0009767182  -0.0043590887  -0.0037021655  -0.0016938064
        0.0264649315  -0.0245735477  -0.0056351867   0.0378362692  -0.0724889842
       -0.0042294167   0.0132337135   0.0037772831   0.0003224798   0.0004485257
        0.0002678936  -0.0000322645  -0.0002746968  -0.0001054595  -0.0003483428
        0.0000010102  -0.0000298420  -0.0000558169   0.0001753002  -0.0002261568
       -0.0003160918   0.0000806245  -0.0003124331   0.0002146325   0.0003829982
        0.0001063354  -0.0000815688   0.0001981851   0.0002114425  -0.0000958482
       -0.0000125527   0.0003945530   0.0000520612  -0.0002655633  -0.0000098244
       -0.0001717859   0.0001256676   0.0002433207  -0.0002247490   0.0002746456
       -0.0001473646   0.0000785703   0.0001127128  -0.0002005204   0.0000902428
       -0.0001630785  -0.0002491898  -0.0000509124  -0.0002496445   0.0000733534
        0.0001936110   0.0002700540   0.0001098174   0.0002518333  -0.0001605365
        0.0000797575   0.0001112446  -0.0001946340   0.0001417242   0.0002121546
        0.0008303424  -0.0003953970  -0.0000563034   0.0001313392   0.0000044777
        0.0003885197
       -0.0201807870  -0.0110641572  -0.0365523557   0.0114018533   0.0454156071
        0.1175932043  -0.0033793418  -0.0093945717  -0.0438376919   0.0037512365
       -0.0115066810   0.0030832995  -0.0050332215  -0.0036967989   0.0017446455
        0.0003417356   0.0007968998  -0.0005218734  -0.0007460522  -0.0003145441
        0.0005715284   0.0006522250   0.0011114615   0.0007428957   0.0000542876
       -0.0000535179  -0.0000799082  -0.0003099862  -0.0000479032  -0.0002376047
        0.0001764551   0.0003794534  -0.0000900250  -0.0007088224   0.0000731783
        0.0000867897   0.0004006873  -0.0000365483  -0.0000221844   0.0001763994
        0.0001560230   0.0000194281  -0.0001972394   0.0000970803   0.0000204791
       -0.0000009311   0.0000834327   0.0000413194  -0.0000306187  -0.0000641178
       -0.0000308276   0.0000300618  -0.0000232612  -0.0000088493   0.0001534406
       -0.0001258173  -0.0000067628   0.0000375694  -0.0000659051  -0.0000688566
       -0.0001505208  -0.0000605270  -0.0000206694  -0.0000548992  -0.0000384988
        0.0000039965  -0.0000487112   0.0000312579  -0.0000100638   0.0000261793
       -0.0000327546   0.0000670903   0.0001419802   0.0000677711   0.0000409095
        0.0002545850  -0.0002498325   0.0000217922  -0.0002735663  -0.0007178714
       -0.0002667275  -0.0015932375  -0.0004429682   0.0036954221   0.0010736771
       -0.0005222281  -0.0001914014  -0.0011362347  -0.0022989241   0.0068401270
        0.0057488315  -0.0055574009  -0.0002971743   0.0071429174  -0.0041470737
       -0.0514783412   0.0026220925   0.0017280243   0.0022643474  -0.0000718680
        0.0000066950   0.0001067820  -0.0001652176  -0.0002042867   0.0005420550
       -0.0000512165  -0.0000308378  -0.0000383867   0.0000168177   0.0000251247
        0.0000217433   0.0000082162  -0.0000451548   0.0000315547   0.0000544599
        0.0000058256  -0.0000070746   0.0000228929   0.0000245239  -0.0000300321
       -0.0000021783   0.0000507346  -0.0000041512  -0.0000329096   0.0000055288
       -0.0000370784   0.0000093917   0.0000321692  -0.0000186374   0.0000252864
       -0.0000114357   0.0000349923   0.0000130747  -0.0000243592   0.0000383144
       -0.0000213982  -0.0000343323   0.0000210532  -0.0000239246   0.0000109625
        0.0000379490   0.0000439964   0.0001037247   0.0001233044   0.0000368844
       -0.0000198748  -0.0000296783  -0.0003051342   0.0001020225  -0.0011590384
        0.0001443192   0.0000155784  -0.0004028687  -0.0000435370   0.0005091048
       -0.0023467598
       -0.0718767806  -0.0492254760  -0.0067897585   0.0120068881  -0.0127576294
       -0.0033793418   0.5436206051  -0.2006136337  -0.0414456681  -0.2531847493
        0.2240340726   0.0412403545  -0.1306815627  -0.0062652040  -0.0001465714
       -0.0468201742  -0.0233596194  -0.0021895789   0.0147849085  -0.0104656625
       -0.0010887679  -0.0129874370   0.0027548547   0.0004904357   0.0051011244
       -0.0006198131  -0.0000429424  -0.0015089295   0.0018715457  -0.0005522375
        0.0013397008   0.0010438254  -0.0004781230  -0.0011819464   0.0001263916
        0.0000197767  -0.0007391201  -0.0000615342   0.0000198139   0.0009480395
        0.0013637156  -0.0004392425  -0.0009877264   0.0005320161   0.0003289274
        0.0001613677   0.0006965285   0.0002860535  -0.0002447688  -0.0002157292
        0.0000493041   0.0005624309   0.0004196723  -0.0003454519   0.0005910522
       -0.0008420149  -0.0002778801   0.0006379896  -0.0015725458   0.0004531361
       -0.0010751012   0.0001258679  -0.0002935370  -0.0001756487  -0.0007699967
       -0.0002864878  -0.0001824954   0.0002133361   0.0000009533   0.0005285628
       -0.0006679795   0.0003361145   0.0007399546   0.0011019888   0.0000434806
        0.0006211501  -0.0012540921   0.0004391114  -0.0018310422  -0.0012729789
        0.0007662015   0.0087070127   0.0086036067   0.0006606521   0.0017870778
       -0.0030127226  -0.0004177508  -0.0029026595   0.0024230902   0.0005380370
        0.0004068699  -0.0056342970  -0.0014884781  -0.0291737835   0.0242433406
        0.0051996579  -0.0373298290   0.0468424842   0.0085968316   0.0011748423
        0.0014455390   0.0000676300  -0.0001161923   0.0004049286   0.0000822616
       -0.0003270688  -0.0002365677   0.0000295209  -0.0001114529  -0.0000209033
       -0.0004844300  -0.0000133675   0.0000559339   0.0003720768   0.0002023396
        0.0000569580   0.0000547699  -0.0000141349   0.0000292539  -0.0000321761
       -0.0001331430   0.0001892267  -0.0000419107   0.0000850560   0.0000035295
       -0.0003171959  -0.0000264325  -0.0001233129  -0.0003578527   0.0000888961
       -0.0000318948  -0.0000406904  -0.0000289012  -0.0002355686   0.0000615980
       -0.0001727966  -0.0001028116   0.0000719386  -0.0000227868  -0.0001368631
        0.0003514318  -0.0000063522   0.0000091704   0.0003949685  -0.0000580859
        0.0002197115  -0.0002402223  -0.0000842744   0.0006621901   0.0000751545
       -0.0002700930   0.0000297595   0.0001215955   0.0001729678  -0.0000036871
        0.0000245080
       -0.0179396450  -0.0286323106  -0.0056579336  -0.0307930978  -0.1013612346
       -0.0093945717  -0.2006136337   0.5380402714   0.0753611233   0.2280293915
       -0.2956839229  -0.0473848212  -0.0070911654  -0.0521198427  -0.0006469890
       -0.0210935010  -0.0033336363   0.0001754377  -0.0008846194  -0.0019542519
       -0.0017476409  -0.0021320780  -0.0026614696  -0.0008626734  -0.0012370765
        0.0001528124   0.0004052773   0.0014078846  -0.0015234346   0.0007807741
       -0.0019844020  -0.0025106046   0.0008208312   0.0050516403  -0.0007655859
       -0.0001615585  -0.0017217882   0.0003328773  -0.0000075484  -0.0017180682
       -0.0022036864  -0.0000075981   0.0020804800  -0.0011289859  -0.0005024981
       -0.0000070086  -0.0011496321  -0.0004812762   0.0004536705   0.0005141628
       -0.0000838710  -0.0008355974  -0.0003760154   0.0005308610  -0.0014535037
        0.0016874311   0.0004205682  -0.0011911787   0.0023850823   0.0000315320
        0.0022759227   0.0002315291   0.0004566482   0.0004969707   0.0012507788
        0.0004762717   0.0004116056  -0.0004610365   0.0000556429  -0.0007626023
        0.0007616192  -0.0005439899  -0.0017763286  -0.0015874882  -0.0001638976
       -0.0007016755   0.0027570461  -0.0007064871   0.0014431362   0.0014438483
       -0.0008719865   0.0102856887  -0.0058453538  -0.0014362361  -0.0018656512
        0.0025653531   0.0005241026   0.0022556825  -0.0020232349  -0.0006314026
        0.0014900773   0.0063118777   0.0010882542   0.0339386499  -0.0449540679
       -0.0085061365   0.0072357816  -0.0076343511  -0.0016214612  -0.0005021537
       -0.0006270555   0.0003378675  -0.0010105683   0.0001408996   0.0001034959
        0.0003345344   0.0003326148  -0.0000191137  -0.0000624725   0.0001607037
        0.0006151010  -0.0000529288   0.0001793582  -0.0005395194  -0.0004926079
       -0.0001324473   0.0000050705  -0.0001264139  -0.0001884848   0.0001042418
        0.0001477926  -0.0004837047  -0.0000001677   0.0001227453   0.0000056898
        0.0004753278  -0.0000691121  -0.0000613932   0.0005331325  -0.0002939916
        0.0001358681  -0.0000292548  -0.0000630479   0.0003988554  -0.0001340589
        0.0002837998   0.0002959378  -0.0000426834   0.0001925277   0.0000540723
       -0.0005204823  -0.0002296199  -0.0001472375  -0.0005616808   0.0001752941
       -0.0003390014   0.0001211783   0.0002895622  -0.0004789549  -0.0002648891
        0.0006555159  -0.0001436982   0.0000250875  -0.0003528163   0.0003734339
        0.0000846005
       -0.0014508582  -0.0045529456   0.0043977550  -0.0066241867  -0.0103006287
       -0.0438376919  -0.0414456681   0.0753611233   0.1212378715   0.0418827004
       -0.0471438696  -0.0435726804   0.0003289824   0.0000402305  -0.0490977788
       -0.0023918399  -0.0004462372   0.0011311097   0.0001354694  -0.0009197377
        0.0066620799  -0.0002552828  -0.0013234145  -0.0008495721  -0.0003239951
        0.0003117330  -0.0009872114   0.0002004563  -0.0000627296   0.0002625492
       -0.0003383581  -0.0003912850   0.0001665426   0.0009025877  -0.0001197473
       -0.0000392724  -0.0004650528   0.0000560762  -0.0000177598  -0.0001916109
       -0.0002172986   0.0000146567   0.0002745820  -0.0001781423  -0.0000860863
       -0.0000186582  -0.0001539431  -0.0000659250   0.0000400590   0.0000839550
       -0.0000077382  -0.0000697078  -0.0000423507   0.0000680061  -0.0002277722
        0.0001972365   0.0000534669  -0.0000819507   0.0001614206   0.0000620950
        0.0002629156   0.0000446183   0.0000573365   0.0000747041   0.0001401926
        0.0000532044   0.0000757298  -0.0000518203  -0.0000001854  -0.0000933495
        0.0001259879  -0.0000688967  -0.0002223700  -0.0001915136  -0.0000429256
       -0.0003112309   0.0004692714  -0.0001128308   0.0005506988   0.0006405800
        0.0000649962   0.0013480477  -0.0015099145   0.0034864808  -0.0004782885
        0.0007502180  -0.0001104178   0.0005117465  -0.0004464310   0.0002565514
        0.0001916924   0.0013055541   0.0003469694   0.0064609688  -0.0085469714
        0.0001561696   0.0016497752  -0.0033875381   0.0024964680  -0.0000547082
        0.0002379381  -0.0022237386  -0.0000474572   0.0001483433  -0.0003842919
        0.0000615485   0.0000387400   0.0000285503  -0.0000255180  -0.0000154653
        0.0000517809  -0.0000014423   0.0000283738  -0.0000827389  -0.0000775552
       -0.0000220676   0.0000021123  -0.0000157829  -0.0000286662   0.0000278246
        0.0000243826  -0.0000770137   0.0000045540   0.0000143539   0.0000035790
        0.0000847304  -0.0000008075  -0.0000090211   0.0000834090  -0.0000405250
        0.0000185707  -0.0000123468  -0.0000083432   0.0000642815  -0.0000269842
        0.0000473465   0.0000444819  -0.0000140941   0.0000282704   0.0000051889
       -0.0000812420  -0.0000333058  -0.0000878817  -0.0001517014   0.0000118537
       -0.0000490512   0.0000487216   0.0001680642   0.0000419606   0.0000039072
        0.0001116820  -0.0000899672   0.0003815572  -0.0000629921   0.0000459976
        0.0001826540
        0.0302931698   0.0043798686   0.0000419178  -0.0366989439   0.0176033710
        0.0037512365  -0.2531847493   0.2280293915   0.0418827004   0.3126861889
       -0.2781516461  -0.0515729090  -0.0631660027   0.0331633482   0.0069520627
        0.0088630493   0.0048003595   0.0005211633  -0.0035003803   0.0024504765
        0.0001895656   0.0032332599  -0.0015203858  -0.0004388914  -0.0017002286
        0.0002556224   0.0000346264   0.0008143189  -0.0009788599   0.0003827855
       -0.0011246941  -0.0011576512   0.0004645144   0.0020983624  -0.0002930471
       -0.0000629133  -0.0003290190   0.0001604760  -0.0000133061  -0.0009249531
       -0.0012574657   0.0001792872   0.0010193306  -0.0005759896  -0.0002947434
       -0.0001227366  -0.0006426880  -0.0002434660   0.0002381615   0.0002426775
       -0.0000456083  -0.0004722265  -0.0003582785   0.0002879734  -0.0006734648
        0.0008333178   0.0002397199  -0.0006290493   0.0013839560  -0.0001761393
        0.0011126315  -0.0000148723   0.0002632923   0.0001929770   0.0007239952
        0.0002433395   0.0002062855  -0.0002136979   0.0000107430  -0.0004303019
        0.0005915709  -0.0002909997  -0.0008177944  -0.0009674653  -0.0000384147
       -0.0003751649   0.0012981811  -0.0003998077   0.0009492102   0.0008083948
       -0.0005030367   0.0011610960  -0.0022980081  -0.0001578556  -0.0017964835
        0.0036142629   0.0006629830   0.0003544636  -0.0014879546  -0.0003357135
       -0.0010158981   0.0040142013   0.0009959194   0.0142932103  -0.0076207862
       -0.0016609874  -0.0110410529  -0.0059910211  -0.0008323305   0.0001360748
       -0.0007291139  -0.0000632067  -0.0001112321  -0.0000586502  -0.0000225704
        0.0003079228   0.0001797640   0.0000268403   0.0000470327   0.0000457738
        0.0004053887  -0.0000034594   0.0000192468  -0.0003496446  -0.0002458092
       -0.0000742970  -0.0000315593  -0.0000212860  -0.0000642111   0.0000506625
        0.0001164673  -0.0002349092   0.0000252450  -0.0000082881   0.0000044841
        0.0003091356   0.0000001735   0.0000537186   0.0003413744  -0.0001196073
        0.0000573103   0.0000161588   0.0000023886   0.0002420728  -0.0000749265
        0.0001797586   0.0001252815  -0.0000536179   0.0000731578   0.0000841472
       -0.0003411705  -0.0000577853  -0.0000484787  -0.0003486179   0.0001041745
       -0.0001848376   0.0001229148   0.0000421913  -0.0002343339  -0.0000328344
        0.0002301609  -0.0000184870  -0.0000294166  -0.0001846068   0.0000118658
        0.0000131369
       -0.0179664824  -0.0016757661   0.0002208175   0.0497295643  -0.0576118764
       -0.0115066810   0.2240340726  -0.2956839229  -0.0471438696  -0.2781516461
        0.3564138989   0.0614216071   0.0323990604  -0.0051451093  -0.0025491085
       -0.0069002778  -0.0024297610  -0.0005361452   0.0033150866  -0.0022747812
        0.0002639933  -0.0031077210   0.0021795953   0.0007688237   0.0026810321
       -0.0004121808  -0.0002135557  -0.0015192330   0.0015561448  -0.0006976441
        0.0017809740   0.0019304835  -0.0006708848  -0.0035839488   0.0005230104
        0.0000959423   0.0007884858  -0.0002230628   0.0000100235   0.0013840893
        0.0018335538  -0.0001701125  -0.0015800631   0.0008388561   0.0004091653
        0.0000834320   0.0009329580   0.0003736814  -0.0003423128  -0.0003695522
        0.0000612343   0.0006801305   0.0003831061  -0.0004287194   0.0010615357
       -0.0012867822  -0.0003409343   0.0009392424  -0.0020209409   0.0001507022
       -0.0017142325  -0.0000669420  -0.0003664791  -0.0003317005  -0.0010071728
       -0.0003676601  -0.0002975474   0.0003370483  -0.0000273620   0.0006284361
       -0.0007066923   0.0004305432   0.0012886735   0.0013470138   0.0001069222
        0.0007821687  -0.0021526400   0.0005842323  -0.0017175028  -0.0013696056
        0.0007896489  -0.0029506419   0.0030940148   0.0000614924   0.0020424545
       -0.0038379599  -0.0006477154   0.0001570837   0.0016067727   0.0003978282
        0.0007930323  -0.0045269157  -0.0009522512  -0.0124746213   0.0020447495
        0.0000309464   0.0076912129   0.0064548436   0.0003126857   0.0006096064
        0.0012557440   0.0000739048   0.0001232322  -0.0000715658   0.0000286476
       -0.0003388043  -0.0002764803  -0.0000103090  -0.0000343821  -0.0000983412
       -0.0005400219   0.0000284789  -0.0000867138   0.0004527382   0.0003583607
        0.0000982112   0.0000212603   0.0000633555   0.0001087014  -0.0000770480
       -0.0001275802   0.0003510519  -0.0000234697  -0.0000358935   0.0000014063
       -0.0003953444   0.0000384051  -0.0000112173  -0.0004406259   0.0001972333
       -0.0000918451  -0.0000022326   0.0000176123  -0.0003179297   0.0001030330
       -0.0002291086  -0.0002047616   0.0000586081  -0.0001270901  -0.0000973614
        0.0004344180   0.0001130214   0.0001092664   0.0004915343  -0.0000915940
        0.0002709756  -0.0001709317  -0.0001799520   0.0002772317   0.0001632701
       -0.0003339380   0.0000661170  -0.0000300350   0.0003272010   0.0000431252
       -0.0000085631
       -0.0037564694  -0.0004484418   0.0001506660   0.0092602094  -0.0107969888
        0.0030832995   0.0412403545  -0.0473848212  -0.0435726804  -0.0515729090
        0.0614216071   0.0280455841   0.0066887028  -0.0027247340   0.0069729380
       -0.0013221372  -0.0005165374   0.0000365643   0.0006353031  -0.0003125418
       -0.0007247148  -0.0005883736   0.0003777318   0.0001292850   0.0004568005
       -0.0000960794   0.0001609348  -0.0002052995   0.0002491151  -0.0001002000
        0.0002883863   0.0002979265  -0.0001263454  -0.0004949014   0.0000646626
        0.0000218119   0.0001275638  -0.0000385426   0.0000009154   0.0001734332
        0.0002267199  -0.0000152890  -0.0002465567   0.0001551094   0.0000699718
        0.0000062773   0.0001394252   0.0000640797  -0.0000733654  -0.0000574807
       -0.0000020225   0.0001101024   0.0000527902  -0.0000491589   0.0001790312
       -0.0001955145  -0.0000657696   0.0001148670  -0.0002480579   0.0000235016
       -0.0002679172  -0.0000221820  -0.0000813177  -0.0000597384  -0.0001507595
       -0.0000538350  -0.0000421509   0.0000539127  -0.0000169902   0.0000809630
       -0.0001073587   0.0000832658   0.0002128765   0.0002089451   0.0000174481
        0.0001095006  -0.0003610324   0.0001080155  -0.0003027533  -0.0001997133
        0.0001559751  -0.0005748627   0.0005862688   0.0000918954   0.0003873508
       -0.0007214778  -0.0001976894   0.0000081590   0.0004086497  -0.0004092857
        0.0001666781  -0.0008900192  -0.0002280309  -0.0024429203  -0.0000789973
        0.0039558136   0.0016326909   0.0008546710   0.0024415080   0.0001038474
        0.0001817806   0.0002497833   0.0000303751   0.0000029869  -0.0000498353
       -0.0000626856  -0.0000460084  -0.0000097789   0.0000003729  -0.0000175083
       -0.0000999368   0.0000012227  -0.0000092213   0.0000734187   0.0000640724
        0.0000191887   0.0000033229   0.0000104432   0.0000191889  -0.0000119695
       -0.0000203743   0.0000614328  -0.0000025237  -0.0000033856   0.0000006788