$hessian                                                                        
        0.6171367770   0.0000162825  -0.1362673743  -0.2588466387   0.0621745978
        0.0563919784   0.0226708265   0.0798038986  -0.0054371581   0.0042271683
       -0.0018873800   0.0013252473  -0.0007160402   0.0015751985   0.0006870487
        0.0005981689   0.0001949558  -0.0001851450  -0.0003944759   0.0000993377
       -0.0000177962   0.0003636057  -0.0000940251  -0.0003596311  -0.0005117833
       -0.0008351915   0.0000577831   0.0000547813   0.0000139073  -0.0000364796
       -0.0000117023  -0.0000009158  -0.0000393130   0.0000062300   0.0000084011
        0.0000180191   0.0000001190   0.0000047449  -0.0000010449   0.0000009657
        0.0000018449  -0.0000024986  -0.0000000263  -0.0000031458   0.0000092367
       -0.0000023385  -0.0000067188   0.0000019840   0.0000008104  -0.0000017952
        0.0000184787   0.0000017384   0.0000063493  -0.0000015684   0.0000026917
        0.0000071366   0.0000052946   0.0000046651   0.0000139165  -0.0000033153
        0.0000150003   0.0000113913   0.0000036359  -0.0000148964  -0.0000590999
        0.0000048970  -0.0000457268  -0.0000371339  -0.0000434459   0.0000072268
       -0.0000173017  -0.0000098015  -0.0000127101  -0.0000125682  -0.0000098582
        0.0000447462   0.0000174506   0.0000051754  -0.0000341844   0.0000620063
        0.0000511585   0.0001578619  -0.0001375167   0.0000755116  -0.0586724319
       -0.0000093426   0.0151888111   0.0226881882  -0.0797889609  -0.0054645156
        0.0042283019   0.0018902303   0.0013240740  -0.0007156781  -0.0015764636
        0.0006865996   0.0005988942  -0.0001946641  -0.0001857114  -0.0003949851
       -0.0000993398  -0.0000179254   0.0003634288   0.0000942036  -0.0003596863
       -0.0005123610   0.0008350433   0.0000581214   0.0000547753  -0.0000138771
       -0.0000365039  -0.0000148889   0.0000590790   0.0000049572   0.0000149758
       -0.0000113912   0.0000035877   0.0000046661  -0.0000138959  -0.0000033589
        0.0000027057  -0.0000071570   0.0000052625   0.0000017413  -0.0000063693
       -0.0000015667   0.0000008268   0.0000017796   0.0000184925  -0.0000023239
        0.0000067350   0.0000020208  -0.0000000422   0.0000031268   0.0000092452
        0.0000009562  -0.0000018336  -0.0000024978   0.0000001081  -0.0000047473
       -0.0000010621   0.0000062395  -0.0000084118   0.0000180072  -0.0000117185
        0.0000009950  -0.0000392859  -0.0000458095   0.0000371925  -0.0000434405
        0.0000072534   0.0000173132  -0.0000097898  -0.0000127248   0.0000125824
       -0.0000098408   0.0000447745  -0.0000174599   0.0000051559  -0.0000341970
       -0.0000621020   0.0000511321   0.0001580143   0.0001375443   0.0000756498
       -0.2588027522  -0.0622155781   0.0563744275  -0.0431195712   0.0000255556
        0.0029654263  -0.0245726877   0.0110968216   0.0065340508  -0.0001511563
       -0.0002241068  -0.0000401054  -0.0000472050  -0.0000386192   0.0000322330
       -0.0002252043  -0.0000984629   0.0001132340   0.0000003251   0.0000014635
       -0.0000077444  -0.0000004914   0.0000046383  -0.0000067120  -0.0000020042
        0.0000026346  -0.0000098112  -0.0000016093   0.0000011318  -0.0000048958
       -0.0000037360  -0.0000030602  -0.0000034853  -0.0000034654  -0.0000014118
       -0.0000047211  -0.0000035265  -0.0000013329  -0.0000083930  -0.0000124065
       -0.0000118596  -0.0000119418  -0.0000011821   0.0000036169   0.0000023432
       -0.0000049032   0.0000024467   0.0000011081  -0.0000037157   0.0000039982
        0.0000021886  -0.0000052484  -0.0000069780  -0.0000009193  -0.0004617253
       -0.0000001387  -0.0000271187  -0.0001511858   0.0002241961  -0.0000398043
       -0.0000471701   0.0000386236   0.0000322930  -0.0002251032   0.0000984744
        0.0001136131  -0.0000124069   0.0000118421  -0.0000118973  -0.0000035327
        0.0000013629  -0.0000083585  -0.0000034761   0.0000014126  -0.0000047075
       -0.0000037295   0.0000030702  -0.0000034567  -0.0000016013  -0.0000011245
       -0.0000048840  -0.0000020076  -0.0000026247  -0.0000098145  -0.0000004942
       -0.0000046377  -0.0000067202   0.0000003185  -0.0000014722  -0.0000077434
       -0.0000011889  -0.0000036196   0.0000023510  -0.0000049096  -0.0000024481
        0.0000011154  -0.0000037147  -0.0000040054   0.0000021919  -0.0000052459
        0.0000069767  -0.0000009046  -0.0245738357  -0.0111052219   0.0065306118
        0.0000162825   0.6706180618   0.0000671090   0.1384401695  -0.1542485824
       -0.0374107034   0.0251662688  -0.0351876163  -0.0063410618  -0.0010640711
       -0.0050649732   0.0002312137   0.0008830628  -0.0008550751  -0.0004422226
        0.0000131030  -0.0000280599  -0.0004179685  -0.0000420265  -0.0000145775
        0.0000054886   0.0000302629   0.0001879565  -0.0000133090  -0.0000788315
        0.0002631081  -0.0002223344  -0.0000511268  -0.0000360525  -0.0000371917
       -0.0000040359  -0.0000036253   0.0000532521  -0.0000102406  -0.0000115172
       -0.0000221665  -0.0000027622  -0.0000051934   0.0000025559   0.0000004659
        0.0000001219   0.0000100040   0.0000084041   0.0000168091   0.0000047532
       -0.0000001948  -0.0000129040   0.0000022467   0.0000055212   0.0000064845
       -0.0000065593   0.0000055749   0.0000061123   0.0000178332   0.0000090642
        0.0000171242  -0.0000062922   0.0000005756   0.0000093608  -0.0000165432
       -0.0000187439  -0.0000167931  -0.0000033488   0.0000174433   0.0000428939
        0.0000000948  -0.0000385436   0.0000167477   0.0000088787   0.0000298914
        0.0000185356   0.0000171241   0.0000179880   0.0000169530   0.0000161363
       -0.0000137216  -0.0000260049  -0.0000254619  -0.0000225051  -0.0000170272
       -0.0000203877  -0.0000183833  -0.0000035010   0.0000546980  -0.0000083357
        0.0033679819   0.0000038927  -0.0251519993  -0.0352161075   0.0063276070
        0.0010654403  -0.0050640680  -0.0002352836  -0.0008829696  -0.0008559640
        0.0004420654  -0.0000128338  -0.0000284387   0.0004179219   0.0000419227
       -0.0000146075  -0.0000055511  -0.0000302514   0.0001880682   0.0000133126
        0.0000789882   0.0002633004   0.0002225767   0.0000511832  -0.0000361348
        0.0000371363  -0.0000174602   0.0000429559   0.0000000106   0.0000187491
       -0.0000168202   0.0000033396  -0.0000005666   0.0000093360   0.0000165389
       -0.0000090622   0.0000171258   0.0000063062  -0.0000055915   0.0000061514
       -0.0000178581  -0.0000055179   0.0000064752   0.0000065730   0.0000001887
       -0.0000129085  -0.0000022992  -0.0000084134   0.0000168199  -0.0000047356
       -0.0000004686   0.0000001163  -0.0000100147   0.0000027653  -0.0000052117
       -0.0000025656   0.0000102578  -0.0000115650   0.0000221634   0.0000040034
       -0.0000035416  -0.0000532846   0.0000385487   0.0000168057  -0.0000088792
       -0.0000299124   0.0000185535  -0.0000171069  -0.0000179995   0.0000169910
       -0.0000161204   0.0000137524  -0.0000260319   0.0000254655   0.0000225143
       -0.0000170642   0.0000204120   0.0000184055  -0.0000033887  -0.0000546766
       -0.1384805861  -0.1543081817   0.0373958817   0.0000255412  -0.2979708160
       -0.0000417223  -0.0122393573   0.0065886638   0.0034015015   0.0001124341
        0.0000340636   0.0001589880   0.0000616521  -0.0000191498  -0.0000031483
        0.0001250231  -0.0000738516   0.0001671584  -0.0000031411  -0.0000009206
       -0.0000010017   0.0000018028   0.0000022007  -0.0000028901   0.0000015296
        0.0000031530  -0.0000053421  -0.0000007912  -0.0000030511  -0.0000026702
       -0.0000018724  -0.0000004491  -0.0000085415  -0.0000048699  -0.0000080532
        0.0000011619   0.0000019170   0.0000035767   0.0000063950   0.0000072989
       -0.0000018952  -0.0000061393  -0.0000027744  -0.0000071483  -0.0000061237
       -0.0000114637   0.0000040522   0.0000013109  -0.0000043772   0.0000108055
        0.0000077596   0.0000051638   0.0000049362   0.0000069544  -0.0000001220
        0.0008570638   0.0000003658  -0.0001125007   0.0000342985  -0.0001589610
       -0.0000616547  -0.0000191188   0.0000031515  -0.0001252971  -0.0000737291
       -0.0001671969  -0.0000072814  -0.0000018833   0.0000061199  -0.0000019187
        0.0000035900  -0.0000064167   0.0000048686  -0.0000080484  -0.0000012131
        0.0000018781  -0.0000004681   0.0000085197   0.0000007977  -0.0000030758
        0.0000026527  -0.0000015272   0.0000031236   0.0000053468  -0.0000018052
        0.0000021750   0.0000028982   0.0000031370  -0.0000009349   0.0000010082
        0.0000027799  -0.0000071551   0.0000061252   0.0000114665   0.0000040674
       -0.0000012927   0.0000043776   0.0000108339  -0.0000077319  -0.0000051711
        0.0000049637  -0.0000069337   0.0122306146   0.0065887671  -0.0033987578
       -0.1362673743   0.0000671090   0.1532902151   0.0577633170  -0.0161387106
       -0.0620726038  -0.0071082394  -0.0228582649   0.0023348464   0.0012237852
        0.0003581341   0.0066447019  -0.0008245592   0.0003535675   0.0001999620
        0.0001681497   0.0004331511  -0.0000828232   0.0000350472  -0.0001379186
       -0.0000813734  -0.0000385971   0.0004059331  -0.0000418808   0.0009593406
       -0.0002707192  -0.0002084935   0.0000314059   0.0000014504   0.0000374880
        0.0000138259  -0.0000026130  -0.0000275679   0.0000004304  -0.0000023927
        0.0000065591  -0.0000046151   0.0000024090  -0.0000027046  -0.0000000006
        0.0000061626  -0.0000003307  -0.0000054993   0.0000025550   0.0000002420
        0.0000035680   0.0000084528   0.0000009469   0.0000014760   0.0000011121
       -0.0000016453  -0.0000020077  -0.0000004396  -0.0000081208  -0.0000009567
       -0.0000016392  -0.0000016169  -0.0000023888  -0.0000093654  -0.0000066324
       -0.0000004708   0.0000071503  -0.0000073219  -0.0000155044  -0.0000247834
       -0.0000041723   0.0000462431  -0.0000174040  -0.0000008745  -0.0000294919
       -0.0000068431   0.0000129409   0.0000014313  -0.0000121812  -0.0000070777
       -0.0000001381   0.0000110363   0.0000130421   0.0000154070  -0.0000012905
        0.0000012016  -0.0000591473  -0.0000040735   0.0000328539   0.0150801308
        0.0000034470  -0.0092561622  -0.0071208283   0.0228434297   0.0023445157
        0.0012243557  -0.0003621669   0.0066448488  -0.0008243634  -0.0003534676
        0.0001998903   0.0001681290  -0.0004330136  -0.0000832463   0.0000351502
        0.0001381197  -0.0000813433  -0.0000388433  -0.0004057811  -0.0000420686
        0.0009590871   0.0002707797  -0.0002085042   0.0000314451  -0.0000015233
        0.0000374479  -0.0000155202   0.0000245677  -0.0000041166  -0.0000004350
       -0.0000071825  -0.0000073539  -0.0000023885   0.0000091845  -0.0000066546
       -0.0000009661   0.0000015937  -0.0000016148  -0.0000020070   0.0000004796
       -0.0000081703   0.0000014766  -0.0000011174  -0.0000016784   0.0000036498
       -0.0000083863   0.0000009179  -0.0000056050  -0.0000026412   0.0000002226
        0.0000000208  -0.0000059711  -0.0000003024  -0.0000046768  -0.0000024347
       -0.0000027331   0.0000004584   0.0000023771   0.0000065763   0.0000138043
        0.0000026516  -0.0000275769   0.0000462235   0.0000173842  -0.0000007553
       -0.0000294203   0.0000067934   0.0000128903   0.0000013909   0.0000122816
       -0.0000070151  -0.0000001330  -0.0000111255   0.0000129451   0.0000153628
        0.0000013469   0.0000012194  -0.0000592086   0.0000039847   0.0000327806
        0.0577214256   0.0161238503  -0.0620597694   0.0024862996  -0.0000417227
       -0.0354369112   0.0070848944  -0.0030491160  -0.0011080113  -0.0000248620
       -0.0000304451   0.0001194527  -0.0000625522   0.0000481260   0.0000395973
        0.0001268303  -0.0001242930  -0.0000144374   0.0000005997   0.0000040590
        0.0000013619   0.0000003904   0.0000010892   0.0000076791   0.0000034163
        0.0000049448   0.0000080762   0.0000053299   0.0000096887   0.0000029703
        0.0000056838   0.0000062964   0.0000039451   0.0000027012   0.0000045267
       -0.0000030702  -0.0000004336  -0.0000016220  -0.0000009594   0.0000020915
        0.0000005332   0.0000059145   0.0000064215   0.0000017910   0.0000038397
        0.0000074212  -0.0000007084  -0.0000010216   0.0000041339  -0.0000096296
        0.0000009344   0.0000004702  -0.0000021114   0.0000028089   0.0000815617
        0.0000002170  -0.0002161428  -0.0000248315   0.0000304057   0.0001194560
       -0.0000625326  -0.0000482669   0.0000394596   0.0001268026   0.0001242658
       -0.0000144809   0.0000020926  -0.0000006410   0.0000057733  -0.0000004669
        0.0000019906  -0.0000007097   0.0000027278  -0.0000043995  -0.0000030005
        0.0000056542  -0.0000064311   0.0000038774   0.0000053606  -0.0000096435
        0.0000029569   0.0000034156  -0.0000049456   0.0000080768   0.0000003883
       -0.0000010768   0.0000077057   0.0000006013  -0.0000040538   0.0000013717
        0.0000064158  -0.0000017308   0.0000038467   0.0000075147   0.0000006256
       -0.0000010430   0.0000040432   0.0000096815   0.0000009794   0.0000005074
        0.0000020292   0.0000027729   0.0070897578   0.0030535222  -0.0011080177
       -0.2588466387   0.1384401695   0.0577633170   0.6324928335   0.0013801018
       -0.1440684217  -0.0874958385  -0.0350084285   0.0089029778  -0.0029544575
        0.0263006456   0.0013555949  -0.0031979606   0.0009253945  -0.0000267161
       -0.0005545795   0.0002073904   0.0012591311   0.0002856285   0.0001238894
        0.0001768186   0.0003072513  -0.0004880841   0.0006096034  -0.0007299538
        0.0018377783   0.0005155052  -0.0001105216  -0.0001428407  -0.0000974046
        0.0000003044   0.0000356286   0.0002141291  -0.0000238879  -0.0000071586
       -0.0000575376   0.0000092264  -0.0000036822   0.0000464627  -0.0000135016
       -0.0000352726   0.0000123100   0.0000151772   0.0000112212   0.0000004913
        0.0000039487   0.0000039598  -0.0000241775  -0.0000052351  -0.0000064859
       -0.0000518762   0.0000122602  -0.0000182592  -0.0000106897  -0.0000032043
       -0.0000326471  -0.0000111224   0.0000273645  -0.0000109836   0.0000151893
        0.0000131345  -0.0000651551   0.0000153065   0.0000426317   0.0002651579
       -0.0000397359  -0.0001375260   0.0000908367   0.0000565286   0.0001432181
        0.0000128881   0.0000110971   0.0000007784   0.0000507903   0.0000416644
       -0.0000573952  -0.0000834108  -0.0000494147  -0.0000710961  -0.0001060735
       -0.0000904786   0.0001208644   0.0001118985  -0.0001557678   0.0235677253
       -0.0246423316  -0.0065516421  -0.0111507391   0.0300985164   0.0012370520
       -0.0016679981  -0.0007643411   0.0001687310   0.0002003605   0.0007410260
       -0.0002749680  -0.0002981419   0.0000350284  -0.0000199839   0.0001792535
        0.0000395380   0.0000181244  -0.0000537199  -0.0000787574   0.0001992990
        0.0003836120  -0.0003563321  -0.0001973823  -0.0000033117  -0.0000008750
        0.0000223870   0.0000210735  -0.0000110974   0.0000042194  -0.0000071639
        0.0000000753   0.0000001457  -0.0000000053  -0.0000094094  -0.0000103831
       -0.0000002627  -0.0000001927  -0.0000038569  -0.0000029971   0.0000021091
        0.0000040023   0.0000050621  -0.0000082464   0.0000139802   0.0000021329
       -0.0000016531   0.0000058449  -0.0000009160  -0.0000017567  -0.0000025338
       -0.0000003392  -0.0000003586  -0.0000047110  -0.0000014203   0.0000023593
       -0.0000017292  -0.0000061851   0.0000035453  -0.0000006387   0.0000069349
        0.0000002110   0.0000283456   0.0000251270  -0.0000123200   0.0000127541
       -0.0000038985  -0.0000045432  -0.0000037024  -0.0000111016  -0.0000118610
        0.0000082676  -0.0000312629  -0.0000019887   0.0000055488   0.0000158657
        0.0000346657  -0.0000278671  -0.0000440885  -0.0000559108  -0.0000172544
       -0.0642943229  -0.0289588595   0.0184605950  -0.0012587540   0.0022050083
        0.0003930282  -0.2177227819  -0.1072125237   0.0543654543   0.0000573325
        0.0001451205  -0.0002325365  -0.0002511298   0.0002786207   0.0001690621
       -0.0004070321   0.0008876566  -0.0005133673   0.0000058049  -0.0000095112
        0.0000238850   0.0000007999   0.0000092063  -0.0000124290  -0.0000054559
        0.0000009464  -0.0000178224  -0.0000148479  -0.0000154739  -0.0000269505
       -0.0000164257  -0.0000121846  -0.0000153885  -0.0000207196  -0.0000244866
        0.0000012795  -0.0000205900  -0.0000257607   0.0000304020  -0.0000012350
        0.0000448553   0.0000055482  -0.0000491352  -0.0000146876  -0.0000256769
       -0.0000395906   0.0000123586   0.0000099263  -0.0000284723   0.0000337928
        0.0000225933   0.0000363266   0.0000141540   0.0000116288  -0.0033415289
       -0.0032235010   0.0032637998   0.0000289756  -0.0000991847  -0.0000336953
        0.0000146197  -0.0000064220  -0.0000012998   0.0001395208  -0.0000963386
        0.0001364881   0.0000051028  -0.0000022687  -0.0000163067  -0.0000018924
       -0.0000004812  -0.0000027494  -0.0000022940   0.0000003487  -0.0000029621
       -0.0000029345   0.0000007209  -0.0000017500  -0.0000021264  -0.0000022165
       -0.0000021289  -0.0000018036  -0.0000022056  -0.0000034112  -0.0000009840
       -0.0000050202  -0.0000039793   0.0000022105   0.0000018838   0.0000105252
       -0.0000010136  -0.0000015916   0.0000012189   0.0000004645  -0.0000011429
        0.0000030546  -0.0000037415  -0.0000009617   0.0000017316   0.0000032489
       -0.0000023721   0.0000025614  -0.0032020159  -0.0027018464   0.0030748381
        0.0621745978  -0.1542485824  -0.0161387106   0.0013801018   0.6392897569
       -0.0019222795   0.0276994267  -0.3069244874  -0.0089325152   0.0169757478
       -0.0263994201  -0.0049094225   0.0005965086   0.0029870169   0.0018855084
        0.0015388759  -0.0004674537  -0.0010535730  -0.0011321281   0.0002647341
       -0.0000573314   0.0004333529  -0.0003743262  -0.0008577011  -0.0039155256
       -0.0016811674   0.0004764794  -0.0000964882  -0.0000119328  -0.0000960651
        0.0000045728   0.0000256610   0.0000289399  -0.0000125976  -0.0000113914
       -0.0000130892   0.0000012387   0.0000061198   0.0000083341  -0.0000071788
       -0.0000143721   0.0000037212   0.0000000464  -0.0000048190  -0.0000011801
       -0.0000035543   0.0000011344  -0.0000215505  -0.0000131132  -0.0000137222
       -0.0000353973  -0.0000009851  -0.0000223941  -0.0000231955  -0.0000056199
       -0.0000275187   0.0000052882   0.0000056454  -0.0000357399   0.0000279128
        0.0000104881  -0.0000186709   0.0000134304  -0.0000314655   0.0000680370
       -0.0000183515  -0.0001407440  -0.0000563166  -0.0000626078   0.0000856628
       -0.0000647906  -0.0000200152  -0.0000506186   0.0000082792   0.0000008311
        0.0000766884   0.0000156433   0.0000068324  -0.0000944648   0.0000938302
        0.0000604830   0.0004666513  -0.0002830895   0.0000471824  -0.0749704002
       -0.0345423003   0.0211163224   0.0283560796  -0.0455740878  -0.0073993010
       -0.0005810815  -0.0008309365   0.0004508815  -0.0001716224   0.0001276524
        0.0003271812  -0.0000131692  -0.0000837997  -0.0001256616   0.0000219060
        0.0000917073  -0.0001056782  -0.0001207431  -0.0002315373   0.0000177097
        0.0006674929   0.0001247738   0.0000897315   0.0000377885   0.0000157255
       -0.0000003303  -0.0000005253  -0.0000033303   0.0000006187   0.0000053677
        0.0000026469   0.0000018659   0.0000025445   0.0000037726   0.0000040779
        0.0000000276   0.0000057208   0.0000009035   0.0000012614   0.0000034636
       -0.0000021478  -0.0000041512   0.0000085813  -0.0000049642   0.0000000735
       -0.0000055414  -0.0000012260  -0.0000024894   0.0000060531  -0.0000083884
       -0.0000004314   0.0000002963  -0.0000076998   0.0000027355  -0.0000025480
        0.0000046968   0.0000125940  -0.0000249298   0.0000031868   0.0000006157
        0.0000012890  -0.0000095774   0.0000088479  -0.0000223217   0.0000213447
       -0.0000127481   0.0000040494  -0.0000159431  -0.0000073773   0.0000006056
       -0.0000005015  -0.0000016056  -0.0000140005  -0.0000019765   0.0000226552
        0.0000075106   0.0000033970  -0.0000541250   0.0000597152   0.0000519781
        0.0289293851   0.0576084098  -0.0082932990   0.0253550479  -0.0187834388
       -0.0067426527  -0.1067670500  -0.1087769782   0.0311965400  -0.0001509517
       -0.0003795289   0.0001411196   0.0000938501  -0.0000428734   0.0000277424
       -0.0002944570  -0.0000508173  -0.0001133264   0.0000094612   0.0000222338
       -0.0000027453   0.0000033057   0.0000045780   0.0000027389   0.0000025326
        0.0000037752   0.0000026648  -0.0000022825   0.0000010977  -0.0000058460
       -0.0000027787   0.0000056953  -0.0000021987  -0.0000028385   0.0000040091
        0.0000010229  -0.0000044679  -0.0000020038   0.0000080667  -0.0000036299
        0.0000213198   0.0000341119  -0.0000136097  -0.0000052949  -0.0000074464
       -0.0000021204   0.0000042017  -0.0000032225   0.0000018932   0.0000019892
        0.0000012785   0.0000125044   0.0000193096   0.0000221994  -0.0026235651
       -0.0007512664   0.0005171022  -0.0001486118   0.0002002904  -0.0001475022
       -0.0000299554   0.0000176601  -0.0000241442  -0.0001465211   0.0001301783
       -0.0000381532  -0.0000010921  -0.0000030648   0.0000047501  -0.0000021614
        0.0000021743   0.0000022985  -0.0000014780  -0.0000000867   0.0000007816
       -0.0000021253   0.0000007421   0.0000013926  -0.0000035802   0.0000031979
        0.0000001831  -0.0000029277   0.0000038304   0.0000026295  -0.0000030431
        0.0000047439   0.0000049181   0.0000005509   0.0000113905   0.0000039656
       -0.0000063210   0.0000003876   0.0000007700   0.0000007890   0.0000047589
        0.0000008483  -0.0000010316   0.0000045763  -0.0000028370  -0.0000026399
        0.0000100109  -0.0000045835  -0.0033347221  -0.0005234554   0.0005983745
        0.0563919784  -0.0374107034  -0.0620726038  -0.1440684217  -0.0019222795
        0.1535225750   0.0067844174   0.0108211264  -0.0501434473   0.0048141521
       -0.0096598622  -0.0001294989   0.0011921246  -0.0003546876   0.0008987957
        0.0005419255  -0.0001454931  -0.0004153056  -0.0004314562   0.0003224071
        0.0002196148   0.0006000999  -0.0002828778  -0.0003401501  -0.0018914864
       -0.0005553683  -0.0005947752   0.0000059756  -0.0000002322  -0.0000699324
        0.0000001378  -0.0000210228  -0.0000141585  -0.0000063528  -0.0000197595
        0.0000078199  -0.0000032674  -0.0000083453  -0.0000019412   0.0000026903
        0.0000018888   0.0000048485  -0.0000040148  -0.0000007561   0.0000132416
        0.0000104402  -0.0000000412   0.0000192969   0.0000102507  -0.0000004611
        0.0000147521   0.0000025465   0.0000223999   0.0000105636   0.0000027104
        0.0000196134  -0.0000034148  -0.0000046740   0.0000058305  -0.0000188544
       -0.0000191395  -0.0000032777  -0.0000551237   0.0000062481  -0.0000133329
       -0.0000170800  -0.0000256792  -0.0000555748  -0.0000501598   0.0000157860
       -0.0000157945  -0.0000037420  -0.0000188872   0.0000042118  -0.0000047310
        0.0000338734   0.0000172466   0.0000053478  -0.0000445515   0.0000622549
        0.0000392212   0.0001997272  -0.0000792297   0.0000456561  -0.0056226994
        0.0071518236   0.0031509738   0.0017164106  -0.0083151227  -0.0059340913
        0.0004419078   0.0001359016  -0.0003070180  -0.0001050877  -0.0002007998
        0.0001384016   0.0000967814   0.0000182150  -0.0000039021  -0.0000661851
        0.0000027189  -0.0000242217  -0.0000046638   0.0000205956  -0.0000332762
       -0.0000572556   0.0000848062   0.0001049530  -0.0000101444   0.0000037246
       -0.0000052266  -0.0000033129  -0.0000077448   0.0000013389  -0.0000011439
        0.0000021862  -0.0000002881   0.0000001392  -0.0000002324   0.0000041172
        0.0000001581  -0.0000018259   0.0000060431  -0.0000001130  -0.0000003177
        0.0000044135  -0.0000007967   0.0000020446  -0.0000037148   0.0000008296
        0.0000015555   0.0000006304  -0.0000022669   0.0000002868   0.0000028515
       -0.0000014192   0.0000033649   0.0000025844  -0.0000027097   0.0000033669
        0.0000026159  -0.0000008656   0.0000037859  -0.0000041775  -0.0000029792
        0.0000007857   0.0000008335  -0.0000130316   0.0000029552  -0.0000026870
        0.0000078696  -0.0000007160   0.0000029964   0.0000029717  -0.0000028561
       -0.0000003170   0.0000059626   0.0000015791  -0.0000067750  -0.0000090952
       -0.0000069506   0.0000012280   0.0000185616   0.0000166078   0.0000011326
        0.0184692403   0.0083184269  -0.0039212759   0.0005888635  -0.0005576827
        0.0008044795   0.0540814434   0.0307994027  -0.0490314888   0.0000453584
       -0.0000191594   0.0001191391   0.0000859220  -0.0000225062  -0.0000948653
        0.0000108559   0.0002336650   0.0003866684   0.0000013408   0.0000042818
       -0.0000072658   0.0000018528  -0.0000000643  -0.0000056882   0.0000024514
       -0.0000031069  -0.0000027910   0.0000066395   0.0000019023   0.0000042320
        0.0000069483  -0.0000001699   0.0000143532   0.0000034573   0.0000026428
        0.0000096484  -0.0000038268  -0.0000052403   0.0000128165  -0.0000052942
        0.0000085408   0.0000218114   0.0000105289  -0.0000002603   0.0000001075
        0.0000009503   0.0000040286  -0.0000039608   0.0000002781   0.0000032288
       -0.0000036734  -0.0000024288   0.0000104453   0.0000021451   0.0031721596
        0.0008272689   0.0066930118  -0.0000310539   0.0000121582  -0.0000014230
       -0.0000041412  -0.0000067697   0.0000037009  -0.0000146580   0.0000487556
       -0.0000578106   0.0000009263  -0.0000030073   0.0000075951   0.0000010589
       -0.0000007516   0.0000065810   0.0000011347  -0.0000001391   0.0000069064
        0.0000020593   0.0000013801   0.0000048902   0.0000012832   0.0000038073
        0.0000038347   0.0000007281   0.0000055271   0.0000034587  -0.0000000920
        0.0000053540   0.0000013370  -0.0000003015   0.0000014872  -0.0000009633
        0.0000000877   0.0000017925  -0.0000009486  -0.0000015157  -0.0000015228
       -0.0000007159  -0.0000005819  -0.0000029255  -0.0000006875   0.0000019957
       -0.0000031484  -0.0000013281   0.0030813540   0.0006847404   0.0070619359
        0.0226708265   0.0251662688  -0.0071082394  -0.0874958385   0.0276994267
        0.0067844174   0.5943714037   0.0139895057  -0.1210436284  -0.1713734119
        0.0631720378   0.0318567639  -0.0016373040   0.0154507104   0.0068407651
        0.0039018226  -0.0009081630  -0.0016009335  -0.0024559833   0.0010833234
        0.0003631758  -0.0018520644  -0.0036425758  -0.0039294461  -0.0401350012
        0.0089972289   0.0043012180  -0.0007056343   0.0006566400   0.0001944539
        0.0000678712  -0.0000322361  -0.0000315449   0.0000298193   0.0000028212
        0.0000330522  -0.0000082447   0.0000118894  -0.0000271542   0.0000051057
        0.0000136193   0.0000028802  -0.0000063944   0.0000061048   0.0000059808
        0.0000045610  -0.0000211095   0.0000347281   0.0000137104   0.0000218223
        0.0000183299  -0.0000048731   0.0000065256   0.0000053537   0.0000058309
        0.0000227606   0.0000072507  -0.0000073228  -0.0000000807  -0.0000018295
        0.0000225819   0.0000309202  -0.0000059103   0.0000190345  -0.0000781973
       -0.0000170066  -0.0003717512  -0.0002614324  -0.0002574145   0.0000099985
       -0.0000784657   0.0000243498  -0.0000777741  -0.0000121336  -0.0000204593
        0.0002312056   0.0000610847   0.0000748796  -0.0001504567   0.0003963649
        0.0002958184   0.0010794058  -0.0004945074  -0.0000178984  -0.2368808179
       -0.1263864944   0.0572479745  -0.0618916336   0.0271469792   0.0171554993
       -0.0008677228   0.0040340877   0.0018181719   0.0000506850  -0.0006624026
       -0.0002150724   0.0003837920  -0.0000142183  -0.0000516268  -0.0001249680
       -0.0000748993   0.0000793773   0.0000696721   0.0000915714  -0.0003736899
       -0.0015035772  -0.0001990301   0.0001649068  -0.0000392396  -0.0000532365
       -0.0000046575   0.0000029104   0.0000160131   0.0000002631   0.0000015157
       -0.0000115800   0.0000025678   0.0000019900  -0.0000097641  -0.0000041854
        0.0000014192  -0.0000041155  -0.0000018629   0.0000013245  -0.0000050356
        0.0000008333   0.0000034767  -0.0000078009   0.0000109939  -0.0000003008
        0.0000002118   0.0000051932   0.0000003944  -0.0000012012   0.0000043696
        0.0000026495  -0.0000067133  -0.0000039885   0.0000034221  -0.0000061282
       -0.0000001984   0.0000094563   0.0000022506   0.0000055131   0.0000063390
        0.0000087571  -0.0000012571  -0.0000275802   0.0000183930  -0.0000173989
        0.0000021048   0.0000246457   0.0000134944  -0.0000094108  -0.0000017205
        0.0000003779   0.0000241420  -0.0000072505   0.0000170280  -0.0000065791
       -0.0000337373   0.0000225640   0.0001000532   0.0000162488  -0.0000140220
       -0.0111409797  -0.0283497457   0.0017053394  -0.0033381835   0.0033703270
        0.0032924595  -0.0019526217  -0.0249573467   0.0017006718   0.0003738935
       -0.0016836323   0.0000466032   0.0002668171  -0.0004937254  -0.0001119887
        0.0009438213   0.0007006685   0.0007335887  -0.0000223308  -0.0000045089
       -0.0000348162  -0.0000000559  -0.0000042334   0.0000055730   0.0000088404
        0.0000056173   0.0000072708   0.0000125330   0.0000123194   0.0000119167
        0.0000107936   0.0000084117   0.0000074722   0.0000114837   0.0000113739
       -0.0000036056   0.0000042056   0.0000080608  -0.0000187733  -0.0000312221
       -0.0000370359  -0.0000233565   0.0000563673   0.0000209831   0.0000283120
        0.0000206207   0.0000004024  -0.0000116141   0.0000286185  -0.0000200524
       -0.0000091963  -0.0000417623  -0.0000084536  -0.0000049040  -0.0011007863
       -0.0028369788  -0.0003860303  -0.0000891076  -0.0001910625   0.0002346071