$hessian                                                                        
        0.4235825349  -0.1119345543  -0.2365049482  -0.2078335271   0.0442650594
        0.1270515398  -0.0159596629   0.0689832457  -0.0127816140  -0.0280571568
       -0.0073565825   0.0243515316  -0.0016271176   0.0017616867  -0.0015131918
       -0.0002785616  -0.0001045349   0.0006891052  -0.0002735029  -0.0002209522
        0.0001658408   0.0002978369   0.0002167190  -0.0000196579  -0.0001578430
       -0.0003061743   0.0001629301   0.0003104744   0.0003954592  -0.0003434320
       -0.0004613617  -0.0007569170  -0.0000680596   0.0017402608  -0.0016626640
       -0.0014155858   0.0008673588  -0.0007588636   0.0005629647   0.0006836887
       -0.0007703069   0.0002309360   0.0009412472   0.0013778296   0.0008514170
        0.0024226971  -0.0038322453  -0.0017050248  -0.0025466624   0.0017685188
        0.0004931701  -0.0028728451   0.0037945434   0.0017880075  -0.0000397414
       -0.0027444220  -0.0014101435  -0.0021239708   0.0005379837   0.0003090722
        0.0009539852  -0.0008438662  -0.0004355344  -0.0002593657   0.0017496356
        0.0008910119   0.0027918094  -0.0003279902  -0.0001824432   0.0002296796
        0.0001982260  -0.0000647538  -0.0001027985   0.0000494855  -0.0001415840
       -0.0000447909  -0.0000197868   0.0000271638  -0.0000306216   0.0000006869
       -0.0000385156   0.0000197143   0.0000115774   0.0000116557   0.0000352493
        0.0000221118  -0.0000118702   0.0000596944  -0.0000052239   0.0000568965
       -0.0000163053   0.0000043740   0.0000093533  -0.0000382925  -0.0000168853
       -0.0000045787   0.0000215702   0.0000469963   0.0000264661  -0.0000500494
        0.0000003285   0.0000014361   0.0000353681   0.0000214931   0.0000111615
       -0.0000238680  -0.0000399976  -0.0000239689   0.0000511625  -0.0000177578
       -0.0000153569   0.0000281767   0.0000457873  -0.0000516975   0.0000188921
        0.0000127665   0.0000326707  -0.0000065943   0.0000059620  -0.0000183259
        0.0000106100   0.0000093632   0.0000237396   0.0000066859  -0.0000125547
        0.0000357323   0.0000176903  -0.0000786638   0.0000640058   0.0291906221
       -0.0396239168  -0.0085105860  -0.1235784280  -0.0253511615   0.0798770005
       -0.0603702907   0.0723047154  -0.0048211875  -0.0124370001   0.0041853951
        0.0097850590   0.0039474131   0.0030182727   0.0031399147  -0.0000154695
       -0.0000331164  -0.0000220035   0.0000029419  -0.0000105408   0.0000029890
       -0.0000123973   0.0000076290   0.0000144182  -0.0000100678   0.0000017519
       -0.0000098472  -0.0000667815  -0.0000394551   0.0000345611  -0.0001323582
        0.0003839689  -0.0001798123   0.0000093971   0.0000509354   0.0000178603
       -0.0000294921  -0.0000334476   0.0000771670   0.0000008017  -0.0000114084
       -0.0000028239  -0.0000070866  -0.0000114239   0.0000014654   0.0000015278
        0.0000099481  -0.0000088475   0.0000240969  -0.0000008902   0.0000008863
        0.0000130296   0.0000138214  -0.0000092168  -0.0000036387  -0.0000134115
        0.0000141092   0.0000107863   0.0000014948   0.0000108335   0.0000147047
        0.0000067972   0.0000103281  -0.0000089379   0.0000050945   0.0000059979
       -0.0000003320   0.0000092387   0.0000072979   0.0000078306   0.0000033687
        0.0000025015   0.0000035472  -0.0000048018  -0.0000025235  -0.0000007475
       -0.0000041468  -0.0000006209   0.0000168228   0.0000078518  -0.0000038147
        0.0000121081   0.0000080132  -0.0000117241  -0.0000080927   0.0000116521
       -0.0000364752   0.0000096498  -0.0000190329   0.0000129259   0.0036757783
        0.0035524444   0.0025405504  -0.0125816848  -0.0118945362   0.0169660952
       -0.1119345543   0.6238238840  -0.1101073866   0.1016688103  -0.1205718729
       -0.0624406177   0.0244662184  -0.0262495599  -0.0130637928  -0.0072443103
        0.0084111411   0.0013020744  -0.0007221155  -0.0032297736   0.0010040659
        0.0015600579   0.0010890568  -0.0000971166  -0.0004724956  -0.0008163977
        0.0003468238   0.0013177330   0.0005197210   0.0002928433  -0.0009807222
       -0.0003006858  -0.0002379455   0.0002481567   0.0004650675  -0.0002443450
       -0.0011835079  -0.0003595254  -0.0002580839   0.0016078849  -0.0017357031
       -0.0013711489  -0.0010908545  -0.0004290682   0.0004082926   0.0011895208
       -0.0006314494  -0.0000670352   0.0001422718   0.0008770675   0.0004125648
        0.0036735654  -0.0030637192  -0.0013911005  -0.0036408964   0.0023510676
        0.0009572186  -0.0024384696   0.0036424878   0.0015520381  -0.0001494672
       -0.0024483595  -0.0012378077  -0.0018821698   0.0004130925   0.0002522440
        0.0008792955  -0.0008501467  -0.0004791888  -0.0001609337   0.0015911226
        0.0008253834   0.0026045660  -0.0003531334  -0.0001853268   0.0000622261
        0.0000430054   0.0000038352   0.0000851937   0.0000757047   0.0000746965
       -0.0000840401   0.0000029979  -0.0000772905   0.0000001429  -0.0000415273
        0.0000967535  -0.0000441074  -0.0000732222   0.0001159472   0.0000542156
        0.0000923162  -0.0001541574  -0.0001260545  -0.0001788472   0.0001943459
        0.0001014701   0.0000794204  -0.0000180690   0.0000531358   0.0000111481
       -0.0000079067  -0.0000116244   0.0000330046   0.0000164777  -0.0000826312
        0.0000716279   0.0000515116   0.0001262186   0.0000591822   0.0000328273
        0.0000064110  -0.0001026599  -0.0000653366   0.0000214782  -0.0000186700
       -0.0000105681  -0.0001013912  -0.0000058572  -0.0001962267   0.0000491614
       -0.0000610064   0.0001291461  -0.0000366462   0.0000531147  -0.0001246797
        0.0000156862   0.0000738724  -0.0000891862  -0.0000727678  -0.0000677236
        0.0000498072   0.0000834789   0.0000905336   0.0000233722   0.0006625031
       -0.0470860335   0.0209668759  -0.0796653037  -0.1618522021   0.1198375006
        0.0723904417  -0.2760473601   0.0353219682  -0.0123160447   0.0058417786
        0.0097496745   0.0032754384  -0.0045274427   0.0021221597  -0.0000446567
       -0.0000314596  -0.0000237749  -0.0000179034   0.0000189558   0.0000096379
        0.0000023940   0.0000094287  -0.0000352799  -0.0000234593  -0.0000174115
       -0.0000040454  -0.0001473580  -0.0001615029  -0.0000356434   0.0002223162
        0.0000567847   0.0000774598   0.0000631351  -0.0000027468   0.0000733002
        0.0000554096   0.0000731877   0.0001918802   0.0000533395   0.0000287431
        0.0000005211   0.0000107731   0.0000254229   0.0000180043  -0.0000252968
        0.0000397834   0.0000062074   0.0000047414  -0.0000017070   0.0000003128
        0.0000239986   0.0000052611   0.0000014725   0.0000116227   0.0000213988
       -0.0000213738  -0.0000129981   0.0000082220  -0.0000187034  -0.0000142913
       -0.0000077519  -0.0000010536   0.0000086542   0.0000017716   0.0000075154
        0.0000065172  -0.0000109908  -0.0000038691  -0.0000212132  -0.0000076907
       -0.0000002441  -0.0000098628   0.0000097710   0.0000104995   0.0000013671
        0.0000016162   0.0000041992  -0.0000129120  -0.0000086747  -0.0000066246
       -0.0000075407  -0.0000132161   0.0000155234   0.0000171846  -0.0000057450
        0.0000149737   0.0000156535  -0.0000084524   0.0000116665   0.0031789784
       -0.0045072200   0.0024306086   0.0047572330   0.0058747544  -0.0069393018
       -0.2365049482  -0.1101073866   0.3732782613   0.1033893087  -0.0082892891
       -0.1367557729   0.0061134283  -0.0524697993   0.0184607795   0.0228239409
        0.0005857078  -0.0287438973   0.0015034726  -0.0003861666   0.0007403517
       -0.0003845359  -0.0003094164  -0.0006125612   0.0004656114   0.0005249608
       -0.0002660434  -0.0008134331  -0.0004076240  -0.0000923165   0.0005440749
        0.0004276019  -0.0000814014  -0.0004306850  -0.0006041167   0.0004718228
        0.0009305246   0.0009995006   0.0001861404  -0.0021754349   0.0022088491
        0.0018471354  -0.0000948733   0.0007117252  -0.0004532869  -0.0011801394
        0.0009791516  -0.0001856769  -0.0008329742  -0.0015544900  -0.0009286488
       -0.0037262364   0.0046486304   0.0020796614   0.0037793035  -0.0025196517
       -0.0008025811   0.0035538166  -0.0048733461  -0.0022367088   0.0000881431
        0.0034475483   0.0017686278   0.0026745779  -0.0006560843  -0.0003807382
       -0.0012180453   0.0011056944   0.0005856491   0.0002998472  -0.0022092466
       -0.0011425653  -0.0035656575   0.0004586510   0.0002451897  -0.0002376485
       -0.0002072949   0.0000774428   0.0000798242  -0.0000798640   0.0001080371
        0.0000801786   0.0000256111  -0.0000067692   0.0000348947   0.0000192370
        0.0000045427  -0.0000082464   0.0000137864  -0.0000530730  -0.0000577442
       -0.0000488150   0.0000639410  -0.0000148018   0.0000619906  -0.0001187113
       -0.0000162654  -0.0000258932  -0.0000032360   0.0000054167   0.0000059053
        0.0000050467  -0.0000077137  -0.0000584730  -0.0000336984   0.0000749985
       -0.0000304318  -0.0000234409  -0.0000825317  -0.0000420567  -0.0000229795
        0.0000182895   0.0000775431   0.0000477305  -0.0000534573   0.0000254684
        0.0000192101   0.0000178852  -0.0000366874   0.0001196337  -0.0000393595
        0.0000118327  -0.0000762772   0.0000182579  -0.0000266890   0.0000670287
       -0.0000218840  -0.0000407508   0.0000147785   0.0000253964   0.0000414118
       -0.0000546627  -0.0000527387   0.0000264900  -0.0000649704  -0.0259381492
        0.0571418274   0.0001297030   0.1027323568   0.0690820548  -0.1690836824
       -0.0049435634   0.0352038401  -0.0429745698   0.0174081515  -0.0059149780
       -0.0120729501   0.0022772139   0.0023927109   0.0040048333   0.0000344199
        0.0000381627   0.0000268593   0.0000055884   0.0000016609  -0.0000035760
        0.0000118930  -0.0000130044  -0.0000019330   0.0000229840   0.0000132825
        0.0000091343   0.0001214677   0.0001659602  -0.0000106585   0.0000604416
       -0.0004262827   0.0001788582  -0.0000218437  -0.0000498422  -0.0000476479
        0.0000007537   0.0000007688  -0.0001459672  -0.0000214971  -0.0000006108
       -0.0000006913   0.0000011534   0.0000014387  -0.0000090394   0.0000092956
       -0.0000279193   0.0000082651  -0.0000253278   0.0000013725  -0.0000004670
       -0.0000226665  -0.0000145247   0.0000078390  -0.0000013948   0.0000028539
       -0.0000025856  -0.0000038187  -0.0000055472  -0.0000011514  -0.0000060660
       -0.0000032421  -0.0000080345   0.0000025240  -0.0000053436  -0.0000074241
       -0.0000002252  -0.0000012785  -0.0000034412   0.0000013540   0.0000005458
       -0.0000018875   0.0000010547   0.0000009350  -0.0000016417  -0.0000006589
        0.0000045481  -0.0000002973  -0.0000079081  -0.0000027617   0.0000064306
       -0.0000068235  -0.0000012953   0.0000027897   0.0000007669  -0.0000088302
        0.0000262608  -0.0000157761   0.0000219889  -0.0000169591   0.0029180702
        0.0020726272   0.0047287249   0.0104043929   0.0089051579  -0.0117860867
       -0.2078335271   0.1016688103   0.1033893087   0.4285008389  -0.0911787993
       -0.2495886173  -0.0901842924   0.0445461025   0.0238926414   0.0260939688
        0.0027369178  -0.0262593226   0.0022128293  -0.0053019655   0.0063691365
        0.0011298029   0.0005039197   0.0000648207  -0.0001332215  -0.0005791290
        0.0000652479   0.0006104380   0.0001312175   0.0001824610  -0.0005241303
        0.0001126591  -0.0003482723  -0.0001024145  -0.0001703842   0.0002532888
       -0.0003092815   0.0006986996  -0.0002031562  -0.0001460523  -0.0001244239
        0.0003287974  -0.0015161390   0.0000904593  -0.0000242389   0.0004105463
        0.0001715857  -0.0001874853  -0.0006564365  -0.0005656384  -0.0004428978
        0.0010660618   0.0006532745   0.0002077883  -0.0007496455   0.0001986361
        0.0001319554   0.0002983338  -0.0001048703  -0.0001537056  -0.0000683310
        0.0001391519   0.0000815651   0.0001075452  -0.0000502778  -0.0000127680
       -0.0000443150   0.0000311670   0.0000210202   0.0000476598  -0.0000988521
       -0.0000160282  -0.0000601774  -0.0000791833  -0.0000114516  -0.0000028699
       -0.0000639924   0.0000748404   0.0000055911   0.0000166850   0.0000484916
       -0.0000431106  -0.0000257756  -0.0000127737  -0.0000116627  -0.0000289371
        0.0000354473   0.0000203792  -0.0000058049   0.0000304619   0.0000244641
        0.0000035922  -0.0000005043  -0.0000197197   0.0000003092  -0.0000310444
       -0.0000287055  -0.0000158488   0.0000253330   0.0001005476   0.0000441970
        0.0000211509  -0.0000313238  -0.0000025472   0.0000018003  -0.0000106690
        0.0000326424   0.0000215107   0.0000365118   0.0000147885   0.0000076313
        0.0000169697  -0.0000248315  -0.0000162140  -0.0000164587  -0.0000169898
       -0.0000087037  -0.0000314809  -0.0000113461  -0.0000138218   0.0000325392
       -0.0000110359  -0.0000037055   0.0000316358   0.0000266232  -0.0000191789
       -0.0000401758  -0.0000127858  -0.0000601792  -0.0000540930   0.0000049876
       -0.0000462634  -0.0000448917   0.0000599599   0.0000210290  -0.0185017118
        0.0246956049   0.0026913376  -0.0296033578  -0.0383991693   0.0443711442
       -0.0075599813   0.0055212990   0.0051804353  -0.0967928515  -0.0670656861
        0.0863448474  -0.0078165221   0.0220547555  -0.0013906763   0.0000081540
       -0.0000042500   0.0000294002  -0.0000078357   0.0000178473   0.0000342180
        0.0000217043  -0.0000146259  -0.0000323275   0.0000054625   0.0000083524
        0.0000112263   0.0000086455  -0.0000082422  -0.0000240918   0.0001133773
       -0.0000601996  -0.0000415976   0.0000096720  -0.0000205044   0.0000329900
        0.0000194398   0.0000682062   0.0000985053   0.0000246687   0.0000197768
       -0.0000040121   0.0000044680   0.0000287472   0.0000091814  -0.0000002651
        0.0000130028   0.0000005642  -0.0000060327   0.0000021767  -0.0000035711
        0.0000044057  -0.0000080151   0.0000098876   0.0000011775   0.0000146090
       -0.0000180251  -0.0000130448   0.0000051752  -0.0000210746  -0.0000157078
       -0.0000071912  -0.0000121993   0.0000085758   0.0000067315   0.0000011599
       -0.0000042451  -0.0000140797  -0.0000096924  -0.0000171900  -0.0000064295
       -0.0000041618  -0.0000145483   0.0000056996   0.0000026045   0.0000069259
        0.0000007374  -0.0000017256  -0.0000191074  -0.0000093862   0.0000034292
       -0.0000217212  -0.0000133531   0.0000228586   0.0000068078  -0.0000026186
        0.0000360586   0.0000181633   0.0000033199  -0.0000164004  -0.0001094008
        0.0003742821  -0.0002557500   0.0021583375  -0.0006195396   0.0051400617
        0.0442650594  -0.1205718729  -0.0082892891  -0.0911787993   0.6087669974
       -0.1212856402   0.0990138154  -0.3065515792   0.0172341789  -0.0335912360
       -0.0476664195   0.0509591547  -0.0009934018   0.0039325693  -0.0001264960
       -0.0020714788  -0.0017265487   0.0011907599   0.0000892388   0.0007159981
       -0.0004002973  -0.0011382683  -0.0004165598  -0.0003414589   0.0009381524
       -0.0001326810   0.0005596102   0.0001032815   0.0001747046  -0.0003736545
        0.0010279088  -0.0007595380   0.0003813762  -0.0003766826   0.0001321630
        0.0002668272   0.0025483858  -0.0006954257  -0.0000027840  -0.0008706515
        0.0000316701   0.0006606739   0.0009704229   0.0005720376   0.0006016327
       -0.0015054722  -0.0010449049  -0.0005220675   0.0011761801  -0.0005025199
       -0.0005563053  -0.0006550590   0.0004797774   0.0004469801   0.0000507925
       -0.0005529906  -0.0002790925  -0.0005078635   0.0001032179   0.0000115005
        0.0002370189  -0.0001678834  -0.0000983067  -0.0000342220   0.0003893720
        0.0001634308   0.0004183625  -0.0000347194  -0.0000055845   0.0001600076
        0.0002523963  -0.0001419091  -0.0002014764  -0.0000391262  -0.0002071724
       -0.0000232398  -0.0000149793   0.0000431291  -0.0001145429  -0.0000291336
       -0.0000655952   0.0001305199   0.0000715130   0.0000100500   0.0000772892
       -0.0000110381   0.0001098132   0.0001759676   0.0001508698  -0.0001006486
       -0.0001088975  -0.0001123370   0.0000514237   0.0000156303   0.0000316033
        0.0000106579  -0.0000273312  -0.0000050733   0.0000059647   0.0000042499
        0.0000000916  -0.0000000266   0.0000061295  -0.0000008376   0.0000017036
        0.0000011273   0.0000004073   0.0000053371  -0.0000164772  -0.0000147362
       -0.0000079255   0.0000606986   0.0000212583   0.0000365001   0.0000545904
        0.0000752663  -0.0000390338   0.0001189893   0.0000476861   0.0000187307
       -0.0000707291  -0.0000257396  -0.0000308528   0.0000014624  -0.0000379526
        0.0000236896   0.0000081619  -0.0001625398   0.0000212625   0.0215391693
       -0.0292839935  -0.0091292573   0.0006350171   0.0482504921  -0.0205514971
        0.0224360816  -0.0135386715  -0.0145869013  -0.0678861229  -0.1267456432
        0.0998369284   0.0059519370  -0.0127575000   0.0007517737  -0.0000526478
        0.0000264961  -0.0000566277  -0.0000181191  -0.0000198359  -0.0000169663
       -0.0000184928   0.0000408203   0.0000516861   0.0000281542  -0.0000123609
        0.0000124824  -0.0000188288  -0.0001761413   0.0001556674  -0.0001175877
        0.0002990558  -0.0000630381  -0.0000410210   0.0000431698  -0.0000493787
       -0.0000061253  -0.0000265591  -0.0000444553   0.0000069801  -0.0000157481
        0.0000228003   0.0000069345   0.0000001506   0.0000072472  -0.0000185191
        0.0000173714   0.0000075499   0.0000050660  -0.0000113855  -0.0000068458
        0.0000067238   0.0000154872  -0.0000063214   0.0000115194  -0.0000008654
       -0.0000038371  -0.0000025417   0.0000031806  -0.0000102448  -0.0000060230
        0.0000004680   0.0000119852   0.0000046104   0.0000006333  -0.0000030684
       -0.0000048067  -0.0000122037  -0.0000077867  -0.0000092721  -0.0000061546
       -0.0000021707  -0.0000097533  -0.0000009031   0.0000020983   0.0000037800
       -0.0000049905  -0.0000006713   0.0000007641   0.0000031194  -0.0000097047
       -0.0000085863  -0.0000194316   0.0000147756   0.0000118578   0.0000021855
        0.0000266210   0.0000146765   0.0000039207   0.0000110188   0.0004476245
       -0.0001053124  -0.0004753872  -0.0010600622  -0.0006413136   0.0041712787
        0.1270515398  -0.0624406177  -0.1367557729  -0.2495886173  -0.1212856402
        0.3954299439   0.0013162361   0.0664764671  -0.0739347877  -0.0114435212
        0.0191644311   0.0014299897   0.0055176683   0.0036627546   0.0000038806
       -0.0004090289   0.0014924368   0.0001029576   0.0001631936   0.0000960608
        0.0000180931   0.0001299608   0.0000584066  -0.0001277435  -0.0000628950
       -0.0000881115   0.0000479204   0.0001377873   0.0000640141  -0.0001379484
       -0.0003609179  -0.0001999807  -0.0001190587   0.0003026794  -0.0003134093
        0.0002356489   0.0005500760  -0.0005230446   0.0001620920  -0.0001776423
       -0.0000658822   0.0002120625   0.0002700531   0.0001762282   0.0001754774
        0.0001317218  -0.0007306572  -0.0003698336  -0.0000800716   0.0001099851
       -0.0000047493  -0.0005260392   0.0006937185   0.0003327421   0.0000358148
       -0.0005232711  -0.0002837113  -0.0003858419   0.0001352723   0.0000750569
        0.0001734743  -0.0001889916  -0.0000902358  -0.0000861030   0.0003630958
        0.0001918112   0.0005179648  -0.0000914530  -0.0000216622  -0.0000178633
        0.0000384501  -0.0000837617  -0.0000043346   0.0000319664  -0.0000242605
        0.0000121847   0.0000064313   0.0000265940   0.0000323937   0.0000315187
       -0.0000246886  -0.0000471958  -0.0000090038  -0.0000251016  -0.0000322518
        0.0000022007  -0.0000354825  -0.0000108682  -0.0000432921   0.0000611582
        0.0000524590   0.0000517944   0.0000002177  -0.0000904021  -0.0000559976
       -0.0000209044   0.0000479968   0.0000253486   0.0000060537  -0.0000169442
       -0.0000223128  -0.0000154724  -0.0000122700  -0.0000000885  -0.0000012987
       -0.0000245363  -0.0000011814  -0.0000020856   0.0000457953   0.0000075883
        0.0000009064  -0.0000068007   0.0000086557  -0.0000376071  -0.0000335070
       -0.0000140324   0.0000361564  -0.0000744685  -0.0000339106  -0.0000061192
        0.0000716257   0.0000323891   0.0000581882   0.0000201943  -0.0000124332
        0.0000447296   0.0000473287   0.0000170908  -0.0000116256   0.0048314266
       -0.0130820400  -0.0030715103   0.0284454959   0.0171972350  -0.0317081521
       -0.0021039071   0.0008300990   0.0019227146   0.0857596665   0.1002618572
       -0.1562628235   0.0050611230  -0.0150564998   0.0016480648   0.0000232975
       -0.0000099898   0.0000230111   0.0000184307   0.0000148737   0.0000027800
       -0.0000175993   0.0000029297   0.0000280651  -0.0000083337   0.0000007941
       -0.0000158774  -0.0000183867   0.0000434116   0.0000103999  -0.0002353104
        0.0002805094  -0.0001533559   0.0000508133   0.0000284132   0.0000182226
        0.0000008972  -0.0000372286   0.0000002508  -0.0000155061  -0.0000065532
        0.0000033930  -0.0000054304  -0.0000263663  -0.0000095404   0.0000086829
       -0.0000090919  -0.0000076164   0.0000182235   0.0000019418  -0.0000025593
       -0.0000005370   0.0000042080  -0.0000144672  -0.0000061037  -0.0000166957
        0.0000189289   0.0000146318  -0.0000034020   0.0000228197   0.0000182303
        0.0000063683   0.0000060794  -0.0000132511  -0.0000017458   0.0000055751
        0.0000054309   0.0000197513   0.0000139054   0.0000184146   0.0000085446
        0.0000050674   0.0000145638  -0.0000058505  -0.0000037172  -0.0000077962
        0.0000001674   0.0000016360   0.0000227656   0.0000055705   0.0000006759
        0.0000278025   0.0000207014  -0.0000275797  -0.0000152762   0.0000010092
       -0.0000454632  -0.0000180560  -0.0000066624   0.0000148290  -0.0003241829
       -0.0003925749   0.0001791422   0.0053137523   0.0038233220   0.0008793327
       -0.0159596629   0.0244662184   0.0061134283  -0.0901842924   0.0990138154
        0.0013162361   0.4169780388  -0.1227434258  -0.2392508864  -0.1197620992
       -0.0634202197   0.0921826163   0.0059872544  -0.0024310320  -0.0018772612
        0.0007846829   0.0019387009  -0.0002575939  -0.0005782893  -0.0007452718
        0.0005448048   0.0013301999   0.0007206094   0.0000324133  -0.0008594377
       -0.0003231205  -0.0001856762   0.0003164925   0.0005241634  -0.0002610296
       -0.0010041255  -0.0004900410  -0.0001386964   0.0022887553  -0.0007660733
       -0.0032189185  -0.0005129302  -0.0015216062  -0.0006737778   0.0012852829
       -0.0009371689   0.0005266784   0.0010868618   0.0018285968   0.0012297679
        0.0054659148  -0.0066047960  -0.0027218428  -0.0055066505   0.0034044904
        0.0012539913  -0.0053776279   0.0074528776   0.0033951611  -0.0002272005
       -0.0054649270  -0.0027744308  -0.0043296200   0.0009777552   0.0006008152
        0.0019866743  -0.0017011495  -0.0008674740  -0.0003561521   0.0034115837
        0.0017947591   0.0056145267  -0.0006748580  -0.0004177686   0.0004575752
        0.0003546580  -0.0001258999  -0.0001800110   0.0001122065  -0.0002072028
       -0.0001688830  -0.0001236465   0.0001076082  -0.0000929418  -0.0000431766
       -0.0000436291   0.0000905988   0.0000256442   0.0000626327   0.0001406047
        0.0000261608   0.0000478970   0.0000974378  -0.0000004070   0.0000633776
       -0.0000593546  -0.0000488240   0.0001023329   0.0001195117   0.0000658410
        0.0000439812  -0.0000033359   0.0001126443   0.0000692157  -0.0000826811
        0.0000371514   0.0000246952   0.0001018244   0.0000501908   0.0000273285
       -0.0000109044  -0.0000941029  -0.0000556712   0.0000972496  -0.0000746832
       -0.0000484950  -0.0000385099   0.0001047827  -0.0001835196   0.0001223809
        0.0000459887   0.0000435143   0.0000589262   0.0000593754  -0.0000489312
       -0.0000164392  -0.0000024102  -0.0000361935  -0.0001894830  -0.0001302018
       -0.0000939319   0.0000604663  -0.0000486560   0.0000968848  -0.0238668218
       -0.0026055756   0.0244462655   0.0026697782  -0.0028527979  -0.0052568457
       -0.0002493842   0.0034210482   0.0056849436   0.0034513508  -0.0127265727
        0.0022471703  -0.1802095017   0.0745441963   0.1127720582   0.0000045680
       -0.0000647653  -0.0000070156   0.0000067162  -0.0000126937   0.0000263443
       -0.0000200593   0.0000004762  -0.0000129342  -0.0000486323   0.0000052298
       -0.0000081333  -0.0003426127  -0.0000647279  -0.0000456631  -0.0005546505
        0.0010198568  -0.0011201535   0.0000809444   0.0000578647   0.0000046814
        0.0001038617   0.0001261545   0.0002284635   0.0001107400   0.0000481535
       -0.0000086791   0.0000111539   0.0000348988   0.0000270676  -0.0000111982
        0.0000588736  -0.0000148167   0.0000192380  -0.0000114215   0.0000001080
        0.0000431388   0.0000349554  -0.0000261491   0.0000041338   0.0000003920
       -0.0000081389   0.0000017088   0.0000122704  -0.0000175429  -0.0000070745
       -0.0000028807   0.0000022559  -0.0000013137   0.0000057559   0.0000041349
       -0.0000085515  -0.0000107634  -0.0000036381  -0.0000092691  -0.0000078017
       -0.0000025362  -0.0000179015  -0.0000058702  -0.0000017810   0.0000033803
       -0.0000087047  -0.0000028511   0.0000064329  -0.0000060340  -0.0000045591
        0.0000114178  -0.0000075060   0.0000172827  -0.0000091653  -0.0000119012
        0.0000323665   0.0000395704   0.0000463433   0.0000470561  -0.0005464436
        0.0028428640   0.0053149400   0.0003638181  -0.0002029738  -0.0005050109
        0.0689832457  -0.0262495599  -0.0524697993   0.0445461025  -0.3065515792
        0.0664764671  -0.1227434258   0.6156914094  -0.0949340792  -0.0306044062
       -0.1308553375   0.0614535431  -0.0109415299  -0.0467255535   0.0273526897
        0.0068736372  -0.0012066195   0.0019044525  -0.0019298840  -0.0035022015
        0.0011372020   0.0022503757   0.0006346769   0.0007520420  -0.0015542776
        0.0000046940  -0.0007764258   0.0001486905   0.0002014368   0.0002906639
       -0.0013630715   0.0009857776  -0.0003812692  -0.0009637267  -0.0041821491
        0.0003092399  -0.0019769900   0.0000608188   0.0007545963   0.0017147554
       -0.0004350943  -0.0002904289  -0.0004254878   0.0002465643  -0.0001251392
        0.0046252921  -0.0022635700  -0.0010716765  -0.0050662092   0.0032168302
        0.0014575554  -0.0018680864   0.0032223119   0.0012621931  -0.0001809865
       -0.0019473095  -0.0010179989  -0.0013647204   0.0003741795   0.0002687579
        0.0006050210  -0.0006240661  -0.0003209219  -0.0001392524   0.0011783736
        0.0006635464   0.0021756357  -0.0003921553  -0.0001940432  -0.0000737225
       -0.0000648225   0.0000896881   0.0001944479   0.0001363297   0.0002240168
       -0.0000644805  -0.0000531139   0.0000208762   0.0001192356   0.0000295524
        0.0000539494  -0.0001487042  -0.0000716871  -0.0000219034  -0.0000454060
       -0.0000057446  -0.0000988978  -0.0001835480  -0.0002106609   0.0001825187
        0.0001073279   0.0001535570  -0.0000743068   0.0000318881  -0.0000171088
       -0.0000067258   0.0000422412   0.0000503996   0.0000161415  -0.0000122794
       -0.0000007274  -0.0000012269  -0.0000009058   0.0000054344   0.0000007265
       -0.0000040138  -0.0000097206  -0.0000111015   0.0000654567  -0.0000113110
       -0.0000101922  -0.0000640935  -0.0000160126  -0.0000949423  -0.0000390539
       -0.0000597155   0.0000262944  -0.0001415912  -0.0000621955  -0.0000327894
        0.0001042354   0.0000619907   0.0000181986  -0.0000294023   0.0000800070
       -0.0000280339   0.0000629618   0.0002370463   0.0000207985  -0.0276031527
        0.0379855748   0.0110457537  -0.0080290499  -0.0410116336   0.0229895771
        0.0031320460   0.0006138255  -0.0000257372   0.0041707760  -0.0194990349
        0.0053729005   0.0739780695  -0.0793978862  -0.0528196750  -0.0000929620
        0.0000225050  -0.0001004183  -0.0001010841  -0.0000964006   0.0001246061
       -0.0000172797  -0.0000683755  -0.0000815034  -0.0000885043   0.0000026549
       -0.0000339117  -0.0003152277   0.0000756597  -0.0002446232   0.0010494145
       -0.0000002130   0.0008410773   0.0000903920  -0.0000116259   0.0001411008
        0.0001213186   0.0002884963   0.0003166140   0.0000456675   0.0000509091
        0.0000041982  -0.0000030271   0.0000075266   0.0000038253   0.0000193772
        0.0000063641  -0.0000080856   0.0000073952   0.0000146123   0.0000076329
        0.0000029107  -0.0000071319  -0.0000025145  -0.0000108087   0.0000106050
       -0.0000164337   0.0000046351   0.0000020278   0.0000081629  -0.0000017912
       -0.0000050865  -0.0000208218  -0.0000052747  -0.0000030932   0.0000041010
        0.0000029952   0.0000108222   0.0000073934   0.0000087596   0.0000045438
        0.0000014759   0.0000050852  -0.0000031471  -0.0000037662  -0.0000102670
        0.0000039070   0.0000025846  -0.0000112315  -0.0000174666   0.0000050981
        0.0000043239   0.0000128619  -0.0000116789  -0.0000052466  -0.0000010797
       -0.0000303018  -0.0000207603  -0.0000580793  -0.0000037913   0.0034094795
        0.0003892868  -0.0005953161  -0.0004582731  -0.0003753036   0.0003482209
       -0.0127816140  -0.0130637928   0.0184607795   0.0238926414   0.0172341789
       -0.0739347877  -0.2392508864  -0.0949340792   0.3775648725   0.0788374429
        0.1008399143  -0.1609209484   0.0009362165   0.0166947419  -0.0056872422
       -0.0022189114  -0.0013544627   0.0009932597   0.0007585164   0.0012764795
       -0.0006915235  -0.0015458959  -0.0007723296  -0.0003111390   0.0011236050
        0.0000766420   0.0005068922  -0.0000518976  -0.0002541947  -0.0000511732
        0.0009894997  -0.0001069380   0.0002526643  -0.0018824501   0.0020606707
        0.0016780928  -0.0007146230   0.0013868651  -0.0026482887  -0.0009847697
        0.0006373031   0.0002042452  -0.0008205620  -0.0017363094  -0.0006886723