$hessian                                                                        
        0.5681502819   0.0351836492   0.1692744035  -0.1384388429  -0.1426069712
       -0.0852700064  -0.0251181793  -0.0262546819  -0.0179831495  -0.0028449599
        0.0021986014   0.0006768402  -0.0019738330   0.0002391446  -0.0016082500
        0.0009874518  -0.0005146827  -0.0003212831  -0.0002107895  -0.0003096623
        0.0000230704   0.0002619990   0.0004872891  -0.0000550482  -0.0001185460
       -0.0006454450   0.0000302477   0.0001619076   0.0000557453  -0.0001003643
        0.0000374799  -0.0001637600  -0.0000714022   0.0000948056   0.0002943295
        0.0000017525  -0.0001354165  -0.0001343432   0.0000602636  -0.0001130789
        0.0003015670   0.0000694081  -0.0000147615   0.0000548948   0.0000268652
       -0.0000109486  -0.0001124304  -0.0000207820   0.0000573670   0.0001187833
        0.0000041676  -0.0001176281   0.0000490052   0.0000685304   0.0001020497
       -0.0000766559  -0.0000640057  -0.0000813050   0.0001111500   0.0000293114
        0.0000848249  -0.0002240471   0.0000067593  -0.0003546474   0.0001953320
       -0.0001870247   0.0000142931  -0.0000040432   0.0000553759  -0.0001534024
        0.0001591251  -0.0000800939   0.0000858235  -0.0002504597   0.0001305078
        0.0000736518   0.0003048704  -0.0002075862  -0.0000167265   0.0001397067
        0.0000850753   0.0002376080  -0.0000634501  -0.0000057228  -0.0001141817
        0.0000182007  -0.0000193393  -0.0000594813  -0.0000544712   0.0001957142
        0.0002299909   0.0000926980   0.0003583252  -0.0000591822  -0.0002830158
        0.0000889180  -0.0000694176  -0.0002291227   0.0000000663   0.0000952499
        0.0001018791   0.0000566460  -0.0000145841  -0.0000108407  -0.0000788651
       -0.0000078611  -0.0000690375   0.0000115147   0.0000038768   0.0000281277
       -0.0000265529  -0.0000102010  -0.0000486017   0.0000565821   0.0000301299
       -0.0000172313  -0.0000444282  -0.0000211498   0.0000356103   0.0000686238
        0.0000318769   0.0000166010  -0.0000913108  -0.0000857486   0.0000803481
        0.0001560035   0.0000983499  -0.0001524577  -0.0000975502  -0.0000513933
        0.0001185286   0.0000123167   0.0000455086  -0.0000928087  -0.0000503563
       -0.0000335248  -0.0000005803   0.0000603873  -0.0001364554  -0.0000129705
       -0.0000666135   0.0001221472   0.0001202375   0.0000847208   0.0000873347
       -0.0001454652   0.0000049233  -0.0001303084  -0.0006093202   0.0004918830
       -0.0000044997   0.0010292046  -0.0008503740   0.0004737797  -0.0005148863
        0.0004449586   0.0001751493   0.0002616087  -0.0009521346   0.0005537415
       -0.0027382718  -0.0007834641  -0.1235933300   0.1224665008   0.0092908162
       -0.2817125572  -0.0009951738  -0.0804640735   0.0054586944   0.0138450006
        0.0078474738  -0.0001812954  -0.0000992546   0.0001439249  -0.0003523205
       -0.0000459251  -0.0001564746  -0.0000052950   0.0000322586   0.0000475749
       -0.0000452878   0.0000262497  -0.0000267978  -0.0000157148  -0.0000050999
        0.0000555060  -0.0000024170   0.0000118491  -0.0000251338  -0.0000034392
        0.0000071381   0.0000096525   0.0000047124  -0.0000019318  -0.0000015381
        0.0000030330   0.0000014882   0.0000000648  -0.0000005561  -0.0000060528
       -0.0000033074   0.0000032981   0.0000009493  -0.0000063658   0.0000033353
       -0.0000154136  -0.0000083469  -0.0000124456  -0.0000002384   0.0000036095
        0.0000032304  -0.0000129311   0.0000041077  -0.0000257400  -0.0000036489
       -0.0000350813  -0.0001052744  -0.0000006623  -0.0000373226   0.0000721529
        0.0000369431  -0.0000634300  -0.0001354311   0.0000584876  -0.0000577396
       -0.0000737001   0.0000031959   0.0000096788  -0.0000001985  -0.0000000433
       -0.0000108609   0.0000012783   0.0000061453  -0.0000259966  -0.0000114042
        0.0000109987  -0.0000246680  -0.0000078161   0.0000092210   0.0000013275
       -0.0000020187  -0.0000010480   0.0000017870  -0.0000056272   0.0000054761
        0.0000063485  -0.0000039097   0.0000094002  -0.0000055826   0.0000003623
       -0.0000006725   0.0000000463  -0.0000003607   0.0000034020  -0.0000024240
       -0.0000056774   0.0000054143  -0.0000016956  -0.0000042356   0.0000060352
       -0.0000022094   0.0000401341  -0.0000132360   0.0000002657  -0.0010798030
       -0.0008013453  -0.0000615903
        0.0351836492   0.6975436400   0.2174543581  -0.1273509608  -0.3919947158
       -0.1716454578  -0.0260522872  -0.0041746306  -0.0107904473   0.0028750611
        0.0045727621   0.0030047689  -0.0023435168   0.0007044166  -0.0004154327
        0.0012418257  -0.0002003142   0.0003881263  -0.0002817348   0.0000706633
       -0.0001139833   0.0000309669  -0.0001299330   0.0000512992   0.0002044901
        0.0000084246  -0.0001237389  -0.0000970328   0.0000280816   0.0000712845
        0.0000607044   0.0000333315  -0.0000768185  -0.0000100070   0.0000877522
        0.0000305830   0.0000441728  -0.0000110974  -0.0000216643  -0.0000780466
        0.0000585487   0.0000117684  -0.0000037708   0.0000197536   0.0000191950
       -0.0000250612  -0.0000685457  -0.0000136283   0.0000232869   0.0000766855
        0.0000069428  -0.0000940609   0.0000392081   0.0000535499   0.0000772135
       -0.0000318668  -0.0000539609  -0.0000025281   0.0000229671   0.0000010031
        0.0000416619  -0.0000556475   0.0000147391  -0.0003092207   0.0002286987
       -0.0002179798  -0.0001998648  -0.0000955584   0.0001350747   0.0000452034
        0.0001925227  -0.0001271968   0.0001387449  -0.0001539259   0.0001529751
        0.0003845002   0.0001314711  -0.0001872936   0.0000347149   0.0001965583
       -0.0000149696  -0.0000714414  -0.0000973629  -0.0001105651  -0.0000049782
        0.0002323893   0.0001819737   0.0000170153  -0.0000643019   0.0001596280
        0.0002450383   0.0000366987  -0.0000778013  -0.0000875541  -0.0001940664
       -0.0000355301  -0.0001170219   0.0000835180   0.0000742898   0.0000084912
       -0.0000204069   0.0000099142   0.0000265406  -0.0000436596   0.0000139968
        0.0001123055   0.0000577714   0.0000535736  -0.0000941260  -0.0000483602
       -0.0000437999   0.0000225639   0.0000052016   0.0000009108   0.0000019333
       -0.0000031993  -0.0000117626  -0.0000126810   0.0000026881  -0.0000014055
        0.0000001725   0.0000024249  -0.0000112731  -0.0000013073  -0.0000022296
        0.0000068245   0.0000062263  -0.0000091517  -0.0000018791  -0.0000083634
        0.0000174632   0.0000020976   0.0000100777  -0.0000053861   0.0000058418
       -0.0000005549   0.0000019892   0.0000073951  -0.0000164282   0.0000302890
       -0.0000152424   0.0000121304   0.0000664665   0.0000156984  -0.0001475289
       -0.0000430192  -0.0000886067  -0.0000030544  -0.0003957097   0.0001701872
        0.0002714499   0.0002862512   0.0000271428  -0.0003271280  -0.0004620437
        0.0000883870  -0.0014258415  -0.0009394410  -0.0012275870   0.0054778527
       -0.0037263324  -0.0000677787   0.1238201865  -0.2293348772  -0.0201432827
       -0.0040729754  -0.0430019469  -0.0050170739  -0.0081904705  -0.0296986295
       -0.0117854031   0.0000674448  -0.0000234684   0.0003015107  -0.0000552072
       -0.0000529369   0.0001158183  -0.0000074730   0.0000188313   0.0000199874
        0.0000863649   0.0000270601  -0.0000036451   0.0000076041  -0.0000046879
        0.0000169646  -0.0000157346   0.0000141999  -0.0000070988   0.0000020839
        0.0000069290   0.0000003050   0.0000072661  -0.0000013421   0.0000042180
        0.0000055761  -0.0000021665  -0.0000008710  -0.0000012000  -0.0000058588
       -0.0000011018  -0.0000022468  -0.0000088995   0.0000009972   0.0000017570
       -0.0000000988   0.0000057204  -0.0000067309  -0.0000305624  -0.0000136177
        0.0000064254  -0.0000002712   0.0000037924   0.0000102175   0.0000170191
        0.0000006303  -0.0000265429  -0.0000592817  -0.0000175138   0.0000206635
       -0.0000816780   0.0000217130   0.0000490622  -0.0000485080   0.0000023179
        0.0000380183  -0.0000155744   0.0000066278  -0.0000063617  -0.0000018358
        0.0000026415   0.0000059234   0.0000036183   0.0000052903   0.0000022619
       -0.0000051711   0.0000057874  -0.0000007399  -0.0000022195   0.0000019766
       -0.0000004964   0.0000029755  -0.0000021988   0.0000012323  -0.0000001435
       -0.0000027137   0.0000007262  -0.0000028127   0.0000017276  -0.0000012361
        0.0000028590  -0.0000013261  -0.0000010149   0.0000060620  -0.0000017693
        0.0000028588  -0.0000081745   0.0000063444  -0.0000095241  -0.0000161459
       -0.0000029190   0.0000667829   0.0000299559  -0.0000407581   0.0007636069
        0.0004100502  -0.0002008042
        0.1692744035   0.2174543581   0.2250353905  -0.0761883249  -0.1734438326
       -0.1184686486  -0.0215231438  -0.0098891690  -0.0109277065  -0.0004696552
        0.0016932939   0.0023202912  -0.0016205585   0.0001344352  -0.0004977178
        0.0008997253  -0.0000180855   0.0004892079  -0.0001951630   0.0001238007
       -0.0000061446  -0.0001656227  -0.0004918431   0.0001066511   0.0002998918
        0.0004962770  -0.0001568292  -0.0001946661  -0.0000270818   0.0000978962
        0.0000272394   0.0001623161  -0.0000033531  -0.0000891801  -0.0001488060
       -0.0000110724   0.0001318019   0.0001862073  -0.0000301909   0.0000109173
       -0.0002344274  -0.0000272153   0.0000332054  -0.0001188996  -0.0000409192
       -0.0000384117   0.0000741375   0.0000376958  -0.0000143142  -0.0000524434
       -0.0000018119  -0.0000018948   0.0000182172   0.0000085845   0.0000101319
       -0.0000171963  -0.0000102074   0.0000775233  -0.0000180697  -0.0000298921
       -0.0000189864   0.0001345494   0.0000270067  -0.0001107492   0.0002079752
       -0.0001423388  -0.0001658965  -0.0001179278   0.0000941421   0.0000606367
        0.0001582577  -0.0000934640   0.0000959152  -0.0001082033   0.0001058696
        0.0003319888   0.0000504181  -0.0001215702   0.0000303838   0.0000807506
        0.0000177970   0.0002254602  -0.0000899831   0.0001379313   0.0000077119
       -0.0001076066  -0.0001645968   0.0002528351   0.0003211922  -0.0004991117
        0.0002406000   0.0002651364  -0.0005546719   0.0002355066   0.0004079964
       -0.0002439741  -0.0001303121  -0.0004821459  -0.0002401580   0.0002206214
        0.0000694898   0.0001188714  -0.0002095064  -0.0001312180  -0.0001516985
        0.0000546212   0.0001153795   0.0000400506  -0.0000555113   0.0000172462
        0.0000031123   0.0000265390  -0.0000210519  -0.0000148233  -0.0000305862
        0.0000066199   0.0000404917   0.0000499134  -0.0000535094  -0.0000441111
       -0.0000362334  -0.0000061005   0.0001181699   0.0000892998  -0.0000840512
       -0.0001762845  -0.0001133658   0.0001830146   0.0001120365   0.0000661805
       -0.0001487727  -0.0000120417  -0.0000661301   0.0001027431   0.0000524715
        0.0000324516  -0.0000050728  -0.0000840641  -0.0000412289  -0.0000000549
       -0.0000160541   0.0000635584   0.0000819368   0.0000425365  -0.0001314332
       -0.0001246417  -0.0000670499  -0.0000237928  -0.0002911227   0.0001603436
       -0.0000017114   0.0001027518   0.0000535810  -0.0006824330   0.0005128580
       -0.0000322939  -0.0011900109  -0.0003878365  -0.0010374785   0.0044560355
       -0.0030253253  -0.0007009801   0.0097238553  -0.0227706454  -0.0363956394
       -0.0816570093  -0.0042819891  -0.0576615191  -0.0015745274  -0.0068762151
       -0.0008449762  -0.0000425207   0.0000343183   0.0001870493  -0.0001098093
        0.0000596993  -0.0000743197   0.0000268130   0.0000062984   0.0000373185
        0.0000540124   0.0000109113  -0.0000078299   0.0000163331  -0.0000016594
        0.0000180353  -0.0000097500  -0.0000037480   0.0000180323  -0.0000123834
        0.0000011781  -0.0000039407  -0.0000137737  -0.0000031176   0.0000014283
       -0.0000108262   0.0000067678   0.0000041499  -0.0000028264   0.0000132795
        0.0000026887   0.0000028194  -0.0000023104  -0.0000010779  -0.0000066643
        0.0000100730   0.0000001090   0.0000029351  -0.0000000701  -0.0000133281
        0.0000077436   0.0000045768  -0.0000088235  -0.0000280428  -0.0000077396
        0.0000043104  -0.0000780742  -0.0000438398  -0.0000231714   0.0000016757
       -0.0000429176   0.0000115828  -0.0001123682   0.0000100630  -0.0000229106
       -0.0000307472  -0.0000039190   0.0000003531   0.0000030833   0.0000168255
        0.0000142160  -0.0000035604  -0.0000067726  -0.0000054881  -0.0000042996
       -0.0000046951   0.0000040814  -0.0000000535  -0.0000032951  -0.0000001209
        0.0000022103   0.0000013322  -0.0000040782   0.0000029805  -0.0000062547
       -0.0000040636  -0.0000002890  -0.0000001902  -0.0000025147   0.0000001203
        0.0000028533  -0.0000041380  -0.0000000178   0.0000052322  -0.0000034842
        0.0000059703   0.0000343090   0.0000041917  -0.0000085655   0.0000203560
        0.0000009347   0.0000187073   0.0000286166  -0.0000524019   0.0000405728
        0.0002758083   0.0002136894
       -0.1384388429  -0.1273509608  -0.0761883249   0.5316776283   0.0290145044
        0.1441468609  -0.2091954858  -0.0060718033  -0.0552111705  -0.0170328596
       -0.0141618556  -0.0165222620   0.0062432826  -0.0005681274  -0.0009239227
       -0.0031816384   0.0006016446  -0.0010191448   0.0002136929  -0.0001876918
        0.0003599314   0.0000312830  -0.0001627642   0.0000450394  -0.0001328400
        0.0001863831   0.0000843872   0.0000629245  -0.0001254589   0.0000250334
       -0.0000547523   0.0000360020   0.0001416952   0.0001507689  -0.0000388779
       -0.0000514932  -0.0001060346  -0.0000337319   0.0000331377   0.0001045480
       -0.0000752715  -0.0000422560  -0.0000158854   0.0000192441  -0.0000101030
        0.0000514087  -0.0000134439  -0.0000257168   0.0000016479  -0.0000042484
       -0.0000073924   0.0000426084  -0.0000378656  -0.0000316590  -0.0000599151
        0.0000163087   0.0000314704  -0.0000146094  -0.0000032915  -0.0000032069
        0.0000413008  -0.0000187700  -0.0000458806   0.0001436839  -0.0003147689
        0.0002615452   0.0001930675   0.0001540732  -0.0001290136  -0.0000608741
       -0.0002124868   0.0001218369  -0.0001068973   0.0001841355  -0.0001561069
       -0.0004003667  -0.0001254120   0.0002126735  -0.0000421571  -0.0001842721
       -0.0001043494  -0.0000105543   0.0001542517   0.0000418349  -0.0000008011
       -0.0000461676   0.0000135492   0.0000534977   0.0000955044   0.0002667047
       -0.0001776152  -0.0003109164   0.0002701433  -0.0002458061   0.0000062610
        0.0001976181   0.0000197622   0.0001426367  -0.0000859193  -0.0001092050
        0.0000571648  -0.0000558198   0.0000502597   0.0000644365   0.0000417508
       -0.0001127998  -0.0000292656  -0.0000410905   0.0000919423   0.0000459347
        0.0000320713  -0.0000109665  -0.0000068561   0.0000172271   0.0000259359
       -0.0000109336  -0.0000223157  -0.0000618036   0.0000248231   0.0000324352
        0.0000287865  -0.0000127542  -0.0000764814  -0.0000659868   0.0000571632
        0.0001293036   0.0000822163  -0.0001300782  -0.0000906319  -0.0000386188
        0.0000990088   0.0000103377   0.0000752979  -0.0000706309  -0.0000446300
       -0.0000242472   0.0000139756   0.0000834194   0.0000490181  -0.0000287225
        0.0000069993  -0.0000325349  -0.0000553428  -0.0000280907   0.0001437581
        0.0000641820   0.0001104241   0.0002130387   0.0005320731  -0.0003671091
       -0.0000698642  -0.0005163359   0.0002921196  -0.0003579734   0.0000862434
       -0.0002971431   0.0013373544   0.0047204886   0.0035711092  -0.0401646428
        0.0111265473  -0.0037416896   0.0075362675   0.0138844424   0.0049142226
       -0.0156515654  -0.0259399503  -0.0137962282  -0.1231211136   0.1163772516
        0.0122656211   0.0008229986   0.0006541681   0.0017901603  -0.0000090469
        0.0001951625   0.0000585075   0.0000417262  -0.0000226861   0.0000463377
       -0.0001430872  -0.0000382157  -0.0000038973  -0.0000365006  -0.0000268305
       -0.0000748008   0.0000306952   0.0000224612  -0.0000212311   0.0000152613
       -0.0000088618  -0.0000014072   0.0000014864   0.0000018363  -0.0000016774
        0.0000026122  -0.0000004574  -0.0000008182   0.0000015844  -0.0000048066
        0.0000021642   0.0000011417   0.0000117550   0.0000001385   0.0000056241
        0.0000007893  -0.0000030468   0.0000040964   0.0000114765   0.0000104745
       -0.0000050420   0.0000116909  -0.0000026235  -0.0000542259   0.0000684394
       -0.0000225938   0.0000384336  -0.0001082600  -0.0001295648  -0.0001574980
        0.0000480210   0.0001333829   0.0000126671  -0.0000267672  -0.0000076711
        0.0000120913   0.0000016091  -0.0000050537  -0.0000019200  -0.0000120497
       -0.0000060952   0.0000102651   0.0000071965  -0.0000010326   0.0000072843
        0.0000033329  -0.0000149718  -0.0000053719   0.0000086041  -0.0000033107
       -0.0000036144  -0.0000011214   0.0000035186  -0.0000064882   0.0000066976
        0.0000058894  -0.0000030825   0.0000040665  -0.0000064680  -0.0000017501
       -0.0000018287   0.0000041502  -0.0000006599  -0.0000033743   0.0000002202
       -0.0000039026  -0.0000547395  -0.0000036377   0.0000086153  -0.0000038759
        0.0000086159  -0.0007549185  -0.0002016913  -0.0002273080   0.0006048022
       -0.0014573688  -0.0001677004
       -0.1426069712  -0.3919947158  -0.1734438326   0.0290145044   0.6859669211
        0.2343759640   0.0105436141  -0.0642765792  -0.0017946946  -0.0205344331
       -0.0063407995  -0.0121392595   0.0022837807   0.0011891332  -0.0057416591
       -0.0008741860  -0.0003905535  -0.0012615186  -0.0001381961  -0.0010711468
        0.0007240684   0.0001605502   0.0004875744  -0.0000037232  -0.0003452366
       -0.0003674467   0.0001659199   0.0002623612   0.0000606177  -0.0001824912
       -0.0000936898  -0.0001766536   0.0000467203   0.0000929897   0.0000330141
       -0.0000033335  -0.0001080743  -0.0000634940   0.0000380232   0.0000256639
        0.0000911353  -0.0000143381  -0.0000070336   0.0000331088   0.0000122725
        0.0000326091   0.0000320725  -0.0000101004  -0.0000081831  -0.0000303928
       -0.0000072405   0.0000362659  -0.0000314666  -0.0000229115  -0.0000475828
       -0.0000180905   0.0000200622  -0.0000493955   0.0000467038   0.0000376884
       -0.0000357800  -0.0000663975  -0.0000478269   0.0002987143  -0.0002489625
        0.0002301245   0.0001666267   0.0000998777  -0.0001280473  -0.0000619832
       -0.0001765118   0.0001080088  -0.0000719269   0.0001165420  -0.0001396734
       -0.0004536158  -0.0000804505   0.0001637131  -0.0000434494  -0.0003502832
       -0.0000799331  -0.0001295171   0.0001271558  -0.0000639462   0.0000725628
       -0.0002018261  -0.0000354067  -0.0001496006   0.0001411698  -0.0000304585
       -0.0005643325   0.0003379809   0.0005827836  -0.0000090443   0.0001578203
        0.0001685152   0.0002133271  -0.0000025688  -0.0000919133  -0.0000920509
       -0.0000072356  -0.0000819669   0.0000763076   0.0001191368   0.0000489677
       -0.0001755807  -0.0000680768  -0.0000742011   0.0001540467   0.0000303793
        0.0000660430  -0.0000291263   0.0000229179  -0.0000285979  -0.0000076477
        0.0000114037   0.0000282066   0.0000105774  -0.0000026527  -0.0000198445
       -0.0000135251   0.0000068183   0.0000190756   0.0000216672  -0.0000170479
       -0.0000450184  -0.0000307504   0.0000455886   0.0000330332   0.0000096729
       -0.0000346607  -0.0000119776  -0.0000181271   0.0000196679   0.0000129474
        0.0000090242  -0.0000046898  -0.0000258684   0.0000823754  -0.0000746137
        0.0000296414  -0.0000470236  -0.0000983331  -0.0000323790   0.0002021185
        0.0000573679   0.0001160306   0.0001709184   0.0005824130  -0.0003903130
       -0.0001122822  -0.0006359005   0.0003125166   0.0001145525   0.0003085480
       -0.0000416963   0.0058863155   0.0035609514  -0.0030431072   0.0098446742
        0.0053506465   0.0050775767  -0.0066896255  -0.0262580493  -0.0123019643
       -0.0020420289  -0.0026903532  -0.0029727675   0.1177792123  -0.1997086643
       -0.0300382555  -0.0017061252  -0.0011461083   0.0006410885  -0.0008545115
       -0.0000370783  -0.0006824923   0.0000542336   0.0000304460   0.0001047316
       -0.0003616335  -0.0000500227  -0.0000738971  -0.0000259779  -0.0000204996
        0.0000285142   0.0000097781  -0.0000043043   0.0000059581  -0.0000037360
        0.0000047094   0.0000079880   0.0000014464   0.0000003763  -0.0000007942
        0.0000000050   0.0000015636   0.0000015450   0.0000016282   0.0000017493
        0.0000028100  -0.0000002137   0.0000061934  -0.0000019136   0.0000044881
        0.0000020153  -0.0000002326   0.0000037669   0.0000152505   0.0000151712
       -0.0000030373   0.0000101375   0.0000046458   0.0000409950  -0.0000638342
        0.0000249647  -0.0000692798   0.0000335328  -0.0000552790   0.0001772071
       -0.0002164976  -0.0001238132   0.0000432371   0.0000100374   0.0000398321
        0.0000078195  -0.0000023515   0.0000082232   0.0000003454  -0.0000026470
        0.0000017102  -0.0000023977  -0.0000080720   0.0000076171  -0.0000018330
       -0.0000010459   0.0000116831   0.0000081068  -0.0000106700   0.0000013354
        0.0000019573  -0.0000007006   0.0000000215   0.0000047096  -0.0000031311
       -0.0000030844   0.0000042294  -0.0000029622   0.0000061426   0.0000007481
       -0.0000001577  -0.0000023699  -0.0000021391  -0.0000044983   0.0000053033
        0.0000010441   0.0000042987   0.0000012191  -0.0000032606   0.0000010525
        0.0000019485   0.0007457365  -0.0002530652   0.0004063883  -0.0000523699
       -0.0018417657   0.0015473978
       -0.0852700064  -0.1716454578  -0.1184686486   0.1441468609   0.2343759640
        0.2552102539  -0.0475192147  -0.0098045255  -0.0753410545  -0.0272733128
       -0.0101098550  -0.0157809266   0.0012594118  -0.0066611485   0.0001514705
       -0.0018975808   0.0001626865  -0.0007485633   0.0006571720   0.0008292347
       -0.0003671281  -0.0003364754  -0.0002043142   0.0000461416  -0.0000156428
        0.0004946815  -0.0000205517  -0.0000550769  -0.0001162129   0.0000547278
       -0.0000644231   0.0000982376   0.0001198825  -0.0000866299  -0.0002426744
       -0.0000162747   0.0000876455   0.0000821246  -0.0000384514   0.0001444980
       -0.0002415298  -0.0000350327  -0.0000045299  -0.0000201437  -0.0000248800
        0.0000445538   0.0000963794   0.0000085286  -0.0000594829  -0.0001216121
       -0.0000038473   0.0001603765  -0.0000618406  -0.0000971411  -0.0001346578
        0.0001028202   0.0000913812   0.0000702548  -0.0001115590  -0.0000193029
       -0.0000964540   0.0002063344   0.0000019711   0.0003751070  -0.0002209082
        0.0002110111   0.0000660404   0.0000184303  -0.0000878882   0.0001127852
       -0.0001849177   0.0000940952  -0.0001146184   0.0002588589  -0.0001681074
       -0.0002529716  -0.0002227876   0.0002181725  -0.0000374868  -0.0001952789
       -0.0000831758  -0.0000994416   0.0001001477   0.0000867298   0.0000205668
       -0.0001423205  -0.0001688392   0.0000779975   0.0003008265  -0.0003100060
        0.0001938825  -0.0000370822  -0.0002997553   0.0000803876   0.0001345568
       -0.0000634948   0.0000563473  -0.0000799670   0.0000081343   0.0000123861
       -0.0000096637  -0.0000073919  -0.0000306377  -0.0000390105  -0.0000282091
        0.0000097044   0.0000904550   0.0000377975  -0.0000290701  -0.0000162759
       -0.0000298697  -0.0000063018  -0.0000047159   0.0000025626  -0.0000022007
        0.0000024231   0.0000097913  -0.0000116411  -0.0000047729  -0.0000043548
       -0.0000039820  -0.0000014383   0.0000050650   0.0000054775  -0.0000064476
       -0.0000121349  -0.0000087654   0.0000105468   0.0000093002   0.0000045973
       -0.0000087685  -0.0000037993   0.0000115414   0.0000029845   0.0000027403
        0.0000032023   0.0000005888   0.0000092661   0.0000734541   0.0000090954
        0.0000257432  -0.0000566435  -0.0000726940  -0.0000410575   0.0000643313
        0.0001385697   0.0000700853   0.0000831221   0.0005553091  -0.0003735521
       -0.0000945646  -0.0006173613   0.0003853620  -0.0001553838   0.0003049808
       -0.0002242719   0.0027783283  -0.0036393022   0.0031094362   0.0021457909
        0.0057141679   0.0058757518   0.0004211928  -0.0051529451  -0.0021307541
       -0.0055941602  -0.0089623298  -0.0054876235   0.0162177891  -0.0276868808
       -0.0439568852  -0.0005896943   0.0019404518  -0.0004012211  -0.0009808956
       -0.0000148922  -0.0006205814   0.0000079959  -0.0000972425  -0.0000396664
        0.0001404845  -0.0000046321   0.0000413618   0.0000006963  -0.0000279258
       -0.0000277224   0.0000107053  -0.0000061559   0.0000066042  -0.0000053457
       -0.0000006812  -0.0000043490  -0.0000067610   0.0000015741  -0.0000025703
       -0.0000024023   0.0000013169   0.0000008576   0.0000009982   0.0000025127
        0.0000030931   0.0000005750   0.0000052060   0.0000042178   0.0000014366
        0.0000055660   0.0000011208   0.0000114564   0.0000162751   0.0000123888
       -0.0000039042   0.0000029598  -0.0000086904  -0.0000349985   0.0000098625
        0.0000182766  -0.0000557522  -0.0000397985  -0.0001214459   0.0000126164
        0.0000480054  -0.0000094882  -0.0000126563   0.0000090639   0.0000017561
       -0.0000059714  -0.0000036200  -0.0000032769   0.0000022594   0.0000012128
        0.0000023354   0.0000017078   0.0000020165  -0.0000029696   0.0000002517
        0.0000019711  -0.0000023253   0.0000008672  -0.0000012220  -0.0000011105
        0.0000003190  -0.0000003459  -0.0000008443   0.0000013325  -0.0000009072
       -0.0000017934   0.0000002796   0.0000003742  -0.0000002686  -0.0000001304
        0.0000008076  -0.0000015348  -0.0000002983  -0.0000012595  -0.0000003300
       -0.0000046432  -0.0000195484   0.0000005768  -0.0000019079   0.0000064405
        0.0000068030   0.0006983691  -0.0001029102   0.0002112361   0.0007395618
        0.0008218627  -0.0004628675
       -0.0251181793  -0.0260522872  -0.0215231438  -0.2091954858   0.0105436141
       -0.0475192147   0.6130993389  -0.0732027397   0.0592192184  -0.0925766894
       -0.0348869941  -0.0611464994  -0.0012380500  -0.0199602273  -0.0238014591
        0.0004480082   0.0114914815   0.0176669487  -0.0013587850   0.0003397406
       -0.0001764636   0.0000602450  -0.0010164286   0.0000968992   0.0004452671
        0.0004257196  -0.0002658992  -0.0003580969   0.0004128258   0.0003388092
        0.0000668215   0.0000754920  -0.0001800603  -0.0003114166   0.0001033663
        0.0000999966   0.0002562942  -0.0001963413  -0.0001586615   0.0000785539
       -0.0000433049  -0.0000821116  -0.0000178141   0.0002027446   0.0000822044
        0.0000746448  -0.0000663177  -0.0000457461   0.0000213922   0.0000337623
        0.0000011428   0.0000478513  -0.0000901905  -0.0000416400  -0.0000544713
        0.0001506733   0.0000640846   0.0000551980  -0.0002708282  -0.0001018960
       -0.0000860120   0.0001257714   0.0001512730  -0.0003816165   0.0006750685
       -0.0005351433  -0.0004876131  -0.0003950132   0.0003136801   0.0002654663
        0.0003718477  -0.0002361918   0.0001429013  -0.0002598291   0.0002650085
        0.0009071572   0.0002791040  -0.0004022048   0.0000141945   0.0001652356
        0.0000463319   0.0000884307  -0.0001234975  -0.0000338042   0.0000488162
       -0.0001339017  -0.0000134912   0.0001791816   0.0000287401   0.0003120079
       -0.0000267838   0.0000440709  -0.0002738985   0.0000217684   0.0000003215
       -0.0002485511  -0.0001526794  -0.0002628059  -0.0000296781   0.0001196032
       -0.0000436255   0.0000540023  -0.0000379422  -0.0001451158  -0.0000522815
        0.0001447027   0.0001355658   0.0000868488  -0.0001332331  -0.0000167715
       -0.0000491037   0.0000478648  -0.0000368953   0.0000094398  -0.0000309013
        0.0000106701   0.0000182685   0.0000456342  -0.0000491790  -0.0000258513
       -0.0000268768  -0.0000001579   0.0000899570   0.0000735238  -0.0000704187
       -0.0001399495  -0.0000874404   0.0001400464   0.0000901581   0.0000475890
       -0.0001110113  -0.0000058643  -0.0000561319   0.0000826355   0.0000428797
        0.0000279557  -0.0000059741  -0.0000806164   0.0000295228   0.0000887598
        0.0000325249  -0.0000517266   0.0000434505  -0.0000180512  -0.0001435745
        0.0000466663  -0.0000743914  -0.0004047150  -0.0011331432   0.0008557996
        0.0002816596   0.0012171406  -0.0006867727  -0.0005447494  -0.0006245447
        0.0002599908  -0.0606946496   0.0051375683  -0.0134464405  -0.2020580773
        0.1081871303   0.0870091617  -0.0000353295   0.0000951186   0.0031441482
        0.0015757865   0.0003180706  -0.0039959846  -0.0215110804   0.0020743178
       -0.0022141199   0.0024380294   0.0136795317   0.0166910145  -0.0045566838
        0.0005734699  -0.0037154889   0.0003143378   0.0000721080   0.0001317269
        0.0003278531   0.0001201234  -0.0001334319  -0.0000176267  -0.0000439637
       -0.0001069255   0.0000365855   0.0000380091  -0.0000192954   0.0000271296
       -0.0000285927  -0.0000557002  -0.0000074653  -0.0000121809   0.0000073137
       -0.0000092693   0.0000043029   0.0000012808  -0.0000029318   0.0000143583
       -0.0000033912   0.0000061668  -0.0000108725  -0.0000031595  -0.0000059740
        0.0000013613   0.0000130461  -0.0000019029  -0.0000256559  -0.0000230737
        0.0000094276  -0.0000141961   0.0000010770  -0.0000115410   0.0000916624
       -0.0000309279   0.0000395532   0.0000783494   0.0000180955   0.0000306081
        0.0001118499   0.0000137135  -0.0000118938   0.0000051020   0.0000048655
       -0.0000073755   0.0000010718   0.0000024461  -0.0000050455   0.0000106666
        0.0000103453  -0.0000013820   0.0000053511  -0.0000037239  -0.0000028551
       -0.0000034895   0.0000042800  -0.0000014288  -0.0000007815   0.0000024229