      -----------------------------------------------------------      
     |                   =====================                   |     
     |                           x T B                           |     
     |                   =====================                   |     
     |                         S. Grimme                         |     
     |          Mulliken Center for Theoretical Chemistry        |     
     |                    University of Bonn                     |     
      -----------------------------------------------------------      

   * xtb version 6.7.1 (edcfbbe) compiled by 'albert@albert-system' on 2024-07-22

   xtb is free software: you can redistribute it and/or modify it under
   the terms of the GNU Lesser General Public License as published by
   the Free Software Foundation, either version 3 of the License, or
   (at your option) any later version.
   
   xtb is distributed in the hope that it will be useful,
   but WITHOUT ANY WARRANTY; without even the implied warranty of
   MERCHANTABILITY or FITNESS FOR A PARTICULAR PURPOSE.  See the
   GNU Lesser General Public License for more details.
   
   Cite this work as:
   * C. Bannwarth, E. Caldeweyher, S. Ehlert, A. Hansen, P. Pracht,
     J. Seibert, S. Spicher, S. Grimme, WIREs Comput. Mol. Sci., 2020, 11,
     e01493. DOI: 10.1002/wcms.1493
   
   for GFN2-xTB:
   * C. Bannwarth, S. Ehlert and S. Grimme., J. Chem. Theory Comput., 2019,
     15, 1652-1671. DOI: 10.1021/acs.jctc.8b01176
   for GFN1-xTB:
   * S. Grimme, C. Bannwarth, P. Shushkov, J. Chem. Theory Comput., 2017,
     13, 1989-2009. DOI: 10.1021/acs.jctc.7b00118
   for GFN0-xTB:
   * P. Pracht, E. Caldeweyher, S. Ehlert, S. Grimme, ChemRxiv, 2019, preprint.
     DOI: 10.26434/chemrxiv.8326202.v1
   for GFN-FF:
   * S. Spicher and S. Grimme, Angew. Chem. Int. Ed., 2020, 59, 15665-15673.
     DOI: 10.1002/anie.202004239
   
   for ALPB and GBSA implicit solvation:
   * S. Ehlert, M. Stahn, S. Spicher, S. Grimme, J. Chem. Theory Comput.,
     2021, 17, 4250-4261. DOI: 10.1021/acs.jctc.1c00471
   
   for ddCOSMO and CPCM-X implicit solvation:
   * M. Stahn, S. Ehlert, S. Grimme, J. Phys. Chem. A,
     2023, XX, XXXX-XXXX. DOI: 10.1021/acs.jpca.3c04382
   
   for DFT-D4:
   * E. Caldeweyher, C. Bannwarth and S. Grimme, J. Chem. Phys., 2017,
     147, 034112. DOI: 10.1063/1.4993215
   * E. Caldeweyher, S. Ehlert, A. Hansen, H. Neugebauer, S. Spicher,
     C. Bannwarth and S. Grimme, J. Chem. Phys., 2019, 150, 154122.
     DOI: 10.1063/1.5090222
   * E. Caldeweyher, J.-M. Mewes, S. Ehlert and S. Grimme, Phys. Chem. Chem. Phys.
     2020, 22, 8499-8512. DOI: 10.1039/D0CP00502A
   
   for sTDA-xTB:
   * S. Grimme and C. Bannwarth, J. Chem. Phys., 2016, 145, 054103.
     DOI: 10.1063/1.4959605
   
   in the mass-spec context:
   * V. Asgeirsson, C. Bauer and S. Grimme, Chem. Sci., 2017, 8, 4879.
     DOI: 10.1039/c7sc00601b
   * J. Koopman and S. Grimme, ACS Omega 2019, 4, 12, 15120-15133.
     DOI: 10.1021/acsomega.9b02011
   
   for metadynamics refer to:
   * S. Grimme, J. Chem. Theory Comput., 2019, 155, 2847-2862
     DOI: 10.1021/acs.jctc.9b00143
   
   for SPH calculations refer to:
   * S. Spicher and S. Grimme, J. Chem. Theory Comput., 2021, 17, 1701-1714
     DOI: 10.1021/acs.jctc.0c01306
   
   for ONIOM refer to:
   * C. Plett, A. Katbashev, S. Ehlert, S. Grimme, M. Bursch,
     Phys. Chem. Chem. Phys., 2023, 25, 17860-17868. DOI: 10.1039/D3CP02178E
   
   for DIPRO refer to:
   * J. Kohn, N. Gildemeister, S. Grimme, D. Fazzi, A. Hansen,
     J. Chem. Phys., 2023, just accepted.
   
   for PTB refer to:
   * S. Grimme, M. Mueller, A. Hansen, J. Chem. Phys., 2023, 158, 124111.
     DOI: 10.1063/5.0137838
   
   with help from (in alphabetical order)
   P. Atkinson, C. Bannwarth, F. Bohle, G. Brandenburg, E. Caldeweyher
   M. Checinski, S. Dohm, S. Ehlert, S. Ehrlich, I. Gerasimov, C. Hölzer
   A. Katbashev, J. Kohn, J. Koopman, C. Lavigne, S. Lehtola, F. März, M. Müller,
   F. Musil, H. Neugebauer, J. Pisarek, C. Plett, P. Pracht, F. Pultar,
   J. Seibert, P. Shushkov, S. Spicher, M. Stahn, M. Steiner, T. Strunk,
   J. Stückrath, T. Rose, and J. Unsleber
   
 * started run on 2025/07/19 at 14:39:23.456     
   ID    Z sym.   atoms
    1    6 C      1-7, 9-20, 22-26, 28-36, 38-51, 53, 54
    2    8 O      8, 37
    3    7 N      21, 27, 52
    4    1 H      55-89

           -------------------------------------------------
          |                Calculation Setup                |
           -------------------------------------------------

          program call               : xtb data2507/gas/VBN0/VBN0_gas_S0_crest.xyz --gfn 2 --ohess vtight --parallel 40 --molden --ceasefiles --namespace data2507/gas/VBN0/VBN0_gas_S0_finalOpt
          calculation namespace      : data2507/gas/VBN0/VBN0_gas_S0_finalOpt
          coordinate file            : data2507/gas/VBN0/VBN0_gas_S0_crest.xyz
          omp threads                :                    40


           -------------------------------------------------
          |                 G F N 2 - x T B                 |
           -------------------------------------------------

        Reference                      10.1021/acs.jctc.8b01176
      * Hamiltonian:
        H0-scaling (s, p, d)           1.850000    2.230000    2.230000
        zeta-weighting                 0.500000
      * Dispersion:
        s8                             2.700000
        a1                             0.520000
        a2                             5.000000
        s9                             5.000000
      * Repulsion:
        kExp                           1.500000    1.000000
        rExp                           1.000000
      * Coulomb:
        alpha                          2.000000
        third order                    shell-resolved
        anisotropic                    true
        a3                             3.000000
        a5                             4.000000
        cn-shift                       1.200000
        cn-exp                         4.000000
        max-rad                        5.000000


          ...................................................
          :                      SETUP                      :
          :.................................................:
          :  # basis functions                 251          :
          :  # atomic orbitals                 251          :
          :  # shells                          143          :
          :  # electrons                       258          :
          :  max. iterations                   250          :
          :  Hamiltonian                  GFN2-xTB          :
          :  restarted?                      false          :
          :  GBSA solvation                  false          :
          :  PC potential                    false          :
          :  electronic temp.          300.0000000     K    :
          :  accuracy                    1.0000000          :
          :  -> integral cutoff          0.2500000E+02      :
          :  -> integral neglect         0.1000000E-07      :
          :  -> SCF convergence          0.1000000E-05 Eh   :
          :  -> wf. convergence          0.1000000E-03 e    :
          :  Broyden damping             0.4000000          :
          :  net charge                          0          :
          :  unpaired electrons                  0          :
          ...................................................

 iter      E             dE          RMSdq      gap      omega  full diag
   1   -142.0406797 -0.142041E+03  0.431E+00    2.50       0.0  T
   2   -142.1591240 -0.118444E+00  0.265E+00    2.46       1.0  T
   3   -142.0868260  0.722980E-01  0.136E+00    2.09       1.0  T
   4   -142.1796511 -0.928251E-01  0.474E-01    2.12       1.0  T
   5   -142.1940669 -0.144158E-01  0.160E-01    2.06       1.0  T
   6   -142.1958052 -0.173832E-02  0.665E-02    2.11       1.0  T
   7   -142.1960349 -0.229726E-03  0.255E-02    2.11       1.0  T
   8   -142.1960435 -0.864315E-05  0.134E-02    2.12       1.0  T
   9   -142.1960519 -0.835938E-05  0.412E-03    2.12       2.6  T
  10   -142.1960524 -0.448164E-06  0.209E-03    2.12       5.1  T
  11   -142.1960526 -0.233885E-06  0.663E-04    2.12      16.0  T
  12   -142.1960526 -0.125735E-07  0.356E-04    2.12      29.8  T

   *** convergence criteria satisfied after 12 iterations ***

         #    Occupation            Energy/Eh            Energy/eV
      -------------------------------------------------------------
         1        2.0000           -0.7128966             -19.3989
       ...           ...                  ...                  ...
       123        2.0000           -0.3939139             -10.7189
       124        2.0000           -0.3853840             -10.4868
       125        2.0000           -0.3790058             -10.3133
       126        2.0000           -0.3787496             -10.3063
       127        2.0000           -0.3714516             -10.1077
       128        2.0000           -0.3609098              -9.8209
       129        2.0000           -0.3570497              -9.7158 (HOMO)
       130                         -0.2791966              -7.5973 (LUMO)
       131                         -0.2557672              -6.9598
       132                         -0.2547371              -6.9317
       133                         -0.2471630              -6.7256
       134                         -0.2443282              -6.6485
       ...                                ...                  ...
       251                          1.1666321              31.7457
      -------------------------------------------------------------
                  HL-Gap            0.0778531 Eh            2.1185 eV
             Fermi-level           -0.3181232 Eh           -8.6566 eV

 SCC (total)                   0 d,  0 h,  0 min,  0.133 sec
 SCC setup                      ...        0 min,  0.001 sec (  0.439%)
 Dispersion                     ...        0 min,  0.004 sec (  3.188%)
 classical contributions        ...        0 min,  0.000 sec (  0.116%)
 integral evaluation            ...        0 min,  0.009 sec (  6.527%)
 iterations                     ...        0 min,  0.108 sec ( 80.778%)
 molecular gradient             ...        0 min,  0.011 sec (  8.546%)
 printout                       ...        0 min,  0.000 sec (  0.356%)

         :::::::::::::::::::::::::::::::::::::::::::::::::::::
         ::                     SUMMARY                     ::
         :::::::::::::::::::::::::::::::::::::::::::::::::::::
         :: total energy            -139.658890424335 Eh    ::
         :: gradient norm              0.000861021504 Eh/a0 ::
         :: HOMO-LUMO gap              2.118489486426 eV    ::
         ::.................................................::
         :: SCC energy              -142.192561511041 Eh    ::
         :: -> isotropic ES            0.046695572501 Eh    ::
         :: -> anisotropic ES          0.016070489164 Eh    ::
         :: -> anisotropic XC          0.082736765525 Eh    ::
         :: -> dispersion             -0.131751767490 Eh    ::
         :: repulsion energy           2.533671086706 Eh    ::
         :: add. restraining           0.000000000000 Eh    ::
         :: total charge              -0.000000000000 e     ::
         :::::::::::::::::::::::::::::::::::::::::::::::::::::

      ----------------------------------------------------------- 
     |                   =====================                   |
     |                        A N C O P T                        |
     |                   =====================                   |
     |               Approximate Normal Coordinate               |
     |                Rational Function Optimizer                |
      ----------------------------------------------------------- 

Optimization log is written to '/dev/null'
      ----------------------------------------------------------- 
     |                   =====================                   |
     |                        A N C O P T                        |
     |                   =====================                   |
     |               Approximate Normal Coordinate               |
     |                Rational Function Optimizer                |
      ----------------------------------------------------------- 

          ...................................................
          :                      SETUP                      :
          :.................................................:
          :   optimization level         verytight          :
          :   max. optcycles                  1780          :
          :   ANC micro-cycles                  20          :
          :   degrees of freedom               261          :
          :.................................................:
          :   RF solver                   davidson          :
          :   write xtbopt.log                true          :
          :   linear?                        false          :
          :   energy convergence         0.1000000E-06 Eh   :
          :   grad. convergence          0.2000000E-03 Eh/α :
          :   maxmium RF displ.          1.0000000          :
          :   Hlow (freq-cutoff)         0.1000000E-01      :
          :   Hmax (freq-cutoff)         5.0000000          :
          :   S6 in model hess.         20.0000000          :
          ...................................................

generating ANC from exact Hessian ...
Using Lindh-Hessian (1995)
 Shifting diagonal of input Hessian by   9.972003779610885E-003
 Lowest  eigenvalues of input Hessian
    0.000000    0.000000    0.000000    0.000000    0.000000    0.000000
    0.010000    0.010041    0.010110    0.010166    0.010235    0.010538
    0.010822    0.011012    0.011076    0.011259    0.011374    0.011742
 Highest eigenvalues
    2.156146    2.186881    2.194759    2.210364    2.233263    2.628014
 

........................................................................
.............................. CYCLE    1 ..............................
........................................................................

 iter      E             dE          RMSdq      gap      omega  full diag
   1   -142.1960526 -0.142196E+03  0.107E-04    2.12       0.0  T
   2   -142.1960526 -0.135429E-09  0.679E-05    2.12     156.1  T
   3   -142.1960526 -0.177636E-10  0.468E-05    2.12     226.5  T
     SCC iter.                  ...        0 min,  0.028 sec
     gradient                   ...        0 min,  0.012 sec
 * total energy  :  -139.6588904 Eh     change       -0.3842615E-08 Eh
   gradient norm :     0.0008598 Eh/α   predicted     0.0000000E+00 (-100.00%)
   displ. norm   :     0.0165550 α      lambda       -0.7743707E-06
   maximum displ.:     0.0073194 α      in ANC's #60, #2, #64, ...

........................................................................
.............................. CYCLE    2 ..............................
........................................................................

 iter      E             dE          RMSdq      gap      omega  full diag
   1   -142.1957695 -0.142196E+03  0.692E-03    2.12       0.0  T
   2   -142.1957696 -0.172612E-07  0.415E-03    2.12       2.6  T
   3   -142.1957695  0.788094E-08  0.423E-04    2.12      25.0  T
   4   -142.1957696 -0.156362E-07  0.159E-04    2.12      66.5  T
     SCC iter.                  ...        0 min,  0.033 sec
     gradient                   ...        0 min,  0.012 sec
 * total energy  :  -139.6588901 Eh     change        0.3763673E-06 Eh
   gradient norm :     0.0007959 Eh/α   predicted    -0.2482523E-05 (-759.60%)
   displ. norm   :     0.0099568 α      lambda       -0.3760814E-05
   maximum displ.:     0.0045667 α      in ANC's #60, #2, #64, ...

........................................................................
.............................. CYCLE    3 ..............................
........................................................................

 iter      E             dE          RMSdq      gap      omega  full diag
   1   -142.1957841 -0.142196E+03  0.427E-03    2.12       0.0  T
   2   -142.1957841 -0.444206E-08  0.257E-03    2.12       4.1  T
   3   -142.1957841  0.102977E-07  0.390E-04    2.12      27.2  T
   4   -142.1957841 -0.131814E-07  0.818E-05    2.12     129.6  T
     SCC iter.                  ...        0 min,  0.033 sec
     gradient                   ...        0 min,  0.011 sec
 * total energy  :  -139.6588932 Eh     change       -0.3130491E-05 Eh
   gradient norm :     0.0002527 Eh/α   predicted    -0.1893582E-05 ( -39.51%)
   displ. norm   :     0.0126126 α      lambda       -0.6682469E-06
   maximum displ.:     0.0078361 α      in ANC's #2, #4, #5, ...

........................................................................
.............................. CYCLE    4 ..............................
........................................................................

 iter      E             dE          RMSdq      gap      omega  full diag
   1   -142.1958649 -0.142196E+03  0.215E-03    2.12       0.0  T
   2   -142.1958649 -0.992316E-09  0.127E-03    2.12       8.3  T
   3   -142.1958649  0.239407E-08  0.174E-04    2.12      60.9  T
   4   -142.1958649 -0.277214E-08  0.393E-05    2.12     270.0  T
     SCC iter.                  ...        0 min,  0.033 sec
     gradient                   ...        0 min,  0.011 sec
 * total energy  :  -139.6588941 Eh     change       -0.9204163E-06 Eh
   gradient norm :     0.0001295 Eh/α   predicted    -0.3728422E-06 ( -59.49%)
   displ. norm   :     0.0383150 α      lambda       -0.1621741E-05
   maximum displ.:     0.0218580 α      in ANC's #2, #4, #5, ...

........................................................................
.............................. CYCLE    5 ..............................
........................................................................

 iter      E             dE          RMSdq      gap      omega  full diag
   1   -142.1959181 -0.142196E+03  0.611E-03    2.12       0.0  T
   2   -142.1959181 -0.720576E-08  0.358E-03    2.12       3.0  T
   3   -142.1959181  0.841564E-08  0.355E-04    2.12      29.9  T
   4   -142.1959181 -0.113042E-07  0.853E-05    2.12     124.2  T
     SCC iter.                  ...        0 min,  0.032 sec
     gradient                   ...        0 min,  0.011 sec
 * total energy  :  -139.6588963 Eh     change       -0.2178591E-05 Eh
   gradient norm :     0.0003252 Eh/α   predicted    -0.8376150E-06 ( -61.55%)
   displ. norm   :     0.0821550 α      lambda       -0.3104151E-05
   maximum displ.:     0.0461780 α      in ANC's #2, #4, #5, ...

........................................................................
.............................. CYCLE    6 ..............................
........................................................................

 iter      E             dE          RMSdq      gap      omega  full diag
   1   -142.1959080 -0.142196E+03  0.126E-02    2.12       0.0  T
   2   -142.1959080 -0.274033E-07  0.741E-03    2.12       1.4  T
   3   -142.1959080  0.623227E-07  0.814E-04    2.12      13.0  T
   4   -142.1959080 -0.751192E-07  0.152E-04    2.12      69.9  T
     SCC iter.                  ...        0 min,  0.033 sec
     gradient                   ...        0 min,  0.012 sec
 * total energy  :  -139.6588999 Eh     change       -0.3625288E-05 Eh
   gradient norm :     0.0004034 Eh/α   predicted    -0.1557478E-05 ( -57.04%)
   displ. norm   :     0.0927527 α      lambda       -0.2733049E-05
   maximum displ.:     0.0531222 α      in ANC's #2, #4, #5, ...

........................................................................
.............................. CYCLE    7 ..............................
........................................................................

 iter      E             dE          RMSdq      gap      omega  full diag
   1   -142.1958304 -0.142196E+03  0.148E-02    2.12       0.0  T
   2   -142.1958305 -0.643843E-07  0.862E-03    2.12       1.2  T
   3   -142.1958304  0.445056E-07  0.884E-04    2.12      12.0  T
   4   -142.1958305 -0.697071E-07  0.275E-04    2.12      38.6  T
     SCC iter.                  ...        0 min,  0.033 sec
     gradient                   ...        0 min,  0.012 sec
 * total energy  :  -139.6589023 Eh     change       -0.2427044E-05 Eh
   gradient norm :     0.0003560 Eh/α   predicted    -0.1372411E-05 ( -43.45%)
   displ. norm   :     0.0505013 α      lambda       -0.1439030E-05
   maximum displ.:     0.0308148 α      in ANC's #2, #4, #5, ...

........................................................................
.............................. CYCLE    8 ..............................
........................................................................

 iter      E             dE          RMSdq      gap      omega  full diag
   1   -142.1958337 -0.142196E+03  0.709E-03    2.12       0.0  T
   2   -142.1958337 -0.138954E-07  0.416E-03    2.12       2.6  T
   3   -142.1958337  0.642155E-07  0.744E-04    2.12      14.3  T
   4   -142.1958337 -0.735812E-07  0.128E-04    2.12      83.0  T
     SCC iter.                  ...        0 min,  0.033 sec
     gradient                   ...        0 min,  0.011 sec
 * total energy  :  -139.6589037 Eh     change       -0.1358898E-05 Eh
   gradient norm :     0.0001791 Eh/α   predicted    -0.7207184E-06 ( -46.96%)
   displ. norm   :     0.0238751 α      lambda       -0.6917213E-06
   maximum displ.:     0.0159796 α      in ANC's #2, #4, #5, ...

........................................................................
.............................. CYCLE    9 ..............................
........................................................................

 iter      E             dE          RMSdq      gap      omega  full diag
   1   -142.1958539 -0.142196E+03  0.272E-03    2.12       0.0  T
   2   -142.1958539 -0.201564E-08  0.160E-03    2.12       6.6  T
   3   -142.1958538  0.777703E-08  0.271E-04    2.12      39.1  T
   4   -142.1958539 -0.886550E-08  0.470E-05    2.12     225.5  T
     SCC iter.                  ...        0 min,  0.033 sec
     gradient                   ...        0 min,  0.012 sec
 * total energy  :  -139.6589046 Eh     change       -0.9398101E-06 Eh
   gradient norm :     0.0001495 Eh/α   predicted    -0.3471957E-06 ( -63.06%)
   displ. norm   :     0.0449509 α      lambda       -0.1662148E-05
   maximum displ.:     0.0280491 α      in ANC's #2, #4, #5, ...

........................................................................
.............................. CYCLE   10 ..............................
........................................................................

 iter      E             dE          RMSdq      gap      omega  full diag
   1   -142.1958354 -0.142196E+03  0.626E-03    2.12       0.0  T
   2   -142.1958354 -0.103254E-07  0.367E-03    2.12       2.9  T
   3   -142.1958354  0.291139E-07  0.630E-04    2.12      16.8  T
   4   -142.1958354 -0.347776E-07  0.978E-05    2.12     108.4  T
     SCC iter.                  ...        0 min,  0.033 sec
     gradient                   ...        0 min,  0.011 sec
 * total energy  :  -139.6589068 Eh     change       -0.2136884E-05 Eh
   gradient norm :     0.0002415 Eh/α   predicted    -0.8356121E-06 ( -60.90%)
   displ. norm   :     0.0726856 α      lambda       -0.2220645E-05
   maximum displ.:     0.0449222 α      in ANC's #2, #4, #5, ...

........................................................................
.............................. CYCLE   11 ..............................
........................................................................

 iter      E             dE          RMSdq      gap      omega  full diag
   1   -142.1957652 -0.142196E+03  0.109E-02    2.12       0.0  T
   2   -142.1957652 -0.300096E-07  0.642E-03    2.12       1.7  T
   3   -142.1957651  0.122788E-06  0.119E-03    2.12       8.9  T
   4   -142.1957652 -0.142480E-06  0.179E-04    2.12      59.3  T
   5   -142.1957652 -0.863480E-09  0.101E-04    2.12     104.4  T
     SCC iter.                  ...        0 min,  0.041 sec
     gradient                   ...        0 min,  0.012 sec
 * total energy  :  -139.6589090 Eh     change       -0.2202124E-05 Eh
   gradient norm :     0.0003641 Eh/α   predicted    -0.1115135E-05 ( -49.36%)
   displ. norm   :     0.0577456 α      lambda       -0.1413524E-05
   maximum displ.:     0.0370298 α      in ANC's #2, #4, #5, ...

........................................................................
.............................. CYCLE   12 ..............................
........................................................................

 iter      E             dE          RMSdq      gap      omega  full diag
   1   -142.1957487 -0.142196E+03  0.897E-03    2.12       0.0  T
   2   -142.1957487 -0.252814E-07  0.524E-03    2.12       2.0  T
   3   -142.1957486  0.636558E-07  0.887E-04    2.12      12.0  T
   4   -142.1957487 -0.777602E-07  0.149E-04    2.12      71.2  T
     SCC iter.                  ...        0 min,  0.033 sec
     gradient                   ...        0 min,  0.012 sec
 * total energy  :  -139.6589103 Eh     change       -0.1303464E-05 Eh
   gradient norm :     0.0003232 Eh/α   predicted    -0.7101582E-06 ( -45.52%)
   displ. norm   :     0.0274376 α      lambda       -0.6700708E-06
   maximum displ.:     0.0192310 α      in ANC's #2, #4, #5, ...

........................................................................
.............................. CYCLE   13 ..............................
........................................................................

 iter      E             dE          RMSdq      gap      omega  full diag
   1   -142.1957911 -0.142196E+03  0.403E-03    2.12       0.0  T
   2   -142.1957911 -0.389963E-08  0.236E-03    2.12       4.5  T
   3   -142.1957911  0.116585E-07  0.386E-04    2.12      27.5  T
   4   -142.1957911 -0.140286E-07  0.704E-05    2.12     150.6  T
     SCC iter.                  ...        0 min,  0.033 sec
     gradient                   ...        0 min,  0.012 sec
 * total energy  :  -139.6589112 Eh     change       -0.8815633E-06 Eh
   gradient norm :     0.0001947 Eh/α   predicted    -0.3394044E-06 ( -61.50%)
   displ. norm   :     0.0306156 α      lambda       -0.9437317E-06
   maximum displ.:     0.0217451 α      in ANC's #2, #4, #1, ...

........................................................................
.............................. CYCLE   14 ..............................
........................................................................

 iter      E             dE          RMSdq      gap      omega  full diag
   1   -142.1958432 -0.142196E+03  0.470E-03    2.12       0.0  T
   2   -142.1958432 -0.500702E-08  0.275E-03    2.12       3.9  T
   3   -142.1958432  0.106661E-07  0.386E-04    2.12      27.5  T
   4   -142.1958432 -0.133352E-07  0.872E-05    2.12     121.6  T
     SCC iter.                  ...        0 min,  0.032 sec
     gradient                   ...        0 min,  0.012 sec
 * total energy  :  -139.6589123 Eh     change       -0.1142746E-05 Eh
   gradient norm :     0.0001233 Eh/α   predicted    -0.4758854E-06 ( -58.36%)
   displ. norm   :     0.0334770 α      lambda       -0.7448165E-06
   maximum displ.:     0.0237888 α      in ANC's #2, #4, #1, ...

........................................................................
.............................. CYCLE   15 ..............................
........................................................................

 iter      E             dE          RMSdq      gap      omega  full diag
   1   -142.1958053 -0.142196E+03  0.501E-03    2.12       0.0  T
   2   -142.1958053 -0.479153E-08  0.294E-03    2.12       3.6  T
   3   -142.1958053  0.365725E-08  0.266E-04    2.12      39.8  T
   4   -142.1958053 -0.570381E-08  0.825E-05    2.12     128.6  T
     SCC iter.                  ...        0 min,  0.033 sec
     gradient                   ...        0 min,  0.012 sec
 * total energy  :  -139.6589132 Eh     change       -0.9020231E-06 Eh
   gradient norm :     0.0002447 Eh/α   predicted    -0.3772366E-06 ( -58.18%)
   displ. norm   :     0.0291458 α      lambda       -0.5728953E-06
   maximum displ.:     0.0208185 α      in ANC's #2, #4, #13, ...

........................................................................
.............................. CYCLE   16 ..............................
........................................................................

 iter      E             dE          RMSdq      gap      omega  full diag
   1   -142.1958221 -0.142196E+03  0.414E-03    2.12       0.0  T
   2   -142.1958221 -0.295080E-08  0.243E-03    2.12       4.4  T
   3   -142.1958221  0.307963E-08  0.233E-04    2.12      45.6  T
   4   -142.1958221 -0.440255E-08  0.685E-05    2.12     154.7  T
     SCC iter.                  ...        0 min,  0.036 sec
     gradient                   ...        0 min,  0.012 sec
 * total energy  :  -139.6589140 Eh     change       -0.7785621E-06 Eh
   gradient norm :     0.0002420 Eh/α   predicted    -0.2899370E-06 ( -62.76%)
   displ. norm   :     0.0301443 α      lambda       -0.6602488E-06
   maximum displ.:     0.0213462 α      in ANC's #2, #4, #13, ...

........................................................................
.............................. CYCLE   17 ..............................
........................................................................

 iter      E             dE          RMSdq      gap      omega  full diag
   1   -142.1957946 -0.142196E+03  0.412E-03    2.12       0.0  T
   2   -142.1957946 -0.312548E-08  0.242E-03    2.12       4.4  T
   3   -142.1957946  0.109250E-08  0.166E-04    2.12      63.9  T
   4   -142.1957946 -0.232183E-08  0.596E-05    2.12     177.8  T
     SCC iter.                  ...        0 min,  0.033 sec
     gradient                   ...        0 min,  0.012 sec
 * total energy  :  -139.6589149 Eh     change       -0.8900349E-06 Eh
   gradient norm :     0.0001685 Eh/α   predicted    -0.3323041E-06 ( -62.66%)
   displ. norm   :     0.0384113 α      lambda       -0.7955693E-06
   maximum displ.:     0.0270775 α      in ANC's #2, #4, #1, ...

........................................................................
.............................. CYCLE   18 ..............................
........................................................................

 iter      E             dE          RMSdq      gap      omega  full diag
   1   -142.1957875 -0.142196E+03  0.486E-03    2.12       0.0  T
   2   -142.1957875 -0.455853E-08  0.285E-03    2.12       3.7  T
   3   -142.1957875  0.341743E-08  0.253E-04    2.12      41.8  T
   4   -142.1957875 -0.539023E-08  0.734E-05    2.12     144.4  T
     SCC iter.                  ...        0 min,  0.033 sec
     gradient                   ...        0 min,  0.012 sec
 * total energy  :  -139.6589159 Eh     change       -0.1018056E-05 Eh
   gradient norm :     0.0000821 Eh/α   predicted    -0.4000717E-06 ( -60.70%)
   displ. norm   :     0.0429247 α      lambda       -0.7206897E-06
   maximum displ.:     0.0303376 α      in ANC's #2, #4, #1, ...

........................................................................
.............................. CYCLE   19 ..............................
........................................................................

 iter      E             dE          RMSdq      gap      omega  full diag
   1   -142.1957437 -0.142196E+03  0.503E-03    2.12       0.0  T
   2   -142.1957437 -0.506705E-08  0.295E-03    2.12       3.6  T
   3   -142.1957437  0.818872E-08  0.345E-04    2.12      30.8  T
   4   -142.1957437 -0.105730E-07  0.865E-05    2.12     122.5  T
     SCC iter.                  ...        0 min,  0.035 sec
     gradient                   ...        0 min,  0.013 sec
 * total energy  :  -139.6589168 Eh     change       -0.9260451E-06 Eh
   gradient norm :     0.0001359 Eh/α   predicted    -0.3633015E-06 ( -60.77%)
   displ. norm   :     0.0392008 α      lambda       -0.5893608E-06
   maximum displ.:     0.0277713 α      in ANC's #2, #4, #1, ...

........................................................................
.............................. CYCLE   20 ..............................
........................................................................

 iter      E             dE          RMSdq      gap      omega  full diag
   1   -142.1957511 -0.142196E+03  0.416E-03    2.12       0.0  T
   2   -142.1957511 -0.322405E-08  0.244E-03    2.12       4.3  T
   3   -142.1957511  0.683607E-08  0.292E-04    2.12      36.3  T
   4   -142.1957511 -0.854399E-08  0.731E-05    2.12     145.0  T
     SCC iter.                  ...        0 min,  0.039 sec
     gradient                   ...        0 min,  0.013 sec
 * total energy  :  -139.6589176 Eh     change       -0.8122657E-06 Eh
   gradient norm :     0.0001941 Eh/α   predicted    -0.2982829E-06 ( -63.28%)
   displ. norm   :     0.0377939 α      lambda       -0.6161054E-06
   maximum displ.:     0.0265608 α      in ANC's #2, #4, #1, ...
 * RMSD in coord.:     0.0733259 α      energy gain  -0.2720178E-04 Eh

generating ANC from exact Hessian ...
Using Lindh-Hessian (1995)
 Shifting diagonal of input Hessian by   9.971849967285779E-003
 Lowest  eigenvalues of input Hessian
    0.000000    0.000000    0.000000    0.000000    0.000000    0.000000
    0.010000    0.010041    0.010109    0.010167    0.010237    0.010537
    0.010820    0.011014    0.011066    0.011262    0.011374    0.011743
 Highest eigenvalues
    2.156155    2.187378    2.194500    2.210301    2.233343    2.627583
 

........................................................................
.............................. CYCLE   21 ..............................
........................................................................

 iter      E             dE          RMSdq      gap      omega  full diag
   1   -142.1957323 -0.142196E+03  0.381E-03    2.12       0.0  T
   2   -142.1957323 -0.277214E-08  0.223E-03    2.12       4.8  T
   3   -142.1957323  0.987131E-08  0.337E-04    2.12      31.4  T
   4   -142.1957323 -0.116542E-07  0.671E-05    2.12     157.9  T
     SCC iter.                  ...        0 min,  0.038 sec
     gradient                   ...        0 min,  0.013 sec
 * total energy  :  -139.6589185 Eh     change       -0.8714671E-06 Eh
   gradient norm :     0.0001737 Eh/α   predicted     0.0000000E+00 (-100.00%)
   displ. norm   :     0.0058482 α      lambda       -0.2351328E-07
   maximum displ.:     0.0037643 α      in ANC's #2, #12, #13, ...

........................................................................
.............................. CYCLE   22 ..............................
........................................................................

 iter      E             dE          RMSdq      gap      omega  full diag
   1   -142.1957566 -0.142196E+03  0.126E-03    2.12       0.0  T
   2   -142.1957566 -0.677602E-09  0.736E-04    2.12      14.4  T
   3   -142.1957566  0.243497E-08  0.166E-04    2.12      63.9  T
     SCC iter.                  ...        0 min,  0.029 sec
     gradient                   ...        0 min,  0.013 sec
 * total energy  :  -139.6589188 Eh     change       -0.2801939E-06 Eh
   gradient norm :     0.0001247 Eh/α   predicted    -0.1262084E-06 ( -54.96%)
   displ. norm   :     0.0176350 α      lambda       -0.3722486E-06
   maximum displ.:     0.0106586 α      in ANC's #2, #13, #12, ...

........................................................................
.............................. CYCLE   23 ..............................
........................................................................

 iter      E             dE          RMSdq      gap      omega  full diag
   1   -142.1957964 -0.142196E+03  0.340E-03    2.12       0.0  T
   2   -142.1957964 -0.418936E-08  0.199E-03    2.12       5.3  T
   3   -142.1957964  0.808492E-08  0.308E-04    2.12      34.4  T
   4   -142.1957964 -0.992546E-08  0.586E-05    2.12     181.0  T
     SCC iter.                  ...        0 min,  0.038 sec
     gradient                   ...        0 min,  0.013 sec
 * total energy  :  -139.6589193 Eh     change       -0.5358058E-06 Eh
   gradient norm :     0.0001793 Eh/α   predicted    -0.2692362E-06 ( -49.75%)
   displ. norm   :     0.0165837 α      lambda        0.8273783E-07
   maximum displ.:     0.0099835 α      in ANC's #2, #13, #12, ...

........................................................................
.............................. CYCLE   24 ..............................
........................................................................

 iter      E             dE          RMSdq      gap      omega  full diag
   1   -142.1958320 -0.142196E+03  0.321E-03    2.12       0.0  T
   2   -142.1958320 -0.354947E-08  0.188E-03    2.12       5.6  T
   3   -142.1958320  0.959065E-08  0.333E-04    2.12      31.8  T
   4   -142.1958320 -0.113493E-07  0.616E-05    2.12     172.0  T
     SCC iter.                  ...        0 min,  0.039 sec
     gradient                   ...        0 min,  0.013 sec
 * total energy  :  -139.6589193 Eh     change        0.1712039E-07 Eh
   gradient norm :     0.0003988 Eh/α   predicted     0.4086157E-07 ( 138.67%)
   displ. norm   :     0.0067051 α      lambda       -0.4704122E-06
   maximum displ.:     0.0042625 α      in ANC's #2, #5, #13, ...

........................................................................
.............................. CYCLE   25 ..............................
........................................................................

 iter      E             dE          RMSdq      gap      omega  full diag
   1   -142.1957918 -0.142196E+03  0.195E-03    2.12       0.0  T
   2   -142.1957918 -0.202326E-08  0.115E-03    2.12       9.2  T
   3   -142.1957918  0.480190E-08  0.225E-04    2.12      47.1  T
   4   -142.1957918 -0.584586E-08  0.519E-05    2.12     204.2  T
     SCC iter.                  ...        0 min,  0.038 sec
     gradient                   ...        0 min,  0.013 sec
 * total energy  :  -139.6589197 Eh     change       -0.4265853E-06 Eh
   gradient norm :     0.0002020 Eh/α   predicted    -0.2359711E-06 ( -44.68%)
   displ. norm   :     0.0084126 α      lambda       -0.2945987E-06
   maximum displ.:     0.0056920 α      in ANC's #2, #5, #3, ...

........................................................................
.............................. CYCLE   26 ..............................
........................................................................

 iter      E             dE          RMSdq      gap      omega  full diag
   1   -142.1957688 -0.142196E+03  0.157E-03    2.12       0.0  T
   2   -142.1957688 -0.794472E-09  0.919E-04    2.12      11.5  T
   3   -142.1957688  0.253570E-08  0.180E-04    2.12      58.8  T
     SCC iter.                  ...        0 min,  0.030 sec
     gradient                   ...        0 min,  0.013 sec
 * total energy  :  -139.6589201 Eh     change       -0.3462995E-06 Eh
   gradient norm :     0.0001573 Eh/α   predicted    -0.1498070E-06 ( -56.74%)
   displ. norm   :     0.0162462 α      lambda       -0.4137577E-06
   maximum displ.:     0.0111348 α      in ANC's #2, #5, #3, ...

........................................................................
.............................. CYCLE   27 ..............................
........................................................................

 iter      E             dE          RMSdq      gap      omega  full diag
   1   -142.1957714 -0.142196E+03  0.302E-03    2.12       0.0  T
   2   -142.1957714 -0.319093E-08  0.176E-03    2.12       6.0  T
   3   -142.1957714  0.669030E-08  0.291E-04    2.12      36.5  T
   4   -142.1957714 -0.846489E-08  0.583E-05    2.12     181.7  T
     SCC iter.                  ...        0 min,  0.038 sec
     gradient                   ...        0 min,  0.013 sec
 * total energy  :  -139.6589205 Eh     change       -0.4011352E-06 Eh
   gradient norm :     0.0001582 Eh/α   predicted    -0.2080762E-06 ( -48.13%)
   displ. norm   :     0.0166046 α      lambda       -0.2916731E-06
   maximum displ.:     0.0117997 α      in ANC's #2, #5, #3, ...

........................................................................
.............................. CYCLE   28 ..............................
........................................................................

 iter      E             dE          RMSdq      gap      omega  full diag
   1   -142.1957825 -0.142196E+03  0.284E-03    2.12       0.0  T
   2   -142.1957825 -0.264927E-08  0.167E-03    2.12       6.4  T
   3   -142.1957824  0.128370E-07  0.364E-04    2.12      29.2  T
   4   -142.1957825 -0.147504E-07  0.593E-05    2.12     178.9  T
     SCC iter.                  ...        0 min,  0.039 sec
     gradient                   ...        0 min,  0.013 sec
 * total energy  :  -139.6589208 Eh     change       -0.3180922E-06 Eh
   gradient norm :     0.0001476 Eh/α   predicted    -0.1480290E-06 ( -53.46%)
   displ. norm   :     0.0165569 α      lambda        0.5677133E-07
   maximum displ.:     0.0117649 α      in ANC's #2, #5, #3, ...

........................................................................
.............................. CYCLE   29 ..............................
........................................................................

 iter      E             dE          RMSdq      gap      omega  full diag
   1   -142.1957910 -0.142196E+03  0.283E-03    2.12       0.0  T
   2   -142.1957910 -0.242704E-08  0.166E-03    2.12       6.4  T
   3   -142.1957910  0.122853E-07  0.357E-04    2.12      29.7  T
   4   -142.1957910 -0.140629E-07  0.578E-05    2.12     183.4  T
     SCC iter.                  ...        0 min,  0.038 sec
     gradient                   ...        0 min,  0.013 sec
 * total energy  :  -139.6589209 Eh     change       -0.6524067E-07 Eh
   gradient norm :     0.0002743 Eh/α   predicted     0.2838822E-07 (-143.51%)
   displ. norm   :     0.0091236 α      lambda       -0.2892389E-06
   maximum displ.:     0.0064286 α      in ANC's #2, #5, #3, ...

........................................................................
.............................. CYCLE   30 ..............................
........................................................................

 iter      E             dE          RMSdq      gap      omega  full diag
   1   -142.1957926 -0.142196E+03  0.164E-03    2.12       0.0  T
   2   -142.1957926 -0.122603E-08  0.949E-04    2.12      11.2  T
   3   -142.1957926  0.524852E-08  0.232E-04    2.12      45.6  T
     SCC iter.                  ...        0 min,  0.029 sec
     gradient                   ...        0 min,  0.013 sec
 * total energy  :  -139.6589212 Eh     change       -0.3642801E-06 Eh
   gradient norm :     0.0001771 Eh/α   predicted    -0.1453514E-06 ( -60.10%)
   displ. norm   :     0.0156343 α      lambda       -0.4575643E-06
   maximum displ.:     0.0111300 α      in ANC's #2, #5, #3, ...

........................................................................
.............................. CYCLE   31 ..............................
........................................................................

 iter      E             dE          RMSdq      gap      omega  full diag
   1   -142.1958001 -0.142196E+03  0.255E-03    2.12       0.0  T
   2   -142.1958001 -0.286434E-08  0.148E-03    2.12       7.1  T
   3   -142.1958001  0.982544E-08  0.303E-04    2.12      35.0  T
   4   -142.1958001 -0.117210E-07  0.495E-05    2.12     214.2  T
     SCC iter.                  ...        0 min,  0.039 sec
     gradient                   ...        0 min,  0.013 sec
 * total energy  :  -139.6589217 Eh     change       -0.4887117E-06 Eh
   gradient norm :     0.0000770 Eh/α   predicted    -0.2306711E-06 ( -52.80%)
   displ. norm   :     0.0175658 α      lambda       -0.2803270E-06
   maximum displ.:     0.0126551 α      in ANC's #2, #5, #3, ...

........................................................................
.............................. CYCLE   32 ..............................
........................................................................

 iter      E             dE          RMSdq      gap      omega  full diag
   1   -142.1957870 -0.142196E+03  0.248E-03    2.12       0.0  T
   2   -142.1957870 -0.860467E-09  0.146E-03    2.12       7.3  T
   3   -142.1957870  0.265538E-08  0.182E-04    2.12      58.2  T
   4   -142.1957870 -0.313062E-08  0.274E-05    2.12     387.4  T
     SCC iter.                  ...        0 min,  0.038 sec
     gradient                   ...        0 min,  0.013 sec
 * total energy  :  -139.6589221 Eh     change       -0.3555818E-06 Eh
   gradient norm :     0.0001307 Eh/α   predicted    -0.1419392E-06 ( -60.08%)
   displ. norm   :     0.0191956 α      lambda       -0.2964294E-06
   maximum displ.:     0.0136614 α      in ANC's #2, #5, #3, ...

........................................................................
.............................. CYCLE   33 ..............................
........................................................................

 iter      E             dE          RMSdq      gap      omega  full diag
   1   -142.1957956 -0.142196E+03  0.278E-03    2.12       0.0  T
   2   -142.1957956 -0.108730E-08  0.163E-03    2.12       6.5  T
   3   -142.1957956  0.205051E-08  0.168E-04    2.12      63.2  T
   4   -142.1957956 -0.258049E-08  0.304E-05    2.12     349.1  T
     SCC iter.                  ...        0 min,  0.043 sec
     gradient                   ...        0 min,  0.014 sec
 * total energy  :  -139.6589225 Eh     change       -0.3964157E-06 Eh
   gradient norm :     0.0001463 Eh/α   predicted    -0.1519148E-06 ( -61.68%)
   displ. norm   :     0.0223729 α      lambda       -0.3656232E-06
   maximum displ.:     0.0157478 α      in ANC's #2, #5, #3, ...

........................................................................
.............................. CYCLE   34 ..............................
........................................................................

 iter      E             dE          RMSdq      gap      omega  full diag
   1   -142.1958100 -0.142196E+03  0.348E-03    2.12       0.0  T
   2   -142.1958100 -0.307622E-08  0.203E-03    2.12       5.2  T
   3   -142.1958100  0.436017E-08  0.234E-04    2.12      45.3  T
   4   -142.1958100 -0.583086E-08  0.546E-05    2.12     194.1  T
     SCC iter.                  ...        0 min,  0.038 sec
     gradient                   ...        0 min,  0.013 sec
 * total energy  :  -139.6589229 Eh     change       -0.4766555E-06 Eh
   gradient norm :     0.0000957 Eh/α   predicted    -0.1876329E-06 ( -60.64%)
   displ. norm   :     0.0226422 α      lambda       -0.3176251E-06
   maximum displ.:     0.0163707 α      in ANC's #2, #5, #3, ...

........................................................................
.............................. CYCLE   35 ..............................
........................................................................

 iter      E             dE          RMSdq      gap      omega  full diag
   1   -142.1957954 -0.142196E+03  0.332E-03    2.12       0.0  T
   2   -142.1957954 -0.186486E-08  0.195E-03    2.12       5.4  T
   3   -142.1957954  0.496300E-08  0.264E-04    2.12      40.2  T
   4   -142.1957954 -0.588028E-08  0.517E-05    2.12     205.2  T
     SCC iter.                  ...        0 min,  0.038 sec
     gradient                   ...        0 min,  0.013 sec
 * total energy  :  -139.6589233 Eh     change       -0.4032264E-06 Eh
   gradient norm :     0.0000856 Eh/α   predicted    -0.1604858E-06 ( -60.20%)
   displ. norm   :     0.0176634 α      lambda       -0.2080708E-06
   maximum displ.:     0.0131972 α      in ANC's #2, #5, #3, ...

........................................................................
.............................. CYCLE   36 ..............................
........................................................................

 iter      E             dE          RMSdq      gap      omega  full diag
   1   -142.1958323 -0.142196E+03  0.247E-03    2.12       0.0  T
   2   -142.1958323 -0.894005E-09  0.145E-03    2.12       7.3  T
   3   -142.1958323  0.899945E-09  0.121E-04    2.12      87.7  T
   4   -142.1958323 -0.130734E-08  0.301E-05    2.12     351.8  T
     SCC iter.                  ...        0 min,  0.039 sec
     gradient                   ...        0 min,  0.013 sec
 * total energy  :  -139.6589236 Eh     change       -0.2892665E-06 Eh
   gradient norm :     0.0000796 Eh/α   predicted    -0.1053357E-06 ( -63.59%)
   displ. norm   :     0.0132308 α      lambda       -0.1628428E-06
   maximum displ.:     0.0100964 α      in ANC's #2, #5, #3, ...

........................................................................
.............................. CYCLE   37 ..............................
........................................................................

 iter      E             dE          RMSdq      gap      omega  full diag
   1   -142.1958247 -0.142196E+03  0.184E-03    2.12       0.0  T
   2   -142.1958247 -0.401457E-09  0.108E-03    2.12       9.8  T
   3   -142.1958247  0.120957E-08  0.125E-04    2.12      85.1  T
   4   -142.1958247 -0.145261E-08  0.210E-05    2.12     505.3  T
     SCC iter.                  ...        0 min,  0.038 sec
     gradient                   ...        0 min,  0.013 sec
 * total energy  :  -139.6589239 Eh     change       -0.2443419E-06 Eh
   gradient norm :     0.0000636 Eh/α   predicted    -0.8273799E-07 ( -66.14%)
   displ. norm   :     0.0132360 α      lambda       -0.1879389E-06
   maximum displ.:     0.0099517 α      in ANC's #2, #5, #3, ...

........................................................................
.............................. CYCLE   38 ..............................
........................................................................

 iter      E             dE          RMSdq      gap      omega  full diag
   1   -142.1958335 -0.142196E+03  0.201E-03    2.12       0.0  T
   2   -142.1958335 -0.485869E-09  0.118E-03    2.12       9.0  T
   3   -142.1958335  0.633719E-09  0.885E-05    2.12     119.7  T
   4   -142.1958335 -0.867402E-09  0.195E-05    2.12     544.7  T
     SCC iter.                  ...        0 min,  0.038 sec
     gradient                   ...        0 min,  0.013 sec
 * total energy  :  -139.6589241 Eh     change       -0.2742091E-06 Eh
   gradient norm :     0.0000643 Eh/α   predicted    -0.9486791E-07 ( -65.40%)
   displ. norm   :     0.0171142 α      lambda       -0.2397742E-06
   maximum displ.:     0.0128786 α      in ANC's #2, #3, #5, ...

........................................................................
.............................. CYCLE   39 ..............................
........................................................................

 iter      E             dE          RMSdq      gap      omega  full diag
   1   -142.1958155 -0.142196E+03  0.277E-03    2.12       0.0  T
   2   -142.1958155 -0.877662E-09  0.163E-03    2.12       6.5  T
   3   -142.1958155  0.182465E-08  0.138E-04    2.12      76.7  T
   4   -142.1958155 -0.230253E-08  0.285E-05    2.12     371.5  T
     SCC iter.                  ...        0 min,  0.039 sec
     gradient                   ...        0 min,  0.013 sec
 * total energy  :  -139.6589245 Eh     change       -0.3463455E-06 Eh
   gradient norm :     0.0000535 Eh/α   predicted    -0.1247594E-06 ( -63.98%)
   displ. norm   :     0.0178070 α      lambda       -0.2359607E-06
   maximum displ.:     0.0133844 α      in ANC's #2, #3, #1, ...

........................................................................
.............................. CYCLE   40 ..............................
........................................................................

 iter      E             dE          RMSdq      gap      omega  full diag
   1   -142.1958285 -0.142196E+03  0.302E-03    2.12       0.0  T
   2   -142.1958285 -0.103734E-08  0.177E-03    2.12       6.0  T
   3   -142.1958285  0.169049E-08  0.140E-04    2.12      75.5  T
   4   -142.1958285 -0.223881E-08  0.264E-05    2.12     401.8  T
     SCC iter.                  ...        0 min,  0.038 sec
     gradient                   ...        0 min,  0.013 sec
 * total energy  :  -139.6589248 Eh     change       -0.3279854E-06 Eh
   gradient norm :     0.0000377 Eh/α   predicted    -0.1189145E-06 ( -63.74%)
   displ. norm   :     0.0177681 α      lambda       -0.2111297E-06
   maximum displ.:     0.0134952 α      in ANC's #2, #3, #1, ...

........................................................................
.............................. CYCLE   41 ..............................
........................................................................

 iter      E             dE          RMSdq      gap      omega  full diag
   1   -142.1958153 -0.142196E+03  0.309E-03    2.12       0.0  T
   2   -142.1958153 -0.997034E-09  0.182E-03    2.12       5.8  T
   3   -142.1958153  0.163945E-08  0.133E-04    2.12      79.5  T
   4   -142.1958153 -0.218697E-08  0.274E-05    2.12     386.8  T
     SCC iter.                  ...        0 min,  0.038 sec
     gradient                   ...        0 min,  0.013 sec
 * total energy  :  -139.6589251 Eh     change       -0.3010150E-06 Eh
   gradient norm :     0.0000453 Eh/α   predicted    -0.1080962E-06 ( -64.09%)
   displ. norm   :     0.0147116 α      lambda       -0.1693769E-06
   maximum displ.:     0.0112688 α      in ANC's #2, #3, #1, ...

........................................................................
.............................. CYCLE   42 ..............................
........................................................................

 iter      E             dE          RMSdq      gap      omega  full diag
   1   -142.1958242 -0.142196E+03  0.264E-03    2.12       0.0  T
   2   -142.1958242 -0.690534E-09  0.155E-03    2.12       6.8  T
   3   -142.1958242  0.835996E-09  0.104E-04    2.12     101.6  T
   4   -142.1958242 -0.121511E-08  0.215E-05    2.12     493.1  T
     SCC iter.                  ...        0 min,  0.039 sec
     gradient                   ...        0 min,  0.013 sec
 * total energy  :  -139.6589254 Eh     change       -0.2438848E-06 Eh
   gradient norm :     0.0000410 Eh/α   predicted    -0.8755967E-07 ( -64.10%)
   displ. norm   :     0.0135099 α      lambda       -0.1562713E-06
   maximum displ.:     0.0104038 α      in ANC's #2, #3, #1, ...
 * RMSD in coord.:     0.0316997 α      energy gain  -0.7739619E-05 Eh

generating ANC from exact Hessian ...
Using Lindh-Hessian (1995)
 Shifting diagonal of input Hessian by   9.971893274220621E-003
 Lowest  eigenvalues of input Hessian
    0.000000    0.000000    0.000000    0.000000    0.000000    0.000000
    0.010000    0.010041    0.010109    0.010167    0.010237    0.010538
    0.010821    0.011019    0.011068    0.011263    0.011372    0.011744
 Highest eigenvalues
    2.156191    2.187374    2.194627    2.210357    2.233387    2.627635
 

........................................................................
.............................. CYCLE   43 ..............................
........................................................................

 iter      E             dE          RMSdq      gap      omega  full diag
   1   -142.1958182 -0.142196E+03  0.249E-03    2.12       0.0  T
   2   -142.1958182 -0.576478E-09  0.146E-03    2.12       7.3  T
   3   -142.1958182  0.496641E-09  0.847E-05    2.12     125.2  T
   4   -142.1958182 -0.806892E-09  0.200E-05    2.12     530.7  T
     SCC iter.                  ...        0 min,  0.044 sec
     gradient                   ...        0 min,  0.013 sec
 * total energy  :  -139.6589256 Eh     change       -0.2322403E-06 Eh
   gradient norm :     0.0000417 Eh/α   predicted     0.0000000E+00 (-100.00%)
   displ. norm   :     0.0000626 α      lambda        0.0000000E+00
   maximum displ.:     0.0000326 α      in ANC's #2, #261, #237, ...

........................................................................
.............................. CYCLE   44 ..............................
........................................................................

 iter      E             dE          RMSdq      gap      omega  full diag
   1   -142.1958313 -0.142196E+03  0.435E-05    2.12       0.0  T
   2   -142.1958313 -0.212310E-10  0.266E-05    2.12     398.5  T
   3   -142.1958313  0.440536E-11  0.158E-05    2.12     671.8  T
     SCC iter.                  ...        0 min,  0.032 sec
     gradient                   ...        0 min,  0.013 sec
 * total energy  :  -139.6589256 Eh     change       -0.1323315E-08 Eh
   gradient norm :     0.0000624 Eh/α   predicted    -0.1070205E-08 ( -19.13%)
   displ. norm   :     0.0000626 α      lambda        0.0000000E+00
   maximum displ.:     0.0000326 α      in ANC's #2, #261, #237, ...

   *** GEOMETRY OPTIMIZATION CONVERGED AFTER 44 ITERATIONS ***

------------------------------------------------------------------------
 total energy gain   :        -0.0000352 Eh       -0.0221 kcal/mol
 total RMSD          :         0.0917830 a0        0.0486 Å
 total power (kW/mol):        -0.0020989 (step)   -0.0354 (real)
------------------------------------------------------------------------

 ANCopt (total)                0 d,  0 h,  0 min,  2.611 sec
 optimizer setup                ...        0 min,  0.001 sec (  0.025%)
 model hessian                  ...        0 min,  0.139 sec (  5.338%)
 ANC generation                 ...        0 min,  0.019 sec (  0.739%)
 coordinate transformation      ...        0 min,  0.004 sec (  0.140%)
 single point calculation       ...        0 min,  2.420 sec ( 92.699%)
 optimization log               ...        0 min,  0.012 sec (  0.445%)
 hessian update                 ...        0 min,  0.006 sec (  0.222%)
 rational function              ...        0 min,  0.006 sec (  0.223%)

================
 final structure:
================
89
 xtb: 6.7.1 (edcfbbe)
C           -0.23766426678639        2.79578925595674       -2.27858258508381
C            0.27345559752024        3.85630118353376       -1.66827551223636
C            1.64018645958016        3.94395332859830       -1.16434335574552
C            1.92822862493334        4.77142162779270       -0.07949717913059
C            3.19559713182069        4.80851504563235        0.46779492700326
C            4.22255725336143        4.04952924099331       -0.07998066627549
C            5.58888506428419        4.03505613788215        0.56410960489120
O            6.30479229555853        2.82880659983740        0.37830080498001
C            5.65475461881582        1.64870069730177        0.60833096693501
C            4.47144408276665        1.54681276173229        1.34713870676905
C            3.79139853501533        0.34972407206743        1.44243441478983
C            4.30839212036377       -0.75327654477387        0.78854205064147
C            5.56573116810722       -0.69547810587210        0.15453161203171
C            6.23585944541199        0.51276083439783        0.05491581171306
C            5.84525906728448       -2.02790266999442       -0.31033655289180
C            6.91135911698319       -2.59217731469293       -0.99658784436468
C            6.85427502436177       -3.93277386844422       -1.32434083147093
C            5.74382118886966       -4.70382221879516       -0.99244668812169
C            4.66843850573635       -4.16417713659883       -0.31102730161487
C            4.73337624475462       -2.82619187748124        0.04447083902763
N            3.80352070790643       -2.04315972294878        0.70728945037638
C            2.49339623722321       -2.39475571911073        1.02027668424081
C            2.21556974234395       -3.52737268302348        1.77661905303482
C            0.90546383289409       -3.85499051534278        2.08098982502274
C           -0.14140520005568       -3.05174791976912        1.66623223937409
C            0.10695378006589       -1.91279384694081        0.90529256915507
N           -0.94514400232148       -1.10374021158870        0.48318275213131
C           -1.04464332666490        0.26838218002162        0.64523544989502
C           -0.18035292103825        1.15276607732868        1.27077112849562
C           -0.55279020859169        2.48031672205625        1.34597023445099
C           -1.76472307301132        2.92462625304481        0.82533506584191
C           -2.64011577040797        2.04668386377856        0.21962153191719
C           -2.28356361345230        0.70804727751120        0.12844992355392
C           -2.95149630536001       -0.45479180825874       -0.38592908020436
C           -4.17035417421292       -0.62934678756601       -1.03025305445894
C           -4.52546899074541       -1.90801365964128       -1.42778408371597
O           -5.68566615083193       -2.23295607365405       -2.07303962850695
C           -6.56538583887451       -1.19367011802380       -2.43740138979725
C           -7.23808902460115       -0.50865152564832       -1.27295604861083
C           -7.66306898962258        0.80956349164075       -1.38130135663147
C           -8.29761844851143        1.42792304353720       -0.32318806567731
C           -8.52724239888373        0.75191965937734        0.87682820811915
C           -9.20832482399713        1.45042215250238        1.95997759142214
C           -9.62064518394305        0.92549930266198        3.10753450536908
C           -8.08890983829445       -0.56882937870572        0.97720075343805
C           -7.45864552808564       -1.18893069221706       -0.08225857387266
C           -3.66389738510402       -2.98941523851998       -1.18960481505850
C           -2.45249428301056       -2.82709670501278       -0.55337021633366
C           -2.10253693309514       -1.55099398509443       -0.13704872037249
C            1.43067689473699       -1.59702640646377        0.55399070132689
C            1.67300136608064       -0.56146507852443       -0.37580710717355
N            1.84396007168152        0.22091777104649       -1.19694929269121
C            3.95747742281301        3.28006024937166       -1.20630328817429
C            2.68356258175212        3.21550874989227       -1.73194006055678
H            0.33678367996858        1.89912598359983       -2.43392137784650
H           -1.26089503124127        2.77531720195285       -2.61354693506600
H           -0.34846021460277        4.72301927255449       -1.47819405096117
H            1.13925954470156        5.36719554957279        0.35849174505361
H            3.39138093635620        5.42751621752137        1.33343112899753
H            5.49916010586464        4.26638695021969        1.63607952471274
H            6.23193535101639        4.79830944715749        0.10992664849759
H            4.06235014476830        2.41200231377574        1.84192391789814
H            2.88015865838878        0.29024585593651        2.01797562480415
H            7.17872631366311        0.59701982075531       -0.46082014661106
H            7.76410735910612       -1.98922019267874       -1.26840171632259
H            7.67583428058367       -4.39147670215673       -1.85385325448658
H            5.71906296400611       -5.74575855806502       -1.27550120132722
H            3.80463980873068       -4.76785445186395       -0.07611918470571
H            3.03210583084019       -4.13255939974010        2.13807162687504
H            0.70008158740780       -4.73362496393084        2.67349302730869
H           -1.15737018948399       -3.28758618141887        1.94194953270253
H            0.75415800366438        0.82534737285211        1.69771688961598
H            0.11176730953848        3.18447597880793        1.82294161099669
H           -2.02401143469860        3.96936519892453        0.90745377187208
H           -3.58915909863545        2.38522300665044       -0.16813685976770
H           -4.80795634866828        0.22237403285149       -1.20072854010449
H           -7.32578283533449       -1.68910752875386       -3.05338383020130
H           -6.04790628403089       -0.45442501285953       -3.06557196976814
H           -7.49438097843728        1.35252687574239       -2.30121852930221
H           -8.62386463214937        2.45359476288355       -0.42406961727196
H           -9.39241966720551        2.50117333874714        1.76965481052561
H          -10.12323269739405        1.52416389737274        3.84773161108065
H           -9.48320178742835       -0.11251429661766        3.35733373573266
H           -8.23871814272363       -1.11824729397701        1.89342669248766
H           -7.12535760334543       -2.21244083372253        0.00892450777725
H           -3.97777306111458       -3.96322492214302       -1.53045661562252
H           -1.79759027872726       -3.67154334131022       -0.40169252084704
H            4.75311555867575        2.70982585340557       -1.66232359303955
H            2.49543534713122        2.59520846827160       -2.59264362846249
 
 Bond Distances (Angstroems)
 ---------------------------
C1-C2=1.3260         C1-H55=1.0762        C1-H56=1.0769        C2-C1=1.3260         C2-C3=1.4593         C2-H57=1.0836        
C3-C2=1.4593         C3-C4=1.3945         C3-C54=1.3934        C4-C3=1.3945         C4-C5=1.3810         C4-H58=1.0813        
C5-C4=1.3810         C5-C6=1.3895         C5-H59=1.0820        C6-C5=1.3895         C6-C7=1.5106         C6-C53=1.3896        
C7-C6=1.5106         C7-O8=1.4150         C7-H60=1.1003        C7-H61=1.0965        O8-C7=1.4150         O8-C9=1.3668         
C9-O8=1.3668         C9-C10=1.3987        C9-C14=1.3908        C10-C9=1.3987        C10-C11=1.3801       C10-H62=1.0774       
C11-C10=1.3801       C11-C12=1.3826       C11-H63=1.0794       C12-C11=1.3826       C12-C13=1.4093       C12-N21=1.3876       
C13-C12=1.4093       C13-C14=1.3852       C13-C15=1.4386       C14-C9=1.3908        C14-C13=1.3852       C14-H64=1.0780       
C15-C13=1.4386       C15-C16=1.3878       C15-C20=1.4140       C16-C15=1.3878       C16-C17=1.3813       C16-H65=1.0792       
C17-C16=1.3813       C17-C18=1.3920       C17-H66=1.0797       C18-C17=1.3920       C18-C19=1.3827       C18-H67=1.0800       
C19-C18=1.3827       C19-C20=1.3859       C19-H68=1.0797       C20-C15=1.4140       C20-C19=1.3859       C20-N21=1.3846       
N21-C12=1.3876       N21-C20=1.3846       N21-C22=1.3921       C22-N21=1.3921       C22-C23=1.3900       C22-C50=1.4082       
C23-C22=1.3900       C23-C24=1.3843       C23-H69=1.0787       C24-C23=1.3843       C24-C25=1.3832       C24-H70=1.0795       
C25-C24=1.3832       C25-C26=1.3921       C25-H71=1.0788       C26-C25=1.3921       C26-N27=1.3927       C26-C50=1.4055       
N27-C26=1.3927       N27-C28=1.3852       N27-C49=1.3872       C28-N27=1.3852       C28-C29=1.3858       C28-C33=1.4125       
C29-C28=1.3858       C29-C30=1.3809       C29-H72=1.0783       C30-C29=1.3809       C30-C31=1.3919       C30-H73=1.0793       
C31-C30=1.3919       C31-C32=1.3798       C31-H74=1.0796       C32-C31=1.3798       C32-C33=1.3883       C32-H75=1.0797       
C33-C28=1.4125       C33-C32=1.3883       C33-C34=1.4363       C34-C33=1.4363       C34-C35=1.3897       C34-C49=1.4087       
C35-C34=1.3897       C35-C36=1.3853       C35-H76=1.0775       C36-C35=1.3853       C36-O37=1.3667       C36-C47=1.4030       
O37-C36=1.3667       O37-C38=1.4095       C38-O37=1.4095       C38-C39=1.5092       C38-H77=1.0969       C38-H78=1.0995       
C39-C38=1.5092       C39-C40=1.3893       C39-C46=1.3890       C40-C39=1.3893       C40-C41=1.3801       C40-H79=1.0814       
C41-C40=1.3801       C41-C42=1.3963       C41-H80=1.0810       C42-C41=1.3963       C42-C43=1.4577       C42-C45=1.3952       
C43-C42=1.4577       C43-C44=1.3276       C43-H81=1.0836       C44-C43=1.3276       C44-H82=1.0765       C44-H83=1.0765       
C45-C42=1.3952       C45-C46=1.3799       C45-H84=1.0788       C46-C39=1.3890       C46-C45=1.3799       C46-H85=1.0803       
C47-C36=1.4030       C47-C48=1.3779       C47-H86=1.0784       C48-C47=1.3779       C48-C49=1.3872       C48-H87=1.0793       
C49-N27=1.3872       C49-C34=1.4087       C49-C48=1.3872       C50-C22=1.4082       C50-C26=1.4055       C50-C51=1.4127       
C51-C50=1.4127       C51-N52=1.1470       N52-C51=1.1470       C53-C6=1.3896        C53-C54=1.3796       C53-H88=1.0799       
C54-C3=1.3934        C54-C53=1.3796       C54-H89=1.0775       H55-C1=1.0762        H56-C1=1.0769        H57-C2=1.0836        
H58-C4=1.0813        H59-C5=1.0820        H60-C7=1.1003        H61-C7=1.0965        H62-C10=1.0774       H63-C11=1.0794       
H64-C14=1.0780       H65-C16=1.0792       H66-C17=1.0797       H67-C18=1.0800       H68-C19=1.0797       H69-C23=1.0787       
H70-C24=1.0795       H71-C25=1.0788       H72-C29=1.0783       H73-C30=1.0793       H74-C31=1.0796       H75-C32=1.0797       
H76-C35=1.0775       H77-C38=1.0969       H78-C38=1.0995       H79-C40=1.0814       H80-C41=1.0810       H81-C43=1.0836       
H82-C44=1.0765       H83-C44=1.0765       H84-C45=1.0788       H85-C46=1.0803       H86-C47=1.0784       H87-C48=1.0793       
H88-C53=1.0799       H89-C54=1.0775       
 C  H  Rav=1.0815 sigma=0.0063  Rmin=1.0762  Rmax=1.1003    35
 C  C  Rav=1.3976 sigma=0.0320  Rmin=1.3260  Rmax=1.5106    51
 N  C  Rav=1.3538 sigma=0.0845  Rmin=1.1470  Rmax=1.3927     7
 O  C  Rav=1.3895 sigma=0.0228  Rmin=1.3667  Rmax=1.4150     4
 
 selected bond angles (degree)
 --------------------
H55-C1-C2=121.81               H56-C1-C2=121.64               H56-C1-H55=116.52              C3-C2-C1=124.61                
H57-C2-C1=119.95               H57-C2-C3=115.40               C4-C3-C2=119.85                C54-C3-C2=121.95               
C54-C3-C4=118.19               C5-C4-C3=120.92                H58-C4-C3=119.43               H58-C4-C5=119.62               
C6-C5-C4=120.49                H59-C5-C4=119.90               H59-C5-C6=119.61               C7-C6-C5=120.37                
C53-C6-C5=118.75               C53-C6-C7=120.85               O8-C7-C6=114.19                H60-C7-C6=109.85               
H60-C7-O8=110.39               H61-C7-C6=110.31               H61-C7-O8=104.02               H61-C7-H60=107.76              
C9-O8-C7=118.25                C10-C9-O8=123.65               C14-C9-O8=116.07               C14-C9-C10=120.28              
C11-C10-C9=121.10              H62-C10-C9=120.35              H62-C10-C11=118.54             
 
 selected dihedral angles (degree)
 ---------------------------------
C3-C2-C1-H55=  0.89           C3-C2-C1-H56=178.69           H57-C2-C1-H55=183.43          H57-C2-C1-H56=  1.23          
C4-C3-C2-C1=208.13            C4-C3-C2-H57= 25.69           C54-C3-C2-C1= 27.83           C54-C3-C2-H57=205.39          
C5-C4-C3-C2=175.95            C5-C4-C3-C54=356.24           H58-C4-C3-C2=357.98           H58-C4-C3-C54=178.27          
C6-C5-C4-C3=  1.98            C6-C5-C4-H58=179.95           H59-C5-C4-C3=182.38           H59-C5-C4-H58=  0.35          
C7-C6-C5-C4=183.26            C7-C6-C5-H59=  2.87           C53-C6-C5-C4=  1.56           C53-C6-C5-H59=181.17          
O8-C7-C6-C5=150.38            O8-C7-C6-C53=332.11           H60-C7-C6-C5= 25.75           H60-C7-C6-C53=207.48          
H61-C7-C6-C5=267.10           H61-C7-C6-C53= 88.83          C9-O8-C7-C6=312.62            C9-O8-C7-H60= 76.97           
C9-O8-C7-H61=192.33           C10-C9-O8-C7=342.05           C14-C9-O8-C7=161.86           C11-C10-C9-O8=173.86          
C11-C10-C9-C14=354.06         H62-C10-C9-O8=354.92          H62-C10-C9-C14=175.12         
           -------------------------------------------------
          |                Final Singlepoint                |
           -------------------------------------------------

          ...................................................
          :                      SETUP                      :
          :.................................................:
          :  # basis functions                 251          :
          :  # atomic orbitals                 251          :
          :  # shells                          143          :
          :  # electrons                       258          :
          :  max. iterations                   250          :
          :  Hamiltonian                  GFN2-xTB          :
          :  restarted?                      false          :
          :  GBSA solvation                  false          :
          :  PC potential                    false          :
          :  electronic temp.          300.0000000     K    :
          :  accuracy                    1.0000000          :
          :  -> integral cutoff          0.2500000E+02      :
          :  -> integral neglect         0.1000000E-07      :
          :  -> SCF convergence          0.1000000E-05 Eh   :
          :  -> wf. convergence          0.1000000E-03 e    :
          :  Broyden damping             0.4000000          :
          :  net charge                          0          :
          :  unpaired electrons                  0          :
          ...................................................

 iter      E             dE          RMSdq      gap      omega  full diag
   1   -142.1958313 -0.142196E+03  0.495E-06    2.12       0.0  T
   2   -142.1958313  0.284217E-13  0.420E-06    2.12    2524.0  T
   3   -142.1958313 -0.133582E-11  0.114E-06    2.12    9286.6  T

   *** convergence criteria satisfied after 3 iterations ***

         #    Occupation            Energy/Eh            Energy/eV
      -------------------------------------------------------------
         1        2.0000           -0.7129802             -19.4012
       ...           ...                  ...                  ...
       123        2.0000           -0.3939061             -10.7187
       124        2.0000           -0.3853840             -10.4868
       125        2.0000           -0.3790379             -10.3141
       126        2.0000           -0.3787597             -10.3066
       127        2.0000           -0.3714813             -10.1085
       128        2.0000           -0.3609762              -9.8227
       129        2.0000           -0.3570528              -9.7159 (HOMO)
       130                         -0.2790864              -7.5943 (LUMO)
       131                         -0.2557514              -6.9594
       132                         -0.2547446              -6.9320
       133                         -0.2471852              -6.7263
       134                         -0.2442975              -6.6477
       ...                                ...                  ...
       251                          1.1664295              31.7402
      -------------------------------------------------------------
                  HL-Gap            0.0779664 Eh            2.1216 eV
             Fermi-level           -0.3180696 Eh           -8.6551 eV

 SCC (total)                   0 d,  0 h,  0 min,  0.053 sec
 SCC setup                      ...        0 min,  0.000 sec (  0.380%)
 Dispersion                     ...        0 min,  0.001 sec (  2.066%)
 classical contributions        ...        0 min,  0.000 sec (  0.077%)
 integral evaluation            ...        0 min,  0.005 sec (  9.393%)
 iterations                     ...        0 min,  0.034 sec ( 63.715%)
 molecular gradient             ...        0 min,  0.012 sec ( 23.206%)
 printout                       ...        0 min,  0.001 sec (  1.021%)

         :::::::::::::::::::::::::::::::::::::::::::::::::::::
         ::                     SUMMARY                     ::
         :::::::::::::::::::::::::::::::::::::::::::::::::::::
         :: total energy            -139.658925599310 Eh    ::
         :: gradient norm              0.000062707705 Eh/a0 ::
         :: HOMO-LUMO gap              2.121573400884 eV    ::
         ::.................................................::
         :: SCC energy              -142.192343370716 Eh    ::
         :: -> isotropic ES            0.046686939451 Eh    ::
         :: -> anisotropic ES          0.016083636825 Eh    ::
         :: -> anisotropic XC          0.082719430896 Eh    ::
         :: -> dispersion             -0.131804620304 Eh    ::
         :: repulsion energy           2.533417771406 Eh    ::
         :: add. restraining           0.000000000000 Eh    ::
         :: total charge              -0.000000000000 e     ::
         :::::::::::::::::::::::::::::::::::::::::::::::::::::

           ------------------------------------------------- 
          |                Numerical Hessian                |
           ------------------------------------------------- 
step length          :   0.00500
SCC accuracy         :   0.30000
Hessian scale factor :   1.00000
frozen atoms in %    :   0.00000    0
RMS gradient         :   0.00006
estimated CPU  time     16.42 min
estimated wall time      0.41 min

writing file <hessian>.

 projected vibrational frequencies (cm⁻¹)
eigval :       -0.00    -0.00    -0.00     0.00     0.00     0.00
eigval :        8.61    11.23    12.33    18.76    23.26    26.93
eigval :       33.15    33.76    44.79    51.97    56.60    60.30
eigval :       72.24    80.17    86.53    93.96    97.12   106.48
eigval :      113.94   122.87   124.30   136.76   138.80   156.05
eigval :      162.00   166.63   168.78   197.22   208.68   220.80
eigval :      225.70   237.11   243.85   250.69   256.93   262.26
eigval :      276.30   291.04   301.36   310.91   315.47   319.05
eigval :      332.64   354.76   368.37   378.05   384.87   388.38
eigval :      395.12   396.31   400.30   411.63   414.11   418.90
eigval :      424.70   427.14   434.08   449.07   452.16   493.33
eigval :      494.57   506.10   509.49   516.18   525.24   530.57
eigval :      535.11   544.11   560.99   570.91   576.13   587.07
eigval :      591.66   595.14   597.48   604.19   605.67   614.13
eigval :      618.86   620.78   631.39   638.35   658.53   669.48
eigval :      672.73   688.38   694.96   695.94   703.79   704.74
eigval :      711.48   728.42   742.71   752.28   757.88   767.88
eigval :      772.74   774.68   804.18   806.03   809.24   811.13
eigval :      813.08   847.09   851.64   853.40   857.94   858.85
eigval :      862.32   863.23   867.23   869.53   870.08   889.26
eigval :      891.90   892.81   893.72   899.78   902.84   907.29
eigval :      908.44   913.89   915.23   919.08   921.43   921.94
eigval :      925.09   925.71   927.08   930.36   985.19   991.33
eigval :     1001.43  1002.29  1011.41  1011.75  1019.97  1026.58
eigval :     1036.88  1037.29  1039.71  1058.13  1068.23  1072.45
eigval :     1073.84  1101.51  1119.09  1140.67  1145.27  1147.68
eigval :     1149.05  1155.99  1173.11  1177.31  1179.06  1183.84
eigval :     1185.34  1193.26  1196.17  1196.59  1199.13  1204.12
eigval :     1204.38  1211.70  1215.97  1225.55  1238.53  1241.02
eigval :     1247.06  1249.50  1252.74  1253.31  1270.74  1271.50
eigval :     1278.48  1283.01  1297.20  1299.76  1302.74  1308.30
eigval :     1314.93  1317.74  1326.21  1337.67  1340.59  1345.89
eigval :     1355.44  1358.92  1361.67  1366.17  1386.07  1407.93
eigval :     1412.12  1413.15  1419.45  1419.96  1420.88  1425.59
eigval :     1429.39  1450.65  1451.14  1454.88  1463.02  1470.78
eigval :     1477.67  1484.68  1491.26  1492.18  1493.21  1549.00
eigval :     1564.52  1573.29  1573.61  1574.13  1575.73  1588.24
eigval :     1589.50  1601.56  1602.45  1603.21  1605.11  1617.94
eigval :     1621.31  1676.44  1679.02  2362.02  2863.88  2877.83
eigval :     2928.36  2930.48  3039.18  3044.21  3055.79  3063.55
[...]
    46   6 C       85   1 H                                       1.0802631
    47   6 C       86   1 H                                       1.0784264
    48   6 C       87   1 H                                       1.0793497
    53   6 C       88   1 H                                       1.0798898
    54   6 C       89   1 H                                       1.0774856

 * 4 distinct bonds (by element types)

   Z      Z             #   av. dist./Å        max./Å        min./Å
   1 H    6 C          35     1.0814596     1.1003110     1.0761625
   6 C    6 C          46     1.3897945     1.4386083     1.3260483
   6 C    7 N           7     1.3537730     1.3927148     1.1470068
   6 C    8 O           4     1.3895052     1.4149510     1.3667480

           -------------------------------------------------
          |               Frequency Printout                |
           -------------------------------------------------
 projected vibrational frequencies (cm⁻¹)
eigval :       -0.00    -0.00    -0.00     0.00     0.00     0.00
eigval :        8.61    11.23    12.33    18.76    23.26    26.93
eigval :       33.15    33.76    44.79    51.97    56.60    60.30
eigval :       72.24    80.17    86.53    93.96    97.12   106.48
eigval :      113.94   122.87   124.30   136.76   138.80   156.05
eigval :      162.00   166.63   168.78   197.22   208.68   220.80
eigval :      225.70   237.11   243.85   250.69   256.93   262.26
eigval :      276.30   291.04   301.36   310.91   315.47   319.05
eigval :      332.64   354.76   368.37   378.05   384.87   388.38
eigval :      395.12   396.31   400.30   411.63   414.11   418.90
eigval :      424.70   427.14   434.08   449.07   452.16   493.33
eigval :      494.57   506.10   509.49   516.18   525.24   530.57
eigval :      535.11   544.11   560.99   570.91   576.13   587.07
eigval :      591.66   595.14   597.48   604.19   605.67   614.13
eigval :      618.86   620.78   631.39   638.35   658.53   669.48
eigval :      672.73   688.38   694.96   695.94   703.79   704.74
eigval :      711.48   728.42   742.71   752.28   757.88   767.88
eigval :      772.74   774.68   804.18   806.03   809.24   811.13
eigval :      813.08   847.09   851.64   853.40   857.94   858.85
eigval :      862.32   863.23   867.23   869.53   870.08   889.26
eigval :      891.90   892.81   893.72   899.78   902.84   907.29
eigval :      908.44   913.89   915.23   919.08   921.43   921.94
eigval :      925.09   925.71   927.08   930.36   985.19   991.33
eigval :     1001.43  1002.29  1011.41  1011.75  1019.97  1026.58
eigval :     1036.88  1037.29  1039.71  1058.13  1068.23  1072.45
eigval :     1073.84  1101.51  1119.09  1140.67  1145.27  1147.68
eigval :     1149.05  1155.99  1173.11  1177.31  1179.06  1183.84
eigval :     1185.34  1193.26  1196.17  1196.59  1199.13  1204.12
eigval :     1204.38  1211.70  1215.97  1225.55  1238.53  1241.02
eigval :     1247.06  1249.50  1252.74  1253.31  1270.74  1271.50
eigval :     1278.48  1283.01  1297.20  1299.76  1302.74  1308.30
eigval :     1314.93  1317.74  1326.21  1337.67  1340.59  1345.89
eigval :     1355.44  1358.92  1361.67  1366.17  1386.07  1407.93
eigval :     1412.12  1413.15  1419.45  1419.96  1420.88  1425.59
eigval :     1429.39  1450.65  1451.14  1454.88  1463.02  1470.78
eigval :     1477.67  1484.68  1491.26  1492.18  1493.21  1549.00
eigval :     1564.52  1573.29  1573.61  1574.13  1575.73  1588.24
eigval :     1589.50  1601.56  1602.45  1603.21  1605.11  1617.94
eigval :     1621.31  1676.44  1679.02  2362.02  2863.88  2877.83
eigval :     2928.36  2930.48  3039.18  3044.21  3055.79  3063.55
eigval :     3071.30  3076.92  3077.61  3079.94  3081.44  3083.73
eigval :     3084.47  3086.99  3087.38  3089.14  3090.35  3091.23
eigval :     3094.83  3098.70  3099.27  3104.33  3104.55  3107.83
eigval :     3108.96  3110.42  3111.34  3111.37  3116.27  3116.36
eigval :     3120.74  3131.77  3138.81
 reduced masses (amu)
   1: 11.60   2: 11.73   3: 11.66   4: 11.75   5: 11.34   6: 11.58   7: 11.16   8: 10.96
   9: 11.28  10: 11.00  11:  9.57  12: 11.11  13: 10.92  14:  9.30  15: 11.53  16: 11.41
  17: 10.08  18: 11.80  19: 11.07  20: 10.40  21: 10.77  22: 10.50  23: 10.08  24: 10.70
  25: 10.24  26: 10.59  27: 10.14  28: 11.45  29: 12.22  30: 10.99  31: 10.97  32: 11.03
  33: 10.51  34: 10.39  35: 10.37  36:  9.36  37: 10.52  38: 10.62  39: 11.57  40: 10.71
  41: 11.38  42: 11.10  43: 10.62  44: 10.12  45: 11.09  46:  9.37  47:  8.56  48: 11.05
  49: 10.74  50: 11.54  51:  8.88  52:  9.06  53: 11.39  54: 11.30  55:  9.58  56: 10.29
  57: 10.56  58: 11.09  59: 11.16  60: 10.87  61:  9.70  62:  9.49  63: 10.21  64:  9.07
  65:  9.94  66: 11.52  67: 11.02  68: 10.22  69: 10.93  70: 10.59  71: 10.07  72: 10.86
  73: 11.08  74: 10.90  75: 11.35  76: 10.95  77: 11.31  78: 10.86  79: 11.43  80: 11.39
  81: 11.37  82: 10.94  83: 11.04  84: 10.80  85:  8.97  86: 10.27  87: 10.45  88: 11.04
  89: 11.36  90: 11.69  91: 11.68  92: 11.37  93:  8.75  94:  8.59  95: 11.57  96: 11.61
  97: 11.43  98: 11.26  99: 10.00 100: 10.23 101: 10.92 102:  3.96 103: 11.26 104:  3.73
 105:  4.57 106:  4.23 107:  5.45 108:  5.34 109:  3.93 110: 10.74 111:  9.60 112:  4.34
 113:  3.82 114: 10.03 115:  8.72 116:  5.61 117:  3.41 118:  3.38 119:  3.47 120:  3.79
 121:  3.78 122:  3.37 123:  3.80 124:  3.74 125:  3.88 126: 10.88 127:  4.29 128:  2.96
 129:  2.84 130:  3.22 131:  5.68 132:  7.93 133:  7.92 134:  4.35 135:  6.16 136:  4.16
 137:  6.97 138:  7.80 139:  8.10 140:  8.33 141:  2.23 142:  1.98 143:  8.81 144:  9.21
 145:  5.86 146:  6.02 147:  9.74 148: 10.58 149: 11.12 150:  6.12 151:  6.09 152:  7.13
 153:  7.66 154:  5.82 155:  3.42 156:  3.03 157:  3.10 158:  5.18 159:  4.82 160:  2.62
 161:  3.56 162:  4.54 163:  3.55 164:  4.42 165:  3.18 166:  2.76 167:  4.98 168:  4.77
 169:  5.74 170:  3.92 171:  8.07 172:  3.56 173:  5.60 174:  5.41 175:  6.90 176:  6.57
 177:  7.56 178:  6.53 179:  5.33 180:  4.40 181:  8.81 182:  8.32 183:  7.19 184:  7.48
 185: 11.38 186:  8.83 187:  6.34 188:  8.28 189:  4.11 190:  9.76 191:  9.38 192: 10.48
 193: 11.29 194: 11.00 195: 11.43 196: 11.13 197: 10.56 198:  4.29 199:  7.86 200:  7.86
 201:  4.38 202:  9.52 203:  9.68 204: 10.01 205:  9.91 206:  9.01 207:  4.75 208: 11.36
 209:  2.17 210: 10.63 211: 10.61 212: 10.59 213: 10.71 214:  9.41 215:  9.35 216: 11.54
 217: 11.52 218: 11.56 219: 11.53 220: 11.74 221: 11.64 222: 11.61 223: 11.61 224: 11.48
 225: 11.57 226: 11.64 227: 11.71 228: 11.71 229: 11.76 230: 11.12 231: 11.18 232: 12.79
 233:  1.80 234:  1.80 235:  1.62 236:  1.62 237:  1.80 238:  1.80 239:  1.78 240:  1.78
 241:  1.87 242:  1.87 243:  1.76 244:  1.76 245:  1.81 246:  1.80 247:  1.79 248:  1.81
 249:  1.81 250:  1.81 251:  1.79 252:  1.86 253:  1.86 254:  1.91 255:  1.86 256:  1.88
 257:  1.83 258:  1.57 259:  1.89 260:  1.85 261:  1.83 262:  1.52 263:  1.85 264:  1.83
 265:  1.84 266:  2.10 267:  2.06
 IR intensities (km·mol⁻¹)
   1:  0.03   2:  0.03   3:  0.06   4:  0.02   5:  0.03   6:  0.02   7:  0.15   8:  0.00
   9:  0.01  10:  0.07  11:  0.05  12:  0.26  13:  0.17  14:  0.01  15:  0.26  16:  0.37
  17:  0.33  18:  1.12  19:  0.33  20:  0.23  21:  0.65  22:  0.58  23:  0.16  24:  0.41
  25:  0.15  26:  1.34  27:  0.14  28:  1.36  29:  3.89  30:  1.81  31:  0.55  32:  0.75
  33:  0.22  34:  0.62  35:  1.09  36:  4.04  37:  1.50  38:  1.40  39:  0.60  40:  1.56
  41:  2.17  42:  8.72  43:  0.46  44:  2.14  45:  2.11  46:  1.46  47:  0.85  48:  4.42
  49:  5.05  50:  5.07  51:  0.19  52:  0.07  53:  1.80  54:  0.26  55:  0.34  56:  1.22
  57:  3.01  58:  5.94  59:  3.96  60:  0.44  61:  2.04  62:  3.88  63:  1.36  64:  3.92
  65:  2.43  66:  4.45  67:  0.94  68:  0.49  69:  0.71  70:  1.48  71:  0.14  72:  0.01
  73:  1.15  74:  2.40  75:  4.27  76:  3.57  77:  1.75  78:  2.89  79:  0.43  80:  3.63
  81:  7.39  82:  2.40  83:  1.11  84:  1.56  85:  2.00  86:  9.54  87:  3.41  88:  3.78
  89:  0.28  90:  0.05  91:  1.83  92:  5.35  93:  2.95  94:  1.93  95:  7.90  96:  0.58
  97: 13.94  98:  2.52  99:  3.40 100:  7.14 101:  0.49 102: 23.37 103:  0.77 104: 33.34
 105: 34.36 106: 51.11 107: 17.55 108: 18.32 109:  3.85 110:  9.44 111: 10.06 112:  0.23
 113:  6.12 114:  5.88 115: 36.73 116: 11.79 117:  0.13 118:  1.17 119:  0.55 120: 17.39
 121: 13.19 122:  0.96 123:  0.10 124:  0.08 125:  0.39 126:  2.39 127:  1.00 128:  0.25
 129:  0.13 130:  0.47 131:  5.44 132: 12.44 133:  0.71 134:  0.18 135:  1.05 136:  0.09
 137:  0.89 138:  5.12 139:  7.36 140: 13.22 141: 23.71 142: 14.38 143:  0.61 144:  5.76
 145:  1.58 146:  1.82 147: 20.34 148: 37.36 149: 45.96 150:  0.03 151:  0.14 152:  3.06
 153: 12.73 154: 46.18 155: 15.28 156:  0.69 157:  2.12 158: 55.48 159: 97.19 160: 66.01
 161: 39.62 162:183.07 163: 86.22 164: 10.71 165:  0.46 166:  7.63 167:  8.57 168:  3.42
 169:  3.53 170: 12.78 171:  1.61 172: 61.73 173: 23.49 174: 46.24 175: 19.05 176: 50.74
 177:  9.87 178: 16.68 179:  9.50 180:  7.65 181: 69.14 182: 42.99 183: 16.63 184: 18.16
 185: 82.69 186: 41.56 187: 50.36 188: 15.16 189:  4.93 190:  5.36 191:  0.13 192: 28.73
 193: 49.90 194: 39.40 195: 10.34 196: 38.10 197: 11.37 198:  0.14 199:  8.37 200:  5.54
 201: 11.54 202:155.58 203: 51.39 204: 42.45 205:234.58 206:299.55 207:110.58 208:668.59
 209: 11.46 210:130.49 211:155.79 212: 10.62 213: 49.13 214:  5.90 215:  2.94 216:209.47
 217: 64.94 218:  2.52 219:  0.74 220: 11.65 221: 30.83 222:  9.00 223: 26.47 224:  4.40
 225:  4.68 226: 12.55 227: 21.79 228: 31.95 229: 19.22 230:  1.66 231:  0.56 232:113.46
 233: 45.79 234: 29.54 235: 33.03 236: 36.86 237: 28.64 238: 24.65 239: 33.13 240: 21.58
 241: 55.57 242: 51.27 243:  2.26 244:  6.22 245: 29.03 246: 26.93 247: 11.03 248: 28.76
 249: 11.67 250: 15.66 251: 24.81 252: 41.84 253: 65.73 254: 64.81 255: 22.04 256: 28.80
 257: 20.13 258: 22.74 259: 19.07 260: 24.11 261: 16.33 262: 20.97 263: 11.12 264: 19.04
 265: 19.12 266: 47.04 267: 28.50
 Raman intensities (Ä⁴*amu⁻¹)
   1:  0.00   2:  0.00   3:  0.00   4:  0.00   5:  0.00   6:  0.00   7:  0.00   8:  0.00
   9:  0.00  10:  0.00  11:  0.00  12:  0.00  13:  0.00  14:  0.00  15:  0.00  16:  0.00
  17:  0.00  18:  0.00  19:  0.00  20:  0.00  21:  0.00  22:  0.00  23:  0.00  24:  0.00
  25:  0.00  26:  0.00  27:  0.00  28:  0.00  29:  0.00  30:  0.00  31:  0.00  32:  0.00
  33:  0.00  34:  0.00  35:  0.00  36:  0.00  37:  0.00  38:  0.00  39:  0.00  40:  0.00
  41:  0.00  42:  0.00  43:  0.00  44:  0.00  45:  0.00  46:  0.00  47:  0.00  48:  0.00
  49:  0.00  50:  0.00  51:  0.00  52:  0.00  53:  0.00  54:  0.00  55:  0.00  56:  0.00
  57:  0.00  58:  0.00  59:  0.00  60:  0.00  61:  0.00  62:  0.00  63:  0.00  64:  0.00
  65:  0.00  66:  0.00  67:  0.00  68:  0.00  69:  0.00  70:  0.00  71:  0.00  72:  0.00
  73:  0.00  74:  0.00  75:  0.00  76:  0.00  77:  0.00  78:  0.00  79:  0.00  80:  0.00
  81:  0.00  82:  0.00  83:  0.00  84:  0.00  85:  0.00  86:  0.00  87:  0.00  88:  0.00
  89:  0.00  90:  0.00  91:  0.00  92:  0.00  93:  0.00  94:  0.00  95:  0.00  96:  0.00
  97:  0.00  98:  0.00  99:  0.00 100:  0.00 101:  0.00 102:  0.00 103:  0.00 104:  0.00
 105:  0.00 106:  0.00 107:  0.00 108:  0.00 109:  0.00 110:  0.00 111:  0.00 112:  0.00
 113:  0.00 114:  0.00 115:  0.00 116:  0.00 117:  0.00 118:  0.00 119:  0.00 120:  0.00
 121:  0.00 122:  0.00 123:  0.00 124:  0.00 125:  0.00 126:  0.00 127:  0.00 128:  0.00
 129:  0.00 130:  0.00 131:  0.00 132:  0.00 133:  0.00 134:  0.00 135:  0.00 136:  0.00
 137:  0.00 138:  0.00 139:  0.00 140:  0.00 141:  0.00 142:  0.00 143:  0.00 144:  0.00
 145:  0.00 146:  0.00 147:  0.00 148:  0.00 149:  0.00 150:  0.00 151:  0.00 152:  0.00
 153:  0.00 154:  0.00 155:  0.00 156:  0.00 157:  0.00 158:  0.00 159:  0.00 160:  0.00
 161:  0.00 162:  0.00 163:  0.00 164:  0.00 165:  0.00 166:  0.00 167:  0.00 168:  0.00
 169:  0.00 170:  0.00 171:  0.00 172:  0.00 173:  0.00 174:  0.00 175:  0.00 176:  0.00
 177:  0.00 178:  0.00 179:  0.00 180:  0.00 181:  0.00 182:  0.00 183:  0.00 184:  0.00
 185:  0.00 186:  0.00 187:  0.00 188:  0.00 189:  0.00 190:  0.00 191:  0.00 192:  0.00
 193:  0.00 194:  0.00 195:  0.00 196:  0.00 197:  0.00 198:  0.00 199:  0.00 200:  0.00
 201:  0.00 202:  0.00 203:  0.00 204:  0.00 205:  0.00 206:  0.00 207:  0.00 208:  0.00
 209:  0.00 210:  0.00 211:  0.00 212:  0.00 213:  0.00 214:  0.00 215:  0.00 216:  0.00
 217:  0.00 218:  0.00 219:  0.00 220:  0.00 221:  0.00 222:  0.00 223:  0.00 224:  0.00
 225:  0.00 226:  0.00 227:  0.00 228:  0.00 229:  0.00 230:  0.00 231:  0.00 232:  0.00
 233:  0.00 234:  0.00 235:  0.00 236:  0.00 237:  0.00 238:  0.00 239:  0.00 240:  0.00
 241:  0.00 242:  0.00 243:  0.00 244:  0.00 245:  0.00 246:  0.00 247:  0.00 248:  0.00
 249:  0.00 250:  0.00 251:  0.00 252:  0.00 253:  0.00 254:  0.00 255:  0.00 256:  0.00
 257:  0.00 258:  0.00 259:  0.00 260:  0.00 261:  0.00 262:  0.00 263:  0.00 264:  0.00
 265:  0.00 266:  0.00 267:  0.00
 output can be read by thermo (or use thermo option).
 writing <g98.out> molden fake output.
 recommended (thermochemical) frequency scaling factor: 1.0
           -------------------------------------------------
          |             Thermodynamic Functions             |
           -------------------------------------------------

Molecule has no symmetry elements
It seems to be the C1 point group
c1  symmetry found (for desy threshold:  0.10E+00) used in thermo

          ...................................................
          :                      SETUP                      :
          :.................................................:
          :  # frequencies                         261      :
          :  # imaginary freq.                       0      :
          :  linear?                             false      :
          :  only rotor calc.                    false      :
          :  symmetry                               c1      :
          :  rotational number                       1      :
          :  scaling factor                  1.0000000      :
          :  rotor cutoff                   50.0000000 cm⁻¹ :
          :  imag. cutoff                  -20.0000000 cm⁻¹ :
          :.................................................:

    mode    ω/cm⁻¹     T·S(HO)/kcal·mol⁻¹    T·S(FR)/kcal·mol⁻¹   T·S(vib)
   ------------------------------------------------------------------------
       1      8.61    -2.47693 (  0.09%)    -1.57752 ( 99.91%)    -1.57831
       2     11.23    -2.31984 (  0.25%)    -1.49897 ( 99.75%)    -1.50105
       3     12.33    -2.26419 (  0.37%)    -1.47114 ( 99.63%)    -1.47407
       4     18.76    -2.01587 (  1.94%)    -1.34693 ( 98.06%)    -1.35993
       5     23.26    -1.88864 (  4.47%)    -1.28327 ( 95.53%)    -1.31034
       6     26.93    -1.80183 (  7.77%)    -1.23981 ( 92.23%)    -1.28345
       7     33.15    -1.67907 ( 16.19%)    -1.17833 ( 83.81%)    -1.25938
       8     33.76    -1.66821 ( 17.21%)    -1.17289 ( 82.79%)    -1.25812
       9     44.79    -1.50116 ( 39.18%)    -1.08911 ( 60.82%)    -1.25055
      10     51.97    -1.41349 ( 53.86%)    -1.04508 ( 46.14%)    -1.24351
      11     56.60    -1.36323 ( 62.15%)    -1.01981 ( 37.85%)    -1.23325
      12     60.30    -1.32595 ( 67.91%)    -1.00104 ( 32.09%)    -1.22167
      13     72.24    -1.21985 ( 81.33%)    -0.94754 ( 18.67%)    -1.16902
      14     80.17    -1.15879 ( 86.86%)    -0.91667 ( 13.14%)    -1.12698
      15     86.53    -1.11420 ( 89.97%)    -0.89407 ( 10.03%)    -1.09212
      16     93.96    -1.06614 ( 92.58%)    -0.86966 (  7.42%)    -1.05155
      17     97.12    -1.04688 ( 93.44%)    -0.85986 (  6.56%)    -1.03461
      18    106.48    -0.99348 ( 95.36%)    -0.83262 (  4.64%)    -0.98602
      19    113.94    -0.95427 ( 96.42%)    -0.81255 (  3.58%)    -0.94920
      20    122.87    -0.91076 ( 97.33%)    -0.79019 (  2.67%)    -0.90754
      21    124.30    -0.90409 ( 97.45%)    -0.78676 (  2.55%)    -0.90110
      22    136.76    -0.84935 ( 98.24%)    -0.75847 (  1.76%)    -0.84775
      23    138.80    -0.84090 ( 98.34%)    -0.75409 (  1.66%)    -0.83946
      24    156.05    -0.77433 ( 98.96%)    -0.71938 (  1.04%)    -0.77375
      25    162.00    -0.75323 ( 99.10%)    -0.70830 (  0.90%)    -0.75282
      26    166.63    -0.73738 ( 99.20%)    -0.69995 (  0.80%)    -0.73708
      27    168.78    -0.73018 ( 99.24%)    -0.69615 (  0.76%)    -0.72992
      28    197.22    -0.64368 ( 99.59%)    -0.65002 (  0.41%)    -0.64370
      29    208.68    -0.61274 ( 99.67%)    -0.63328 (  0.33%)    -0.61281
      30    220.80    -0.58213 ( 99.74%)    -0.61655 (  0.26%)    -0.58222
      31    225.70    -0.57032 ( 99.76%)    -0.61006 (  0.24%)    -0.57042
      32    237.11    -0.54397 ( 99.80%)    -0.59545 (  0.20%)    -0.54407
      33    243.85    -0.52909 ( 99.82%)    -0.58714 (  0.18%)    -0.52920
      34    250.69    -0.51453 ( 99.84%)    -0.57895 (  0.16%)    -0.51463
      35    256.93    -0.50164 ( 99.86%)    -0.57166 (  0.14%)    -0.50175
      36    262.26    -0.49097 ( 99.87%)    -0.56559 (  0.13%)    -0.49106
      37    276.30    -0.46407 ( 99.89%)    -0.55014 (  0.11%)    -0.46416
      38    291.04    -0.43766 ( 99.91%)    -0.53474 (  0.09%)    -0.43775
   ------------------------------------------------------------------------

   temp. (K)  partition function   enthalpy   heat capacity  entropy
                                   cal/mol     cal/K/mol   cal/K/mol   J/K/mol
 298.15  VIB  0.166E+22            26567.304    164.878    166.421
         ROT  0.108E+09              888.752      2.981     39.746
         INT  0.179E+30            27456.056    167.859    206.167
         TR   0.178E+29             1481.254      4.968     45.488
         TOT                       28937.3103   172.8274   251.6556  1052.9271

       T/K    H(0)-H(T)+PV         H(T)/Eh          T*S/Eh         G(T)/Eh
   ------------------------------------------------------------------------
    298.15    0.461145E-01    0.729364E+00    0.119570E+00    0.609795E+00
   ------------------------------------------------------------------------

         :::::::::::::::::::::::::::::::::::::::::::::::::::::
         ::                  THERMODYNAMIC                  ::
         :::::::::::::::::::::::::::::::::::::::::::::::::::::
         :: total free energy        -139.049130859363 Eh   ::
         ::.................................................::
         :: total energy             -139.658925599310 Eh   ::
         :: zero point energy           0.683249901099 Eh   ::
         :: G(RRHO) w/o ZPVE           -0.073455161153 Eh   ::
         :: G(RRHO) contrib.            0.609794739947 Eh   ::
         :::::::::::::::::::::::::::::::::::::::::::::::::::::

optimized geometry written to: xtbopt.xyz


           -------------------------------------------------
          | TOTAL ENERGY             -139.658925599310 Eh   |
          | TOTAL ENTHALPY           -138.929561158878 Eh   |
          | TOTAL FREE ENERGY        -139.049130859363 Eh   |
          | GRADIENT NORM               0.000062671855 Eh/α |
          | HOMO-LUMO GAP               2.121573648933 eV   |
           -------------------------------------------------

------------------------------------------------------------------------
 * finished run on 2025/07/19 at 14:39:31.330     
------------------------------------------------------------------------
 total:
 * wall-time:     0 d,  0 h,  0 min,  7.872 sec
 *  cpu-time:     0 d,  0 h,  4 min, 47.446 sec
 * ratio c/w:    36.514 speedup
 SCF:
 * wall-time:     0 d,  0 h,  0 min,  0.134 sec
 *  cpu-time:     0 d,  0 h,  0 min,  5.322 sec
 * ratio c/w:    39.805 speedup
 ANC optimizer:
 * wall-time:     0 d,  0 h,  0 min,  2.666 sec
 *  cpu-time:     0 d,  0 h,  1 min, 46.635 sec
 * ratio c/w:    39.995 speedup
 analytical hessian:
 * wall-time:     0 d,  0 h,  0 min,  4.881 sec
 *  cpu-time:     0 d,  0 h,  2 min, 48.345 sec
 * ratio c/w:    34.489 speedup

