66
 energy: -110.648200260220 gnorm: 0.000059614883 xtb: 6.7.1 (edcfbbe)
O           -0.29002315237891        4.31156339503762       -1.73810721983372
S           -0.38132398821645        3.76604542274850       -0.40936868411598
O           -0.57304096343066        4.68326010346115        0.68276684030166
C            1.06550792417850        2.73852519495022       -0.11490383849069
C            1.11542371741322        2.01850571995538        1.06497367705056
C            2.07793993909584        1.04045907372221        1.22206194193603
C            2.98033641507304        0.78345214226663        0.19008953752677
N            3.88058084806475       -0.29452496439066        0.30890810698332
C            3.39201191275535       -1.60502041905363        0.30753535161767
C            2.03825689840386       -1.89464212247516        0.19122298661423
C            1.58967808859292       -3.20721420874016        0.18435333496501
C            2.48803183620865       -4.24983611393346        0.28422963908212
C            3.84555293556949       -3.97798806470478        0.37528242647228
C            4.29797159997286       -2.67157386079877        0.38064406227611
O            5.65565833874438       -2.48209465030245        0.44568712625850
C            6.12025883832085       -1.19070835236255        0.38893731892874
C            7.49069444929052       -1.01273495904522        0.41563886468622
C            8.03086701256577        0.26495161150428        0.38983544812247
C            7.19142758528572        1.35962555735083        0.35018996048994
C            5.81567370294995        1.18701882950450        0.32099751051391
C            5.26158983913074       -0.08600103979583        0.32188887243132
C            2.95448202748330        1.55370028252078       -0.97032575374176
C            1.98596227575015        2.52944197538290       -1.12358833447346
C           -1.66786792107424        2.51325012359525       -0.33780429501938
C           -2.86583472206976        2.79974246559504        0.30497371760039
C           -3.84672759995675        1.83536389019198        0.43520257439516
C           -3.58047677059757        0.56619943870341       -0.06653063318635
C           -2.36215797825655        0.28210334244263       -0.73574654679003
C           -1.40397296896196        1.27363493098241       -0.88102078705775
C           -2.41943225805206       -1.09812240836545       -1.12346874831341
C           -1.52412977773122       -1.94934315657815       -1.75910699293063
C           -1.88905296579465       -3.26720646803110       -1.94602172959231
C           -3.12223938689188       -3.74000415682103       -1.50037386433751
C           -4.02756187775650       -2.91246092308231       -0.86422170633722
C           -3.67331105990522       -1.58249322122413       -0.68667018984532
N           -4.36270031723358       -0.56422854858163       -0.05560856646990
C           -5.64528077000823       -0.67391407941765        0.50921941940737
C           -5.86670624305406       -0.27510870218379        1.82333556140180
C           -7.13164297496774       -0.38310908141227        2.37154649207051
C           -8.17657020408475       -0.89605287396238        1.62113806443739
C           -7.95495844973873       -1.29832025990412        0.31449826441168
C           -6.69578879879358       -1.18519552584999       -0.24573848634125
H            0.39133284801302        2.22473714647995        1.83775822830099
H            2.12488750344181        0.45023959368282        2.12480680597178
H            1.32357249305337       -1.09117790133920        0.10224456548197
H            0.53119263470302       -3.39947239082806        0.09524614566885
H            2.14577199575373       -5.27257405091840        0.28320089050481
H            4.57421698278934       -4.77021503786318        0.43863807190815
H            8.11913305859140       -1.88761979574007        0.46243009805055
H            9.10138143130617        0.39387320429743        0.41033147306155
H            7.59718660891821        2.35938298982670        0.34575033170695
H            5.16715676669741        2.04914700947256        0.30674198453467
H            3.66779843163702        1.35680457859813       -1.75675843332373
H            1.90540961550714        3.11400939952911       -2.02681586265144
H           -3.00211718044907        3.79245576698511        0.70334545266798
H           -4.78706855387320        2.06259192864392        0.91279324597037
H           -0.47712626696652        1.08420251818133       -1.39945379250205
H           -0.56346441668237       -1.58580788590634       -2.09080327657103
H           -1.20866898271057       -3.94691082250149       -2.43655101294913
H           -3.37397299949502       -4.77917266829046       -1.65107766711323
H           -4.97209789906043       -3.29274169422725       -0.50619739915794
H           -5.04428130556460        0.10418286877185        2.41113712688982
H           -7.29967659187153       -0.07238272992987        3.39182604679075
H           -9.16158844854839       -0.98226475936734        2.05380361553581
H           -8.76800252196223       -1.69512962921270       -0.27479588702695
H           -6.52187809024263       -1.47832057123509       -1.27026181597426
