86
 energy: -124.550733731269 gnorm: 0.000053327606 xtb: 6.7.1 (edcfbbe)
C            8.65687554285222       -3.43411349634978       -0.81363581841790
C            8.88664548819344       -2.65586642181216        0.48205080153961
N            9.25295326345406       -1.28656252197840        0.22889489998511
C           10.53094864527107       -0.81908829848313        0.03847704902389
C           11.74230588343617       -1.49622072390787        0.09488266381396
C           12.89961243324110       -0.77506787527150       -0.12775476063724
C           12.86539910985598        0.59113580020556       -0.40255206461877
C           11.66613210961221        1.27214242081296       -0.46380491605235
C           10.48790413399230        0.56897501442207       -0.24439578381130
C            9.10275264426187        0.93801603339334       -0.23817536353127
C            8.42221277775370        2.13197980615681       -0.44566301735604
C            7.04678240035633        2.13786490903136       -0.36502789426295
C            6.32113561747060        0.96798675246920       -0.08985866874527
C            4.85639130103169        1.01069164238445       -0.01843803299604
C            4.19552423205599        2.07507656232879        0.59886119366941
C            2.82210606945733        2.10491526719269        0.67534791777507
C            2.03286369913764        1.07929160517894        0.13030835972068
C            0.60258715209177        1.16743280273446        0.24586737948301
C           -0.30486188866510        0.28026501212540       -0.23523662512482
C           -1.72379364146935        0.36502476298744       -0.11658380631144
C           -2.39916901303243        1.38468619048022        0.59079080358352
C           -3.76037329479862        1.42574924094139        0.66412406123647
C           -4.57383811360282        0.43523988343317        0.04732873623466
C           -5.97726546334264        0.43822004462898        0.15590172630377
C           -6.73715471336783       -0.79379386169879       -0.07010193508757
C           -7.88022746222613       -0.73933528565008       -0.93125745958118
C           -7.95713145400629        0.22190244828602       -1.95928567942638
C           -9.06170447936849        0.30250439210323       -2.77640275394654
C          -10.13654520030812       -0.55864889151737       -2.59507950652098
C          -10.09101135744795       -1.50027730572687       -1.57536970186593
C           -8.98668651134732       -1.59496524612134       -0.75792005659237
C           -6.32982030431234       -1.99316434250534        0.59616776628502
C           -6.59408921494770       -3.26940156575505        0.05694736059298
C           -6.16356883932422       -4.41144758404345        0.69442439581770
C           -5.46178881146647       -4.33150450393095        1.89053949232334
C           -5.17949897951156       -3.08436769993825        2.43339414915550
C           -5.59621642904901       -1.93607216237396        1.79930846983502
C           -6.73263631996395        1.62396454486749        0.49819226968439
C           -7.91861411201902        1.51928058768525        1.24161475227384
C           -8.66135039849160        2.63785319390632        1.55314154661593
C           -8.25597598208195        3.89257481556245        1.12039876965844
C           -7.09994961074250        4.01287061696764        0.36313155823698
C           -6.34625295533832        2.89927816504143        0.05609546637158
C           -3.88849680912303       -0.60336261323867       -0.64181137117387
C           -2.52801199814275       -0.62649537535691       -0.72339482472128
C            2.70397983535637        0.01820848808702       -0.49590452325236
C            4.07815384807212       -0.01443916733033       -0.56226511279812
C            6.99156257809098       -0.23381134797545        0.11463631130568
C            8.37565482938930       -0.24409941412745        0.04654046627721
H            9.56255641680703       -3.44023631697529       -1.41587181318674
H            8.37799922292023       -4.46001779766653       -0.58785467572856
H            7.86119494154883       -2.97324390361151       -1.39454509215563
H            9.68527612688227       -3.12387838742958        1.06361365807705
H            7.97743872734010       -2.66229140314149        1.08946247222280
H           11.78942503972861       -2.55476225351095        0.30217107215541
H           13.85371123217823       -1.28121022321303       -0.08995871929487
H           13.79280765356530        1.11915857358615       -0.57125733524452
H           11.63997415601315        2.33040521232680       -0.67887131834716
H            8.96437007603323        3.03931261719405       -0.66869302475292
H            6.50632155794184        3.05596765021655       -0.54350766364209
H            4.77340154035400        2.87255560225285        1.04376820690503
H            2.33488323076421        2.93503789658772        1.16871758350256
H            0.24880561936710        2.04351050737620        0.77336834653766
H            0.05132433732020       -0.58896480036331       -0.77320624751300
H           -1.82689705449111        2.14397294282737        1.10219535486140
H           -4.23744430439901        2.19512212255829        1.25349041904680
H           -7.11884647465788        0.88350740000335       -2.12080845791025
H           -9.09071209392106        1.03961121930035       -3.56641846616899
H          -11.00339712560868       -0.49090968738257       -3.23558961837415
H          -10.93235528648367       -2.15985099810355       -1.41501925170897
H           -8.98388611160725       -2.30161458192106        0.05906660160850
H           -7.09906777850983       -3.34465221338203       -0.89500892030736
H           -6.36720033647683       -5.37772985305912        0.25457622448665
H           -5.13106166856762       -5.23060349180904        2.38892091639851
H           -4.63054611054080       -3.01365640508980        3.36180858795334
H           -5.38531342812918       -0.97229175786144        2.23909817951103
H           -8.23465306026820        0.54734439778233        1.59254301597104
H           -9.56393425279047        2.53563266728613        2.13874505731007
H           -8.84106377133760        4.76736148243462        1.36319329061412
H           -6.78902891511999        4.98410501813638        0.00446671459730
H           -5.47050741535067        2.99944535119141       -0.56878350906653
H           -4.46884442200747       -1.36712815367318       -1.13798256951318
H           -2.04210906929707       -1.42091418075047       -1.27395218954511
H            2.14020601195965       -0.79004013950872       -0.93619981518718
H            4.56566077734987       -0.83734820958726       -1.06569861786790
H            6.43377237365949       -1.12888097980945        0.34460760327186
