57
 energy: -93.041733311599 gnorm: 0.000169126472 xtb: 6.7.1 (edcfbbe)
C           -6.72379432457987       -3.74294326798564       -0.15193351170868
O           -5.34679844782932       -4.02926757576298       -0.19710614387992
C           -4.46049983928443       -3.00434872943987       -0.15218171082160
C           -3.10700058314893       -3.38632322570293       -0.21225944180293
C           -2.09040182211126       -2.46040083984447       -0.16471905931369
C           -2.43160579372951       -1.11704302251680       -0.04293508434776
C           -3.79147722936234       -0.71707888790753       -0.02514473907497
C           -4.80888466829743       -1.65916193584489       -0.07100543344128
C           -3.79125270572777        0.71841803266503        0.02640072250829
C           -4.80836247798280        1.66081758224578        0.07235482187172
C           -4.45954993264108        3.00589319925410        0.15350711971334
O           -5.34552850459919        4.03109114139274        0.19852355797939
C           -6.72261696585702        3.74519348309911        0.15349580900697
C           -3.10592882442091        3.38745100048156        0.21345542426213
C           -2.08962131163826        2.46121022352086        0.16581855022049
C           -2.43125511453826        1.11796084615926        0.04406912153273
N           -1.62469754987881        0.00033276215541        0.00052924372467
C           -0.23827448749410        0.00012160061653        0.00046440346696
C            0.48213908377291       -0.90402493898027        0.80686096788991
C            1.84556036472546       -0.90206179399237        0.80913328153294
C            2.59396498685004       -0.00031675729283        0.00034130586744
C            4.01307596927795       -0.00053592995921        0.00028589145312
C            4.78872912468237        1.18841083000626       -0.24540346988663
C            4.21239979520374        2.45868512121681       -0.38136353114631
N            3.81257404395047        3.53606465197305       -0.46543120143211
C            6.17967590378632        1.13414078713735       -0.22801992215773
C            7.01617227594898        2.35379567866099       -0.45022678598145
N            6.83158707879790       -0.00094068902667        0.00014559900316
C            6.17935418572688       -1.13582896169680        0.22838707147028
C            7.01551202950285       -2.35574417103192        0.45055404501072
C            4.78839173291859       -1.18970379001286        0.24590902772803
C            4.21168844083581       -2.45984621565798        0.38189306823723
N            3.81164138532566       -3.53707585428019        0.46618618063608
C            1.84576612269602        0.90165995300399       -0.80839217043961
C            0.48234220547975        0.90404012712342       -0.80599607723615
H           -7.03603375394134       -3.13701967817414       -1.00850314737900
H           -7.22667002588479       -4.70764613718572       -0.19210291644851
H           -6.99701245078714       -3.23128406609462        0.77641424341135
H           -2.89025719696178       -4.43789200151144       -0.30432961129165
H           -1.06149378326457       -2.77429039116357       -0.23753240600638
H           -5.83756665203993       -1.33777291674866       -0.05053450294170
H           -5.83714648849486        1.33974985692275        0.05196824032316
H           -6.99609347279352        3.23362271139541       -0.77482462556118
H           -7.22518747265862        4.71005313938497        0.19372110774128
H           -7.03495534386150        3.13936508591134        1.01009619321487
H           -2.88884886583090        4.43895119581720        0.30550031976078
H           -1.06060920136709        2.77478121239669        0.23853093608018
H           -0.05937159629574       -1.55340396763563        1.47856961761103
H            2.36824824280683       -1.55839444069654        1.48609847780326
H            8.06753077389559        2.08271493171496       -0.41205967789342
H            6.80741980006045        3.10135046844489        0.31430478586810
H            6.79110767022908        2.80090179436822       -1.41757559968249
H            6.80643783746500       -3.10324464558427       -0.31393418530265
H            6.79038665563795       -2.80272433165963        1.41794092811357
H            8.06694974973587       -2.08499176738986        0.41227810284471
H            2.36859726884317        1.55783315519553       -1.48539813783736
H           -0.05902280196509        1.55358845431562       -1.47765828491959
