$hessian                                                                        
        0.5258289980   0.0216067906   0.0012396128  -0.0883384380   0.0536156383
        0.0048779514   0.0081426017  -0.0289675442  -0.0024631260  -0.0001199319
       -0.0021583633  -0.0001515154   0.0006804796  -0.0003541749  -0.0000196090
        0.0009823756  -0.0001702291  -0.0000378943  -0.0007224692  -0.0010177832
       -0.0000511983  -0.0032821021  -0.0017488981  -0.0000917917  -0.0000879980
       -0.0003783251  -0.0000447882  -0.0001569652   0.0003194768   0.0000154804
       -0.0000113626  -0.0001863655  -0.0000048302  -0.0000670968   0.0000465310
       -0.0000034245   0.0000445685   0.0000121924   0.0000014122  -0.0001018110
        0.0000837347   0.0000078274   0.0000446165  -0.0002338095  -0.0000320050
       -0.0001250917   0.0002317596   0.0000375179  -0.0001415719  -0.0007131089
       -0.0000645574   0.0001955001   0.0000027096   0.0000036400  -0.0001076983
        0.0000656517  -0.0000162425   0.0001587863   0.0001384105  -0.0000795936
       -0.0003630451  -0.0000063362  -0.0000016027   0.0003749887  -0.0000374866
        0.0000089379  -0.0001570245  -0.0001176547   0.0000586901  -0.0000607589
        0.0000549378  -0.0000129022   0.0000187090  -0.0000306674   0.0000055517
        0.0000356023  -0.0001006017   0.0000284349   0.0000027523   0.0000010905
       -0.0000054465   0.0001650183   0.0000605306  -0.0000088259  -0.0000136570
        0.0000313384  -0.0000231427  -0.0000010516  -0.0000042569   0.0000049230
       -0.0001407009   0.0002079883  -0.0000722763  -0.0001224426  -0.0001796792
        0.0000219613   0.0000744865   0.0001272831  -0.0000113604   0.0001661958
       -0.0001280471   0.0000824048  -0.0001359083  -0.0000743215   0.0000432634
       -0.2427198852  -0.0867524410  -0.0016904568  -0.0945378413   0.0160154182
        0.0904615965  -0.1040951209   0.0323121753  -0.0918640406  -0.0013437240
       -0.0017097957  -0.0001323794   0.0000580815   0.0000585544   0.0000075582
        0.0000161236   0.0000865137   0.0000041910  -0.0000062538   0.0000145675
       -0.0000060073   0.0000019004   0.0000040956   0.0000002204  -0.0000013539
       -0.0000006611   0.0000090266  -0.0000009610   0.0000007569  -0.0000090919
        0.0000015881  -0.0000033553   0.0000015938  -0.0000195211  -0.0000113941
       -0.0000075964   0.0000026886  -0.0000221039  -0.0000202326  -0.0000031571
       -0.0000085819  -0.0000012282  -0.0000060193  -0.0000057897   0.0000020533
       -0.0000014268  -0.0000048084  -0.0000020457  -0.0000000508  -0.0000023034
        0.0000037437  -0.0000043303   0.0000027469   0.0000058813  -0.0000032302
       -0.0000017862  -0.0000062133  -0.0000063676   0.0000074026  -0.0000014400
        0.0000025609   0.0000020322  -0.0000047566   0.0000077460   0.0000203466
        0.0000081479
        0.0216067906   0.4211206453  -0.0056035650   0.0379103329  -0.2011110182
       -0.0128038719  -0.0128300227  -0.0355918104  -0.0022965627   0.0020116919
        0.0024518443   0.0003565282  -0.0004344244  -0.0015491358  -0.0002235906
       -0.0003841417   0.0008679197   0.0000723826   0.0007796532  -0.0021069648
       -0.0002754470  -0.0035997101  -0.0012124853  -0.0002223575  -0.0003397443
        0.0000139489   0.0000202891   0.0000957868   0.0000111868  -0.0000024045
        0.0004037434  -0.0003644800  -0.0000294811  -0.0003260051   0.0003765108
        0.0000423899   0.0001025618  -0.0000103535  -0.0000010276  -0.0002751344
        0.0000345973  -0.0000030318  -0.0000093242  -0.0002738285   0.0000167470
       -0.0000789066   0.0001436823   0.0000479650  -0.0001017892  -0.0002819553
       -0.0000680589   0.0001714397  -0.0000001341   0.0000356975  -0.0001207129
        0.0001718994  -0.0000888721   0.0001453173   0.0001059906  -0.0000758858
       -0.0001809671   0.0000087136  -0.0000017650   0.0001263899   0.0000864527
       -0.0000028977  -0.0000941176   0.0000458809   0.0000369590   0.0000124646
       -0.0002560168   0.0000056412  -0.0000125012   0.0001802712  -0.0000073135
       -0.0002129790  -0.0002811611   0.0000369439   0.0000287849   0.0000170046
       -0.0000098598   0.0004305068  -0.0001409221   0.0000378222  -0.0000987618
        0.0004390376  -0.0000844801   0.0000398707  -0.0000216536   0.0000122390
       -0.0001379701  -0.0002322385  -0.0000072922   0.0001380510   0.0005347413
       -0.0000078755  -0.0001178143  -0.0004115869   0.0000118674   0.0001122053
       -0.0001616035   0.0000514306  -0.0001097751  -0.0001036442   0.0000420175
       -0.0932929565  -0.0788357868  -0.0002550706   0.0162578767  -0.0448079522
       -0.0316241512   0.0328221266  -0.0580090322   0.0529084937  -0.0001617239
       -0.0007299543  -0.0000413566   0.0000967898  -0.0000158140  -0.0000197027
       -0.0002743878  -0.0000031176  -0.0000032577  -0.0000425753  -0.0000291750
       -0.0000023301  -0.0000111179   0.0000025819  -0.0000000604  -0.0000156543
       -0.0000314245   0.0000068513  -0.0000148840  -0.0000303802  -0.0000113021
       -0.0000025200   0.0000048806  -0.0000077614   0.0000269559  -0.0000247889
       -0.0000057457  -0.0000396121   0.0000034378   0.0000396433   0.0000191749
       -0.0000072786  -0.0000166405   0.0000150816  -0.0000156065   0.0000009603
       -0.0000088882   0.0000094530   0.0000153329  -0.0000071895   0.0000083248
       -0.0000219047  -0.0000050261  -0.0000069295  -0.0000244419  -0.0000022732
       -0.0000000542   0.0000284127   0.0000151535   0.0000143994  -0.0000006086
        0.0000020075   0.0000112647   0.0000267897  -0.0000271471  -0.0000063824
       -0.0000034293
        0.0012396128  -0.0056035650   0.4869704522   0.0035121173  -0.0128068721
       -0.0482081937  -0.0011340438  -0.0021384224  -0.0043875283  -0.0000092214
        0.0002984161  -0.0022734932   0.0000318859  -0.0000991364   0.0005637023
       -0.0000597154  -0.0000186684   0.0000762064   0.0000490907  -0.0003083425
        0.0013887758  -0.0001796421  -0.0002362595   0.0018635963  -0.0000361733
        0.0000628276  -0.0001727497   0.0000182866  -0.0000384322   0.0000026058
        0.0000439313  -0.0000150545   0.0000907211  -0.0000261390   0.0000387714
       -0.0000551130   0.0000017535  -0.0000050465   0.0000436353  -0.0000137480
        0.0000054988  -0.0000343760  -0.0000139327  -0.0000052992  -0.0000406070
       -0.0000006590  -0.0000250108   0.0000247014  -0.0000450877   0.0001146696
       -0.0002734571   0.0000948208  -0.0000087224  -0.0000058891  -0.0000425947
        0.0000047508   0.0000110286  -0.0000003142   0.0000034481  -0.0000020248
       -0.0000015531   0.0000337087  -0.0000257794  -0.0000131655  -0.0000070270
       -0.0000093488   0.0000164170   0.0000112791  -0.0000049361   0.0000197079
       -0.0000279963   0.0000082709  -0.0000046275   0.0000214757  -0.0000114561
        0.0000343081  -0.0000201848   0.0000094739  -0.0000001852   0.0000016853
        0.0000017553  -0.0001054759   0.0000089952  -0.0000121397   0.0000266597
        0.0000109827   0.0000104151  -0.0000006846  -0.0000001059  -0.0000008242
        0.0000194296  -0.0000026619   0.0000020199   0.0000139182   0.0000192824
        0.0000129408   0.0000035950  -0.0000131050  -0.0000315762   0.0000495923
       -0.0000219341   0.0000152276  -0.0000264406  -0.0000239746   0.0000183207
       -0.0022089619  -0.0003994663  -0.0446672970   0.0912545191  -0.0308723368
       -0.2066814511  -0.0925631145   0.0520393124  -0.1843207034   0.0000977734
        0.0000560116  -0.0000963941  -0.0000229593  -0.0000472854   0.0002525178
       -0.0000105383   0.0000005937  -0.0000535992  -0.0000029807  -0.0000013962
       -0.0000094409  -0.0000006824  -0.0000003454   0.0000006793  -0.0000006258
       -0.0000013400  -0.0000052010  -0.0000008368  -0.0000019168  -0.0000063282
       -0.0000014641  -0.0000009734   0.0000078531   0.0000090271  -0.0000142800
        0.0000341576  -0.0000029835   0.0000076230  -0.0000146395  -0.0000109797
        0.0000076389   0.0000016555   0.0000027925   0.0000017322   0.0000003394
       -0.0000003118   0.0000002307   0.0000018163  -0.0000005841   0.0000024219
       -0.0000024496   0.0000000015  -0.0000044224  -0.0000018820  -0.0000005766
        0.0000014701   0.0000000376   0.0000036751  -0.0000018370   0.0000012092
        0.0000028203   0.0000071870   0.0000024021  -0.0000047323   0.0000114081
       -0.0000076389
       -0.0883384380   0.0379103329   0.0035121173   0.3480517439   0.0574774518
        0.0009437402  -0.2108591448  -0.0705724176  -0.0036157189  -0.0499633541
       -0.0292586957  -0.0019019003  -0.0054609294   0.0062408418   0.0008283123
       -0.0027297940  -0.0027416868  -0.0004027218   0.0009606781  -0.0002303670
        0.0000950490   0.0071923819  -0.0131427394  -0.0011191112  -0.0005609061
        0.0024277803   0.0001985318   0.0004362109  -0.0019451198  -0.0000494842
       -0.0017530082   0.0023637431   0.0000289744   0.0019193328  -0.0018283015
       -0.0000313047  -0.0007442934  -0.0001305953  -0.0000254363   0.0018095642
       -0.0007676107  -0.0000199844  -0.0003611674   0.0026088651   0.0002614878
       -0.0003793069  -0.0024632525  -0.0003075231   0.0006602212   0.0031903696
        0.0005751456  -0.0004787028   0.0000006828  -0.0001894664   0.0008386135
       -0.0009057358   0.0003236365  -0.0013263799  -0.0012993376   0.0007413161
        0.0027377762   0.0000924093   0.0000245220  -0.0027956389  -0.0000815068
       -0.0000504229   0.0014060483   0.0003879507  -0.0004663641   0.0003870098
        0.0006684487   0.0000369070  -0.0000451075  -0.0005690618   0.0000412292
        0.0007886139   0.0016455162  -0.0004513238  -0.0001218900  -0.0001323191
        0.0000888810  -0.0033468539   0.0001239357  -0.0000804188   0.0006877448
       -0.0017972804   0.0006270917  -0.0001387127   0.0001857892  -0.0000997006
        0.0014760326  -0.0003005476   0.0004728768   0.0002924933  -0.0009387767
       -0.0001026241   0.0000588964   0.0008150778   0.0000427736  -0.0012935360
        0.0013183870  -0.0006705807   0.0009283896   0.0007277312  -0.0003912190
        0.0048678674  -0.0298574876  -0.0024265926  -0.0034083949   0.0207426582
        0.0032173955  -0.0038710071   0.0223978303   0.0004089064   0.0020781683
       -0.0007973103   0.0000228489  -0.0012601921  -0.0014233722  -0.0001144906
        0.0009810727  -0.0003674568  -0.0000531080   0.0001228551  -0.0000158813
        0.0000428152   0.0000317346  -0.0000381869   0.0000006297   0.0000616937
        0.0001109190  -0.0001014907   0.0000540023   0.0000950430   0.0001227614
        0.0000008107   0.0000099700   0.0000210768   0.0001216942   0.0000771931
        0.0000298752   0.0000767123   0.0002616833   0.0000498760  -0.0000320173
        0.0001922137  -0.0000018076   0.0000445589   0.0001185347  -0.0000407391
        0.0000410054   0.0000160187  -0.0000123784   0.0000202457  -0.0000119683
        0.0000102337   0.0000507427  -0.0000141690  -0.0000069451   0.0000312262
        0.0000143597  -0.0000040364   0.0000697531  -0.0001789563   0.0000206355
       -0.0000244840  -0.0001346627   0.0000001949   0.0000073649  -0.0002769333
       -0.0000529478
        0.0536156383  -0.2011110182  -0.0128068721   0.0574774518   0.4778225904
        0.0327393467  -0.0978965792  -0.1378472286  -0.0072208788  -0.0062718973
        0.0038261232  -0.0000470151   0.0014203192  -0.0005186889  -0.0006409640
       -0.0015485760  -0.0008763160  -0.0001852046   0.0037181084  -0.0054762534
       -0.0007236756  -0.0317182255  -0.0496169628  -0.0040365440  -0.0012095695
        0.0000967474  -0.0000585849  -0.0001400892  -0.0008865579  -0.0000013982
       -0.0012015770   0.0017409743   0.0000603117   0.0013787255  -0.0014301157
       -0.0000470550  -0.0004956795  -0.0000533707  -0.0000118581   0.0009668408
       -0.0003476674   0.0000055124  -0.0002636322   0.0013739505   0.0001439307
       -0.0005665111  -0.0014802060  -0.0001983229   0.0004911955   0.0009471269
        0.0003732838  -0.0003453736   0.0000096799  -0.0000903938   0.0005182267
       -0.0006812559   0.0003078671  -0.0008406388  -0.0008317851   0.0004835612
        0.0015614239   0.0000702858   0.0000051805  -0.0015384427  -0.0001168788
       -0.0000411882   0.0008498956  -0.0000036771  -0.0002610205   0.0001853924
        0.0007914744  -0.0000018038   0.0000183253  -0.0006161134   0.0000510058
        0.0008786341   0.0012113067  -0.0003266784  -0.0001054396  -0.0001186357
        0.0000673217  -0.0027762791   0.0002027177  -0.0000876275   0.0007396883
       -0.0014601208   0.0004890709  -0.0001305595   0.0001706899  -0.0000792513
        0.0009531258   0.0002572402   0.0002432642  -0.0000419395  -0.0013047721
       -0.0000393723   0.0002276701   0.0010261506   0.0000186762  -0.0007760806
        0.0008804909  -0.0004077160   0.0005595079   0.0005205028  -0.0002525052
       -0.0029173984  -0.0274041563  -0.0021350206   0.0120906797  -0.0272660519
       -0.0133290279   0.0132730517  -0.0331560712   0.0075340864  -0.0004931549
       -0.0006772543   0.0001597108   0.0005002081   0.0000299400   0.0000305612
       -0.0004995627   0.0020884130   0.0003943004  -0.0000035705   0.0000584399
        0.0000271165   0.0000300234  -0.0000404037  -0.0000006420   0.0000354010
        0.0000970520  -0.0000515445   0.0000304471   0.0000897749   0.0000683386
       -0.0000154088  -0.0000098598   0.0000096996   0.0000475287   0.0000124907
        0.0000086435   0.0000882063   0.0002019401  -0.0000590614  -0.0000427206
        0.0001521356   0.0000000357   0.0000229095   0.0000911152  -0.0000309450
        0.0000317918   0.0000032607  -0.0000163176   0.0000164879  -0.0000161664
        0.0000190178   0.0000320815  -0.0000025815   0.0000112439   0.0000173541
        0.0000100472  -0.0000231634   0.0000420253  -0.0001385593   0.0000143092
       -0.0000166399  -0.0001065347  -0.0000207154   0.0000371798  -0.0001873970
       -0.0000330284
        0.0048779514  -0.0128038719  -0.0482081937   0.0009437402   0.0327393467
        0.0642091440  -0.0057363476  -0.0073854044  -0.0355135113   0.0006847449
        0.0003766397   0.0064497514   0.0002616028  -0.0007723604   0.0056762886
       -0.0000539906   0.0000414233   0.0001035240   0.0003031482  -0.0006638662
        0.0042735354  -0.0027269420  -0.0041945549   0.0031007146  -0.0000470573
       -0.0001554426   0.0005261040  -0.0000614806   0.0000254095   0.0000316598
       -0.0000452738   0.0000632416  -0.0000972082   0.0000646014  -0.0000612548
        0.0000604805  -0.0000293943  -0.0000020304  -0.0000498526   0.0000083684
       -0.0000013346   0.0000233622  -0.0000105152   0.0000085909  -0.0000254093
       -0.0000831683   0.0000031327  -0.0002744883  -0.0000261511  -0.0000482082
       -0.0006792057  -0.0000528812   0.0000012422  -0.0000787500   0.0001121520
       -0.0000602973   0.0000160044   0.0000287191  -0.0000135753  -0.0000593069
        0.0000147416  -0.0001141356   0.0000863384   0.0000307416   0.0000207378
        0.0000446922  -0.0000098878  -0.0000675116   0.0000089972  -0.0000028367
        0.0000702293  -0.0000005996   0.0000062982  -0.0000557663   0.0000110688
        0.0001407790   0.0000114913  -0.0000401045  -0.0000098039  -0.0000171732
        0.0000046411  -0.0002570045   0.0000128210   0.0000350424   0.0001315149
       -0.0000189159  -0.0000176702  -0.0000119834   0.0000155648  -0.0000055175
       -0.0000167004   0.0000714408  -0.0000068651  -0.0000199718  -0.0000994431
        0.0000049265   0.0000204748   0.0000719748   0.0000196793  -0.0000964803
        0.0000482412  -0.0000449079   0.0000382025   0.0000782738   0.0000321423
       -0.0003617714  -0.0015694736   0.0008574548   0.0059593396  -0.0302415836
       -0.0009010620  -0.0038214641   0.0241055124   0.0052433401  -0.0001875135
        0.0001144258  -0.0014068239   0.0001176500   0.0001308689  -0.0006991124
       -0.0000706724   0.0003632268  -0.0026852436  -0.0000003055   0.0000087389
       -0.0000447909   0.0000024963  -0.0000028199   0.0000001185  -0.0000022242
        0.0000068722   0.0000062672   0.0000043043   0.0000016867   0.0000120379
       -0.0000014546  -0.0000019998  -0.0000029552   0.0000030814  -0.0000038387
       -0.0000148154  -0.0000145219   0.0000103870   0.0000293740   0.0000081528
        0.0000001916  -0.0000090639   0.0000004931   0.0000048691  -0.0000020289
        0.0000001370   0.0000013867  -0.0000005680  -0.0000003780  -0.0000032849
        0.0000025897  -0.0000000602   0.0000025614   0.0000005670  -0.0000002315
       -0.0000005925   0.0000004979   0.0000003397  -0.0000069330   0.0000007391
       -0.0000079382  -0.0000223449  -0.0000168667   0.0000026313  -0.0000225113
        0.0000138383
        0.0081426017  -0.0128300227  -0.0011340438  -0.2108591448  -0.0978965792
       -0.0057363476   0.6239064972  -0.0140208068  -0.0098839375  -0.2509919345
        0.0969043226   0.0142732413  -0.0588145420  -0.0589761275  -0.0043017505
       -0.0133980779   0.0347483294   0.0040628749   0.0338239181  -0.0024239461
       -0.0004299668  -0.1055731789   0.0316578619   0.0022235963   0.0002754372
       -0.0082113152  -0.0004516692  -0.0013570510   0.0014113333   0.0000761877
        0.0046578006  -0.0004285090   0.0002883140  -0.0020521221   0.0017848637
        0.0000380719   0.0006949226   0.0000832632   0.0000212880  -0.0049209876
        0.0017638405   0.0000912068   0.0005781412  -0.0054061298  -0.0002844382
       -0.0018573361   0.0062490701  -0.0001463115  -0.0004887007  -0.0098628983
       -0.0014607782  -0.0027331011   0.0004405219   0.0005349692  -0.0002332915
        0.0000942006  -0.0005180967   0.0009478994   0.0011393770  -0.0007111864
       -0.0028732954  -0.0000059688  -0.0000522255   0.0033312188   0.0000226664
        0.0000019946  -0.0017640877  -0.0010314853   0.0006272586  -0.0006367137
       -0.0000374679  -0.0001225879   0.0001906218   0.0001676886   0.0000173539
       -0.0003048625  -0.0018027325   0.0004209966   0.0001051394   0.0000420250
       -0.0000789096   0.0028893759  -0.0001313024   0.0000459540  -0.0002017048
        0.0019451758  -0.0005230360   0.0001233238  -0.0000818560   0.0000856257
       -0.0018023157   0.0009333599  -0.0005999425  -0.0005185721   0.0003515858
        0.0001509761   0.0000878855  -0.0004231033  -0.0000455666   0.0008498394
       -0.0012541103   0.0007140754  -0.0001470747   0.0001588259   0.0003202628
       -0.0002922353  -0.0002396260  -0.0000002863   0.0006024566   0.0016391540
        0.0014336444   0.0006875466   0.0018685704  -0.0011394614  -0.0065563285
        0.0055451808  -0.0002134697  -0.0017438374  -0.0027291318  -0.0000921432
       -0.0110086091   0.0293479501   0.0025547819  -0.0001711851  -0.0001968992
       -0.0000539600  -0.0000395544   0.0000444459  -0.0000009678  -0.0000872834
       -0.0001125592   0.0000739015  -0.0000814539  -0.0000959505  -0.0000949026
       -0.0000454503  -0.0000244763  -0.0001168614  -0.0000005562   0.0000001878
       -0.0000203166  -0.0001527456  -0.0002533091   0.0000666063   0.0000481148
       -0.0001027846   0.0000781052  -0.0000371903  -0.0001073999   0.0000276136
       -0.0000498503  -0.0000207090   0.0000134582  -0.0000313014   0.0000066435
       -0.0000156164  -0.0000515869   0.0000157013  -0.0000130257  -0.0000329673
       -0.0000067740   0.0000202154  -0.0000470066   0.0001440743  -0.0000178616
        0.0000317532   0.0000562264  -0.0000594130  -0.0000172570   0.0001475344
        0.0000565059
       -0.0289675442  -0.0355918104  -0.0021384224  -0.0705724176  -0.1378472286
       -0.0073854044  -0.0140208068   0.6130931304   0.0405783048   0.0204865201
       -0.1118228977  -0.0070683540  -0.0007774246   0.0436181233   0.0045909779
        0.0244006383  -0.0208001773  -0.0020068002  -0.0500387431  -0.0583518389
       -0.0041301539   0.0943159807  -0.2694773521  -0.0178987014  -0.0035400251
        0.0066293144  -0.0003068370   0.0014285910   0.0009207581  -0.0000571381
       -0.0002394739  -0.0034772427  -0.0002644047  -0.0015883190   0.0018403460
        0.0000770113   0.0006580757   0.0000947265   0.0000157077   0.0004822944
       -0.0005716217  -0.0000952474  -0.0001692466  -0.0001462609  -0.0001927964
       -0.0013124103  -0.0012248510   0.0008001695  -0.0023757678  -0.0021206974
       -0.0000353886   0.0043398498  -0.0001616967  -0.0001140002  -0.0010250104
        0.0014725756  -0.0003072100   0.0011214410   0.0010140512  -0.0006080143
       -0.0012102892  -0.0001605366   0.0000220327   0.0007188855   0.0001980091
        0.0001069826  -0.0004458715   0.0007067518   0.0000936127   0.0001178533
       -0.0016164131   0.0000779671  -0.0002189777   0.0011788641  -0.0001057567
       -0.0018064162  -0.0010868637   0.0003603354   0.0001519121   0.0002695953
       -0.0000885869   0.0039421453  -0.0002249185   0.0001447164  -0.0016420222
        0.0013690982  -0.0006182671   0.0001660580  -0.0003374573   0.0001050181
       -0.0005949195  -0.0009700338  -0.0000999004   0.0003675944   0.0021238247
        0.0000088046  -0.0004809695  -0.0015954242  -0.0000429316   0.0010429192
       -0.0010105611   0.0004342281  -0.0011898720  -0.0013821098   0.0002951278
        0.0004716052  -0.0071440646  -0.0006525543  -0.0004562062   0.0018913508
        0.0013594675  -0.0006132682   0.0019271657  -0.0011254090   0.0283943140
       -0.0109104693  -0.0015239993  -0.0038105200  -0.0018245775  -0.0009235834
        0.0048456335  -0.0080683242  -0.0014053572   0.0000943656  -0.0000221989
       -0.0000409393   0.0000021849   0.0000522427   0.0000016680  -0.0000304326
       -0.0001208380   0.0000872558  -0.0000232457  -0.0001106416  -0.0001086003
        0.0000768739   0.0000356953   0.0000575519  -0.0002077243  -0.0002635172
       -0.0000736492  -0.0001192903  -0.0003827263   0.0001694681   0.0000183082
       -0.0002619624  -0.0000730487  -0.0000298160  -0.0001175483   0.0000505190
       -0.0000133773   0.0000058086   0.0000162588   0.0000046892   0.0000248745
       -0.0000154618  -0.0000317397  -0.0000014000   0.0000169862  -0.0000152768
       -0.0000219767   0.0000020445  -0.0000750739   0.0001912538  -0.0000190056
       -0.0000053339   0.0001804700   0.0000888827  -0.0000009011   0.0003902084
       -0.0000351754
       -0.0024631260  -0.0022965627  -0.0043875283  -0.0036157189  -0.0072208788
       -0.0355135113  -0.0098839375   0.0405783048   0.1308664499   0.0056633698
       -0.0082906240  -0.0509109922   0.0011713168   0.0057132073  -0.0015907338
        0.0017614798  -0.0023856994  -0.0064558595  -0.0041346445  -0.0045563115
       -0.0017057185   0.0076996452  -0.0182415323  -0.0497194629  -0.0006405336
       -0.0000100167   0.0070604073   0.0001150693   0.0001279362  -0.0001003665
       -0.0003399571  -0.0002582017  -0.0007177332  -0.0000192349   0.0000161526
        0.0000651910   0.0000347966   0.0000171845  -0.0000002368   0.0003803893
       -0.0000553258   0.0000511446  -0.0000176486   0.0003116219  -0.0001936807
        0.0003689356  -0.0004774554   0.0001874927  -0.0001036730   0.0005492729
        0.0002753061   0.0005311427   0.0001540975   0.0000317746  -0.0001961029
        0.0000776856   0.0000994757   0.0001658214   0.0001447396  -0.0001251575
       -0.0002431736  -0.0000404124   0.0000300790   0.0001784490  -0.0000056333
        0.0000181463  -0.0000596284   0.0000313576   0.0000160450  -0.0000047267
       -0.0000978866   0.0000078005  -0.0000152135   0.0000797966  -0.0000173766
       -0.0001345783  -0.0000752612   0.0000354851   0.0000129809   0.0000173509
       -0.0000067680   0.0003692397   0.0000169922  -0.0000100429  -0.0001579461
        0.0000619983  -0.0000257812   0.0000138256  -0.0000239568   0.0000103896
       -0.0000629657  -0.0000097080  -0.0000300413  -0.0000083974   0.0000857204
        0.0000171415  -0.0000139401  -0.0000670769  -0.0000321207   0.0001797438
       -0.0001096299   0.0000131759  -0.0002247621  -0.0002166722   0.0000531340
        0.0000807160  -0.0005067749   0.0006039600  -0.0006956322  -0.0011956087
        0.0005147968   0.0006804695   0.0013448614   0.0005657698   0.0032004242
       -0.0012879807   0.0002555759  -0.0000415172  -0.0011766415   0.0084934049
        0.0004308729  -0.0008031590   0.0019715174   0.0000151751  -0.0000347249
        0.0003390595  -0.0000007381   0.0000065093   0.0000001639   0.0000149409
       -0.0000023942  -0.0000079433  -0.0000057972  -0.0000099920  -0.0000107106
        0.0000091361  -0.0000023235   0.0000691559  -0.0000415456   0.0000044230
       -0.0000561203   0.0000712714   0.0000483831  -0.0000340146  -0.0000089947
       -0.0000092653  -0.0000044851  -0.0000034758  -0.0000089557   0.0000037935
       -0.0000012331  -0.0000024505   0.0000003338   0.0000005644   0.0000028423
       -0.0000010206  -0.0000015225  -0.0000017044   0.0000022316  -0.0000008779
        0.0000003812  -0.0000027391  -0.0000057205   0.0000139038  -0.0000009301
        0.0000014699   0.0000240082   0.0000118559  -0.0000042819   0.0000520894
       -0.0000091819
       -0.0001199319   0.0020116919  -0.0000092214  -0.0499633541  -0.0062718973
        0.0006847449  -0.2509919345   0.0204865201   0.0056633698   0.6173219876
        0.0093383721  -0.0107495757  -0.2211280250  -0.0791173924  -0.0038354390
        0.0235247046  -0.0668019770  -0.0070616434  -0.0350519824  -0.0133128064
       -0.0007482018  -0.0083167259   0.0697670365   0.0066870889  -0.0058850275
        0.0003197021  -0.0001426433   0.0006699566  -0.0004507805  -0.0001041973
       -0.0052956473  -0.0010459262  -0.0004177743   0.0014047842  -0.0014033722
       -0.0000444716  -0.0003595487   0.0001093292  -0.0000000913   0.0058393625
       -0.0002670443   0.0000605565  -0.0005832202   0.0046390510   0.0000736617
        0.0069989316  -0.0067450819   0.0001239420   0.0033537945   0.0199296103
        0.0027678018   0.0024946895  -0.0005105146  -0.0008374255  -0.0013006097
        0.0007140534  -0.0003281288   0.0010974453   0.0003369433  -0.0000933573
       -0.0013518086   0.0000747834   0.0000475033   0.0011745749  -0.0000376599
       -0.0000115498  -0.0002727937  -0.0001577937   0.0001057021  -0.0000133434
        0.0002826551   0.0000151231  -0.0000282121  -0.0002410343  -0.0000111554
        0.0005607779   0.0001160106   0.0000091796  -0.0000502178  -0.0000872574
        0.0000011762  -0.0006868604   0.0000369044  -0.0000062276   0.0005755094
       -0.0002056182   0.0000139376  -0.0000775502   0.0001282878  -0.0000073168
       -0.0002338920   0.0002501431  -0.0001131204  -0.0001008078  -0.0005065500
       -0.0000261501   0.0000872512   0.0004265405   0.0000209170   0.0010961303
       -0.0002955335   0.0000314297  -0.0011210512  -0.0008736388   0.0003285231
       -0.0000684293   0.0010920220   0.0000971615   0.0004010584  -0.0000914330
        0.0003320156   0.0003954650  -0.0000011389  -0.0003148382  -0.0609386462
        0.0661283776   0.0089577089  -0.0236151437  -0.0184465492  -0.0012119801
        0.0003343302   0.0009425402   0.0000647787   0.0003043921  -0.0000982889
       -0.0000326649   0.0000068712   0.0000347361   0.0000045202   0.0001071319
        0.0000354369  -0.0000975524   0.0001014549   0.0000160470   0.0001051254
        0.0000886698   0.0000130304   0.0001713260  -0.0000250204  -0.0000083837
        0.0000272975  -0.0002288280  -0.0001517992  -0.0001538129  -0.0000179609
       -0.0000466057  -0.0000494149  -0.0000230029   0.0000090227  -0.0000053711
       -0.0000008864  -0.0000057887  -0.0000034755   0.0000007509  -0.0000041858
        0.0000063316  -0.0000045869   0.0000070519   0.0000071181  -0.0000040244
       -0.0000009682  -0.0000084447  -0.0000158754  -0.0000165717   0.0000022264
        0.0000030669   0.0000196527   0.0000246362  -0.0000681423  -0.0000619610
       -0.0000096578
       -0.0021583633   0.0024518443   0.0002984161  -0.0292586957   0.0038261232
        0.0003766397   0.0969043226  -0.1118228977  -0.0082906240   0.0093383721
        0.6629170725   0.0575320989  -0.1585067772  -0.1997559715  -0.0130146420
       -0.0098741719  -0.0624898054  -0.0057925134  -0.0106630998   0.0080766702
        0.0008328448   0.0268758089  -0.0097466162  -0.0009500333  -0.0025781973
       -0.0077389933  -0.0007403092  -0.0018304313   0.0024395445   0.0000826734
       -0.0024463018  -0.0009771298  -0.0001576050   0.0005818105  -0.0007209380
        0.0000041837  -0.0000324962   0.0000991861   0.0000059149   0.0011411289
        0.0017758140   0.0002181778   0.0010266917  -0.0016224017  -0.0001383549
        0.0041157955  -0.0004328316  -0.0000983317   0.0056166513   0.0001350030
       -0.0005356881  -0.0000692112  -0.0001308128  -0.0000779940  -0.0018361544
        0.0008718464  -0.0006085020   0.0028834619   0.0022547876  -0.0013043727
       -0.0069665739   0.0000701315  -0.0000137153   0.0078076272  -0.0000583806
       -0.0000203815  -0.0034292780  -0.0030879396   0.0013339269  -0.0012375014
        0.0016524197  -0.0002645372   0.0004609869  -0.0010100958   0.0001159805
        0.0021306129  -0.0024325917   0.0004498103  -0.0000254877  -0.0002960041
       -0.0000603247   0.0003420260   0.0000264935   0.0000557047   0.0021769743
        0.0023526115  -0.0005426262  -0.0000324157   0.0003104874   0.0000572269
       -0.0033656206   0.0032083448  -0.0012901734  -0.0013705945  -0.0017348414
        0.0003114962   0.0005870386   0.0010480077  -0.0001069604   0.0029075929
       -0.0023152991   0.0012229058  -0.0020317341  -0.0007548281   0.0009838339
        0.0000787147  -0.0002961350  -0.0000534429   0.0000563525   0.0002347496
       -0.0003227215   0.0001221554   0.0002980997   0.0003714323   0.0670708793
       -0.2862221963  -0.0289131450   0.0041192669   0.0047550290   0.0002527237
        0.0017592141  -0.0053888329  -0.0008098624   0.0000155173   0.0000966085
       -0.0001102284  -0.0000251787   0.0000170483   0.0000009650   0.0000398044