 Entering Gaussian System
 *********************************************
 Gaussian 98:
 frequency output generated by the xtb code
 *********************************************
                         Standard orientation:
 --------------------------------------------------------------------
  Center     Atomic     Atomic              Coordinates (Angstroms)
  Number     Number      Type              X           Y           Z
 --------------------------------------------------------------------
    1          6             0        6.866969   -1.675686    0.404618
    2          6             0        5.619361   -0.908529   -0.070358
    3          6             0        6.022552    0.448077   -0.677070
    4          6             0        4.916397   -1.718003   -1.143386
    5          6             0        5.617894   -2.070255   -2.289003
    6          6             0        5.027231   -2.756349   -3.332908
    7          6             0        3.686661   -3.083957   -3.248096
    8          6             0        2.967185   -2.746941   -2.121166
    9          6             0        3.568428   -2.082220   -1.048596
   10          7             0        2.829643   -1.780119    0.090674
   11          6             0        1.419944   -1.826077    0.044790
   12          6             0        0.710661   -3.001511    0.012481
   13          6             0       -0.691466   -3.005627   -0.051816
   14          6             0       -1.408513   -1.834476   -0.067682
   15          7             0       -2.818296   -1.796772   -0.112764
   16          6             0       -3.398025   -1.118968   -1.179173
   17          6             0       -2.653753   -0.929308   -2.347437
   18          6             0       -3.172323   -0.229249   -3.414579
   19          6             0       -4.457362    0.279463   -3.343163
   20          6             0       -5.216574    0.040342   -2.213829
   21          6             0       -4.717725   -0.667039   -1.127248
   22          6             0       -5.610491   -0.936976    0.066668
   23          6             0       -6.860268   -1.692675   -0.420801
   24          6             0       -6.010360    0.407403    0.702121
   25          6             0       -4.905689   -1.768675    1.121382
   26          6             0       -5.606734   -2.148788    2.258341
   27          6             0       -5.014311   -2.855506    3.287378
   28          6             0       -3.672143   -3.174937    3.197079
   29          6             0       -2.953003   -2.810200    2.078582
   30          6             0       -3.556213   -2.125587    1.019743
   31          6             0       -0.708380   -0.596075   -0.035106
   32          7             0       -1.391936    0.552685   -0.080907
   33          6             0       -0.715923    1.683436   -0.052559
   34          6             0       -1.430196    2.932817   -0.171733
   35          6             0       -2.809390    2.911244   -0.396558
   36          6             0       -3.512049    4.084875   -0.537731
   37          6             0       -2.836959    5.298041   -0.460506
   38          6             0       -1.475978    5.330778   -0.244936
   39          6             0       -0.732613    4.154756   -0.092437
   40          6             0        0.707076    4.158022    0.135792
   41          6             0        1.443395    5.337003    0.299257
   42          6             0        2.805020    5.310525    0.511597
   43          6             0        3.487801    4.100861    0.574959
   44          6             0        2.792011    2.924379    0.423789
   45          6             0        1.412264    2.939670    0.201879
   46          6             0        0.705595    1.687174    0.070651
   47          7             0        1.388525    0.560364    0.087213
   48          6             0        0.712015   -0.591956    0.027898
   49          6             0        3.405348   -1.117955    1.168913
   50          6             0        2.658467   -0.948915    2.338667
   51          6             0        3.173937   -0.266293    3.418567
   52          6             0        4.458648    0.244664    3.358710
   53          6             0        5.220202    0.026308    2.226730
   54          6             0        4.724104   -0.662088    1.126816
   55          1             0        6.571232   -2.632371    0.831208
   56          1             0        7.548606   -1.863898   -0.419933
   57          1             0        7.403713   -1.113655    1.163634
   58          1             0        6.699068    0.311459   -1.516637
   59          1             0        5.136854    0.971669   -1.032553
   60          1             0        6.517474    1.070916    0.063540
   61          1             0        6.657446   -1.793738   -2.379468
   62          1             0        5.603779   -3.017994   -4.207030
   63          1             0        3.195601   -3.600359   -4.059589
   64          1             0        1.918053   -2.993435   -2.079671
   65          1             0        1.239573   -3.942854    0.038318
   66          1             0       -1.214032   -3.950013   -0.091680
   67          1             0       -1.655249   -1.335673   -2.413200
   68          1             0       -2.574129   -0.084029   -4.301891
   69          1             0       -4.870765    0.842984   -4.165826
   70          1             0       -6.225874    0.422734   -2.180635
   71          1             0       -6.567365   -2.643527   -0.862078
   72          1             0       -7.394876   -1.117321   -1.171232
   73          1             0       -7.543200   -1.891374    0.400154
   74          1             0       -6.682216    0.253979    1.542569
   75          1             0       -5.122770    0.924068    1.063017
   76          1             0       -6.509323    1.044538   -0.023500
   77          1             0       -6.647409   -1.878393    2.353961
   78          1             0       -5.590736   -3.139153    4.154688
   79          1             0       -3.179509   -3.706425    3.997806
   80          1             0       -1.902592   -3.050407    2.033445
   81          1             0       -3.295521    1.950777   -0.468926
   82          1             0       -4.577016    4.065832   -0.713399
   83          1             0       -3.380616    6.224550   -0.575163
   84          1             0       -0.986738    6.290810   -0.202593
   85          1             0        0.948065    6.294339    0.268159
   86          1             0        3.343161    6.239169    0.634693
   87          1             0        4.553368    4.086706    0.747447
   88          1             0        3.284156    1.966194    0.485215
   89          1             0        1.660433   -1.357709    2.395740
   90          1             0        2.573608   -0.136752    4.306873
   91          1             0        4.870033    0.793756    4.192077
   92          1             0        6.229367    0.409719    2.202463
 --------------------------------------------------------------------
     1 basis functions        1 primitive gaussians
     1 alpha electrons        1 beta electrons
 
 Harmonic frequencies (cm**-1), IR intensities (km*mol⁻¹),
 Raman scattering activities (A**4/amu), Raman depolarization ratios,
 reduced masses (AMU), force constants (mDyne/A) and normal coordinates:
                      1                      2                      3
                        a                      a                      a 
 Frequencies --    13.9167                14.8009                16.8074
 Red. masses --    10.6273                10.8171                10.3624
 Frc consts  --     0.0000                 0.0000                 0.0000
 IR Inten    --     0.4174                 0.0679                 0.0015
 Raman Activ --     0.0000                 0.0000                 0.0000
 Depolar     --     0.0000                 0.0000                 0.0000
 Atom AN      X      Y      Z        X      Y      Z        X      Y      Z
   1   6    -0.03  -0.13   0.15     0.00   0.05  -0.09     0.02   0.23  -0.03
   2   6     0.03  -0.05   0.13    -0.02   0.04  -0.03    -0.05   0.10  -0.05
   3   6     0.11  -0.04   0.21    -0.06   0.08   0.04    -0.16   0.10  -0.13
   4   6     0.04   0.03   0.06    -0.03   0.09  -0.05    -0.00  -0.00  -0.00
   5   6     0.07   0.07   0.06    -0.05   0.16  -0.09     0.02  -0.04   0.02
   6   6     0.09   0.14   0.01    -0.06   0.20  -0.11     0.06  -0.13   0.06
   7   6     0.08   0.17  -0.05    -0.04   0.15  -0.09     0.07  -0.19   0.08
   8   6     0.05   0.13  -0.06    -0.02   0.08  -0.05     0.05  -0.16   0.05
   9   6     0.03   0.06  -0.01    -0.02   0.05  -0.04     0.02  -0.06   0.02
  10   7    -0.00   0.01  -0.02     0.00  -0.03  -0.01    -0.00  -0.04   0.00
  11   6    -0.00   0.01  -0.06    -0.00  -0.03  -0.00     0.00  -0.04  -0.01
  12   6     0.01   0.00  -0.09     0.00  -0.03  -0.00    -0.00  -0.04  -0.01
  13   6     0.01  -0.00  -0.09    -0.00  -0.03   0.01    -0.00  -0.04  -0.02
  14   6    -0.00  -0.00  -0.05     0.00  -0.03   0.00    -0.00  -0.04  -0.02
  15   7    -0.00  -0.01  -0.02    -0.00  -0.03   0.01    -0.00  -0.04  -0.02
  16   6    -0.03   0.03   0.03    -0.00  -0.06  -0.01     0.01   0.02   0.02
  17   6    -0.08   0.05   0.00    -0.01  -0.11  -0.02    -0.01   0.02   0.01
  18   6    -0.10   0.10   0.05    -0.02  -0.16  -0.05     0.01   0.08   0.04
  19   6    -0.09   0.13   0.12    -0.02  -0.14  -0.06     0.04   0.16   0.09
  20   6    -0.05   0.11   0.14    -0.00  -0.08  -0.04     0.05   0.17   0.10
  21   6    -0.02   0.06   0.09     0.00  -0.04  -0.01     0.03   0.10   0.06
  22   6     0.02   0.04   0.12     0.02   0.04   0.02     0.05   0.11   0.07
  23   6    -0.03   0.11   0.15    -0.00   0.04   0.09    -0.03   0.23   0.07
  24   6     0.10   0.03   0.19     0.06   0.08  -0.04     0.17   0.11   0.15
  25   6     0.04  -0.03   0.06     0.03   0.08   0.05     0.01   0.00   0.01
  26   6     0.07  -0.06   0.07     0.04   0.16   0.09     0.01  -0.03  -0.00
  27   6     0.09  -0.12   0.01     0.05   0.20   0.11    -0.02  -0.12  -0.05
  28   6     0.08  -0.14  -0.05     0.04   0.15   0.09    -0.04  -0.18  -0.08
  29   6     0.05  -0.11  -0.06     0.02   0.08   0.06    -0.03  -0.15  -0.07
  30   6     0.03  -0.05  -0.00     0.01   0.05   0.04    -0.01  -0.06  -0.02
  31   6    -0.01  -0.00  -0.05     0.00  -0.03  -0.01    -0.00  -0.04  -0.01
  32   7    -0.01  -0.00  -0.06     0.00  -0.03  -0.04     0.00  -0.04  -0.03
  33   6    -0.01  -0.00  -0.06     0.00  -0.03  -0.03     0.00  -0.04  -0.02
  34   6    -0.01  -0.00  -0.08     0.01  -0.03  -0.09     0.01  -0.04  -0.05
  35   6    -0.01  -0.01  -0.08     0.03  -0.03  -0.19     0.02  -0.04  -0.11
  36   6    -0.02  -0.01  -0.11     0.04  -0.03  -0.25     0.02  -0.04  -0.15
  37   6    -0.02  -0.01  -0.13     0.04  -0.03  -0.23     0.02  -0.04  -0.14
  38   6    -0.02  -0.01  -0.14     0.02  -0.03  -0.13     0.02  -0.04  -0.08
  39   6    -0.02  -0.00  -0.11     0.01  -0.03  -0.05     0.01  -0.04  -0.03
  40   6    -0.01   0.01  -0.11    -0.01  -0.03   0.06    -0.01  -0.04   0.03
  41   6    -0.02   0.01  -0.14    -0.02  -0.03   0.13    -0.02  -0.04   0.09
  42   6    -0.02   0.02  -0.14    -0.04  -0.03   0.23    -0.02  -0.04   0.15
  43   6    -0.01   0.02  -0.11    -0.04  -0.03   0.26    -0.02  -0.04   0.15
  44   6    -0.01   0.01  -0.09    -0.03  -0.03   0.19    -0.02  -0.04   0.10
  45   6    -0.01   0.01  -0.09    -0.01  -0.03   0.09    -0.01  -0.04   0.04
  46   6    -0.01   0.00  -0.06    -0.00  -0.03   0.03    -0.00  -0.04   0.01
  47   7    -0.01   0.01  -0.06    -0.00  -0.03   0.05    -0.00  -0.04   0.00
  48   6    -0.01   0.00  -0.05    -0.00  -0.03   0.01    -0.00  -0.04  -0.01
  49   6    -0.03  -0.04   0.03     0.01  -0.06   0.01    -0.02   0.02  -0.02
  50   6    -0.08  -0.06   0.00     0.02  -0.11   0.02    -0.01   0.02  -0.02
  51   6    -0.10  -0.11   0.05     0.03  -0.15   0.05    -0.04   0.08  -0.05
  52   6    -0.08  -0.15   0.12     0.02  -0.14   0.05    -0.08   0.17  -0.08
  53   6    -0.04  -0.13   0.15     0.01  -0.08   0.03    -0.08   0.17  -0.08
  54   6    -0.02  -0.07   0.10    -0.00  -0.03   0.00    -0.05   0.10  -0.05
  55   1    -0.03  -0.04   0.03     0.01   0.01  -0.04     0.03   0.06   0.00
  56   1    -0.00  -0.04   0.05    -0.00   0.03  -0.03     0.01   0.07  -0.01
  57   1    -0.01  -0.05   0.06     0.00   0.01  -0.02    -0.00   0.09  -0.02
  58   1     0.04  -0.01   0.07    -0.02   0.04   0.00    -0.05   0.03  -0.04
  59   1     0.04   0.00   0.05    -0.02   0.02   0.02    -0.06   0.01  -0.04
  60   1     0.03  -0.03   0.08    -0.02   0.02   0.02    -0.06   0.05  -0.05
  61   1     0.02   0.01   0.03    -0.02   0.06  -0.03     0.00   0.00   0.00
  62   1     0.03   0.05   0.00    -0.02   0.07  -0.04     0.02  -0.04   0.02
  63   1     0.03   0.06  -0.03    -0.01   0.05  -0.03     0.03  -0.08   0.03
  64   1     0.01   0.04  -0.03    -0.00   0.01  -0.01     0.02  -0.06   0.02
  65   1     0.00   0.00  -0.03     0.00  -0.01  -0.00    -0.00  -0.01  -0.00
  66   1     0.00  -0.00  -0.03    -0.00  -0.01   0.01     0.00  -0.01  -0.01
  67   1    -0.03   0.01  -0.01    -0.00  -0.04  -0.00    -0.01  -0.01  -0.01
  68   1    -0.04   0.03   0.01    -0.01  -0.06  -0.02    -0.00   0.02   0.01
  69   1    -0.03   0.05   0.04    -0.01  -0.05  -0.02     0.02   0.06   0.04
  70   1    -0.01   0.04   0.06     0.00  -0.02  -0.01     0.02   0.07   0.04
  71   1    -0.02   0.03   0.03    -0.01   0.00   0.04    -0.03   0.07   0.01
  72   1    -0.01   0.04   0.06    -0.00   0.00   0.02    -0.00   0.09   0.03
  73   1    -0.00   0.03   0.05     0.00   0.03   0.03    -0.01   0.07   0.02
  74   1     0.04   0.01   0.07     0.02   0.04  -0.01     0.06   0.03   0.05
  75   1     0.04  -0.00   0.05     0.02   0.02  -0.02     0.07   0.01   0.04
  76   1     0.02   0.02   0.07     0.02   0.02  -0.02     0.06   0.05   0.06
  77   1     0.02  -0.01   0.03     0.01   0.06   0.03     0.01   0.01   0.01
  78   1     0.03  -0.04   0.01     0.02   0.07   0.04    -0.01  -0.04  -0.02
  79   1     0.03  -0.05  -0.03     0.01   0.05   0.03    -0.02  -0.07  -0.03
  80   1     0.01  -0.04  -0.03     0.00   0.01   0.01    -0.01  -0.06  -0.03
  81   1    -0.00  -0.00  -0.02     0.01  -0.01  -0.06     0.00  -0.01  -0.03
  82   1    -0.00  -0.01  -0.03     0.02  -0.01  -0.10     0.01  -0.01  -0.06
  83   1    -0.01  -0.00  -0.04     0.01  -0.01  -0.08     0.01  -0.01  -0.05
  84   1    -0.00  -0.00  -0.05     0.01  -0.01  -0.03     0.01  -0.01  -0.02
  85   1    -0.00   0.00  -0.05    -0.01  -0.01   0.03    -0.00  -0.01   0.03
  86   1    -0.00   0.01  -0.05    -0.01  -0.01   0.08    -0.01  -0.01   0.05
  87   1    -0.00   0.01  -0.03    -0.02  -0.01   0.10    -0.01  -0.01   0.06
  88   1    -0.00   0.00  -0.02    -0.01  -0.01   0.06    -0.00  -0.01   0.03
  89   1    -0.03  -0.01  -0.01     0.01  -0.03   0.00     0.00  -0.01   0.00
  90   1    -0.04  -0.04   0.01     0.01  -0.06   0.02    -0.01   0.02  -0.01
  91   1    -0.03  -0.06   0.05     0.01  -0.05   0.02    -0.03   0.06  -0.03
  92   1    -0.01  -0.05   0.06     0.00  -0.02   0.01    -0.03   0.07  -0.03
                      4                      5                      6
                        a                      a                      a 
 Frequencies --    18.1679                23.5038                23.5877
 Red. masses --    10.9370                10.6475                10.5351
 Frc consts  --     0.0000                 0.0000                 0.0000
 IR Inten    --     0.0435                 0.0518                 0.0182
 Raman Activ --     0.0000                 0.0000                 0.0000
 Depolar     --     0.0000                 0.0000                 0.0000
 Atom AN      X      Y      Z        X      Y      Z        X      Y      Z
   1   6    -0.01  -0.01   0.13    -0.01   0.23  -0.01    -0.01   0.16  -0.00
   2   6     0.01  -0.03   0.04    -0.07   0.15   0.02    -0.06   0.09   0.00
   3   6     0.04  -0.05   0.02    -0.18   0.19   0.04    -0.14   0.11  -0.01
   4   6     0.06  -0.07   0.04    -0.02   0.12   0.01    -0.02   0.05   0.01
   5   6     0.12  -0.12   0.09    -0.01   0.20  -0.01    -0.01   0.07   0.01
   6   6     0.17  -0.15   0.09     0.04   0.17  -0.02     0.02   0.03   0.02
   7   6     0.16  -0.13   0.02     0.07   0.05  -0.00     0.04  -0.03   0.02
   8   6     0.10  -0.07  -0.03     0.05  -0.03   0.01     0.02  -0.05   0.01
   9   6     0.05  -0.05  -0.02     0.01   0.01   0.01    -0.01  -0.01   0.01
  10   7    -0.00   0.00  -0.08    -0.01  -0.07   0.02    -0.03  -0.03   0.00
  11   6    -0.00   0.00  -0.12    -0.01  -0.07   0.00    -0.03  -0.01  -0.02
  12   6    -0.00   0.00  -0.14    -0.01  -0.07  -0.01    -0.05   0.00  -0.03
  13   6    -0.00   0.00  -0.14    -0.01  -0.06  -0.01    -0.05   0.04  -0.03
  14   6    -0.00   0.00  -0.12    -0.01  -0.05  -0.01    -0.03   0.05  -0.01
  15   7    -0.00   0.00  -0.08    -0.01  -0.04  -0.02    -0.03   0.07   0.02
  16   6    -0.05  -0.02  -0.06     0.01  -0.03  -0.02    -0.06   0.04   0.02
  17   6    -0.09  -0.04  -0.09     0.02  -0.07  -0.03    -0.07   0.12   0.03
  18   6    -0.15  -0.08  -0.09     0.04  -0.08  -0.04    -0.12   0.10   0.04
  19   6    -0.15  -0.10  -0.06     0.05  -0.03  -0.04    -0.16  -0.00   0.04
  20   6    -0.10  -0.07  -0.02     0.05   0.02  -0.04    -0.15  -0.08   0.03
  21   6    -0.05  -0.03  -0.02     0.03   0.02  -0.02    -0.10  -0.06   0.02
  22   6     0.01   0.01   0.04     0.03   0.08  -0.01    -0.09  -0.16   0.01
  23   6    -0.00  -0.03   0.12     0.00   0.11   0.01    -0.01  -0.27  -0.01
  24   6     0.01   0.04  -0.01     0.07   0.10  -0.04    -0.22  -0.20   0.01
  25   6     0.06   0.07   0.04     0.00   0.07   0.00    -0.03  -0.10   0.01
  26   6     0.12   0.13   0.10     0.00   0.13   0.02    -0.01  -0.16   0.00
  27   6     0.18   0.17   0.10    -0.02   0.13   0.03     0.04  -0.12   0.01
  28   6     0.17   0.16   0.04    -0.03   0.06   0.02     0.07  -0.00   0.02
  29   6     0.11   0.10  -0.02    -0.03   0.01   0.00     0.05   0.06   0.02
  30   6     0.05   0.06  -0.02    -0.01   0.01  -0.01    -0.00   0.00   0.01
  31   6    -0.00   0.00  -0.12     0.00  -0.06  -0.00    -0.00   0.04  -0.01
  32   7    -0.01   0.00  -0.10     0.01  -0.06   0.01     0.03   0.06  -0.01
  33   6    -0.01   0.00  -0.05     0.02  -0.06   0.01     0.06   0.04  -0.01
  34   6    -0.01   0.01   0.01     0.02  -0.05   0.06     0.10   0.06  -0.03
  35   6    -0.01   0.01   0.01     0.01  -0.04   0.14     0.10   0.10  -0.03
  36   6    -0.02   0.02   0.09     0.00  -0.04   0.21     0.14   0.12  -0.07
  37   6    -0.03   0.02   0.16     0.01  -0.04   0.21     0.18   0.10  -0.11
  38   6    -0.03   0.01   0.16     0.03  -0.05   0.12     0.18   0.06  -0.10
  39   6    -0.02   0.01   0.08     0.03  -0.06   0.04     0.14   0.04  -0.05
  40   6    -0.02  -0.00   0.08     0.05  -0.07  -0.06     0.13   0.00  -0.02
  41   6    -0.03  -0.01   0.15     0.08  -0.07  -0.15     0.16  -0.02  -0.02
  42   6    -0.02  -0.01   0.14     0.09  -0.08  -0.23     0.16  -0.06   0.02
  43   6    -0.02  -0.01   0.07     0.07  -0.09  -0.22     0.12  -0.08   0.05
  44   6    -0.01  -0.01   0.00     0.05  -0.09  -0.14     0.09  -0.06   0.05
  45   6    -0.01  -0.00   0.01     0.04  -0.08  -0.07     0.09  -0.02   0.01
  46   6    -0.01   0.00  -0.05     0.02  -0.07  -0.02     0.06   0.00   0.00
  47   7    -0.01   0.00  -0.10     0.01  -0.08  -0.02     0.03  -0.02  -0.00
  48   6    -0.00   0.00  -0.12    -0.00  -0.07  -0.00    -0.00   0.00  -0.01
  49   6    -0.05   0.02  -0.06    -0.05  -0.05   0.03    -0.05  -0.02   0.01
  50   6    -0.09   0.04  -0.09    -0.05  -0.13   0.04    -0.05  -0.06   0.01
  51   6    -0.14   0.07  -0.08    -0.10  -0.12   0.05    -0.08  -0.04   0.01
  52   6    -0.14   0.07  -0.04    -0.13  -0.03   0.06    -0.10   0.01   0.01
  53   6    -0.09   0.04  -0.00    -0.12   0.06   0.05    -0.10   0.06   0.01
  54   6    -0.04   0.01  -0.01    -0.08   0.05   0.03    -0.07   0.04   0.01
  55   1    -0.01  -0.00   0.04     0.02   0.06  -0.00     0.01   0.04   0.00
  56   1     0.01  -0.01   0.05    -0.00   0.08  -0.01    -0.00   0.06  -0.00
  57   1    -0.01   0.00   0.04    -0.01   0.08  -0.00    -0.01   0.06  -0.00
  58   1     0.02  -0.02   0.01    -0.04   0.07   0.02    -0.04   0.04   0.00
  59   1     0.02  -0.02  -0.01    -0.06   0.03   0.00    -0.05   0.01  -0.01
  60   1     0.00  -0.01   0.00    -0.08   0.07   0.02    -0.05   0.04  -0.00
  61   1     0.04  -0.04   0.04    -0.01   0.08  -0.00    -0.01   0.03   0.00
  62   1     0.06  -0.06   0.04     0.01   0.07  -0.01     0.01   0.01   0.01
  63   1     0.06  -0.04   0.00     0.03   0.01  -0.00     0.02  -0.02   0.01
  64   1     0.03  -0.01  -0.02     0.02  -0.03   0.01     0.01  -0.03   0.00
  65   1    -0.00   0.00  -0.04    -0.01  -0.02  -0.00    -0.02  -0.00  -0.01
  66   1    -0.00   0.00  -0.04    -0.01  -0.02  -0.00    -0.02   0.01  -0.01
  67   1    -0.03  -0.01  -0.03     0.00  -0.03  -0.01    -0.01   0.06   0.01
  68   1    -0.05  -0.03  -0.03     0.01  -0.03  -0.01    -0.04   0.05   0.01
  69   1    -0.06  -0.04  -0.02     0.02  -0.01  -0.02    -0.06  -0.00   0.01
  70   1    -0.03  -0.02   0.00     0.02   0.02  -0.01    -0.05  -0.05   0.01
  71   1    -0.00  -0.01   0.04    -0.01   0.03   0.00     0.02  -0.07  -0.00
  72   1    -0.01  -0.02   0.04     0.00   0.03   0.00    -0.01  -0.09  -0.01
  73   1     0.01  -0.00   0.05     0.00   0.04   0.00    -0.00  -0.10  -0.01
  74   1     0.01   0.02   0.01     0.01   0.04  -0.02    -0.05  -0.08   0.01
  75   1     0.01   0.02  -0.02     0.02   0.02  -0.01    -0.08  -0.03  -0.00
  76   1    -0.00   0.00  -0.00     0.03   0.03  -0.02    -0.09  -0.07   0.01
  77   1     0.04   0.04   0.04     0.00   0.05   0.01    -0.01  -0.07  -0.00
  78   1     0.06   0.06   0.04    -0.01   0.05   0.01     0.02  -0.05   0.00
  79   1     0.06   0.05   0.01    -0.01   0.02   0.01     0.03   0.01   0.01
  80   1     0.03   0.02  -0.02    -0.01  -0.01  -0.00     0.02   0.04   0.01
  81   1    -0.00   0.00  -0.01     0.00  -0.01   0.04     0.02   0.03  -0.00
  82   1    -0.01   0.01   0.03    -0.00  -0.01   0.08     0.04   0.04  -0.02
  83   1    -0.01   0.01   0.06     0.00  -0.01   0.08     0.06   0.03  -0.04
  84   1    -0.01   0.00   0.06     0.01  -0.02   0.04     0.06   0.01  -0.04
  85   1    -0.01  -0.00   0.06     0.03  -0.02  -0.05     0.06  -0.00  -0.01
  86   1    -0.01  -0.00   0.06     0.03  -0.03  -0.09     0.05  -0.02   0.01
  87   1    -0.01  -0.00   0.02     0.02  -0.03  -0.08     0.03  -0.03   0.02
  88   1    -0.00  -0.00  -0.02     0.01  -0.03  -0.04     0.02  -0.02   0.02
  89   1    -0.03   0.01  -0.03    -0.01  -0.06   0.01    -0.01  -0.03   0.00
  90   1    -0.05   0.02  -0.03    -0.03  -0.05   0.02    -0.02  -0.02   0.00
  91   1    -0.05   0.03  -0.01    -0.05  -0.01   0.02    -0.04   0.01   0.00
  92   1    -0.03   0.01   0.01    -0.04   0.04   0.01    -0.03   0.03   0.00
                      7                      8                      9
                        a                      a                      a 
 Frequencies --    38.7213                44.5164                64.2591
 Red. masses --    10.4812                10.4679                10.7257
 Frc consts  --     0.0000                 0.0000                 0.0000
 IR Inten    --     0.4670                 0.0734                 1.1023
 Raman Activ --     0.0000                 0.0000                 0.0000
 Depolar     --     0.0000                 0.0000                 0.0000
 Atom AN      X      Y      Z        X      Y      Z        X      Y      Z
   1   6    -0.11  -0.15   0.09     0.12   0.15  -0.11    -0.03  -0.04   0.04
   2   6    -0.00  -0.01   0.02     0.00   0.02  -0.02     0.01  -0.02  -0.01
   3   6     0.18  -0.06   0.04    -0.18   0.07  -0.04     0.05  -0.04  -0.04
   4   6    -0.03   0.06  -0.00     0.01  -0.04   0.02     0.01  -0.03  -0.01
   5   6    -0.05   0.09  -0.03     0.02  -0.09   0.04     0.03  -0.06   0.02
   6   6    -0.08   0.15  -0.05     0.02  -0.14   0.07     0.03  -0.04   0.00
   7   6    -0.08   0.16  -0.04     0.02  -0.13   0.08     0.01   0.04  -0.05
   8   6    -0.05   0.11  -0.01     0.01  -0.06   0.05    -0.00   0.06  -0.06
   9   6    -0.03   0.06   0.01     0.01  -0.01   0.02    -0.00   0.01  -0.03
  10   7    -0.01   0.01   0.04    -0.00   0.06  -0.00    -0.01   0.01  -0.03
  11   6    -0.01  -0.01   0.03     0.00   0.07   0.01    -0.00   0.00  -0.02
  12   6    -0.01  -0.00   0.06    -0.00   0.07   0.00     0.00   0.00  -0.16
  13   6    -0.01   0.00   0.06     0.00   0.08  -0.00     0.00  -0.00  -0.16
  14   6    -0.01   0.01   0.03    -0.00   0.08  -0.01    -0.00  -0.00  -0.03
  15   7    -0.01  -0.01   0.04    -0.00   0.06   0.00    -0.01  -0.01  -0.05
  16   6    -0.02  -0.07  -0.00    -0.03  -0.02  -0.03    -0.01   0.00  -0.04
  17   6    -0.03  -0.14  -0.02    -0.05  -0.07  -0.05     0.00   0.03  -0.03
  18   6    -0.05  -0.22  -0.06    -0.10  -0.18  -0.09    -0.03  -0.01  -0.05
  19   6    -0.05  -0.22  -0.08    -0.12  -0.23  -0.11    -0.06  -0.08  -0.07
  20   6    -0.04  -0.14  -0.05    -0.09  -0.16  -0.08    -0.04  -0.08  -0.06
  21   6    -0.03  -0.08  -0.02    -0.05  -0.07  -0.04    -0.02  -0.03  -0.04
  22   6    -0.00   0.01   0.02    -0.00   0.02   0.02     0.01   0.02  -0.01
  23   6    -0.11   0.14   0.09    -0.12   0.15   0.11    -0.02   0.03   0.05
  24   6     0.18   0.05   0.04     0.18   0.06   0.04     0.05   0.04  -0.04
  25   6    -0.03  -0.06  -0.01    -0.01  -0.04  -0.02     0.02   0.03  -0.01
  26   6    -0.05  -0.09  -0.03    -0.02  -0.09  -0.04     0.05   0.07   0.02
  27   6    -0.07  -0.15  -0.05    -0.02  -0.14  -0.07     0.05   0.05   0.00
  28   6    -0.08  -0.15  -0.04    -0.02  -0.13  -0.08     0.03  -0.03  -0.06
  29   6    -0.05  -0.10  -0.01    -0.01  -0.06  -0.05     0.01  -0.06  -0.08
  30   6    -0.03  -0.06   0.00    -0.01  -0.01  -0.02     0.00  -0.01  -0.05
  31   6    -0.01   0.01  -0.01    -0.00   0.08  -0.01    -0.01  -0.00   0.12
  32   7     0.01   0.02  -0.04     0.00   0.08  -0.03    -0.02  -0.00   0.21
  33   6     0.03   0.01  -0.03     0.00   0.08  -0.02    -0.03  -0.00   0.24
  34   6     0.06   0.03  -0.01     0.00   0.08  -0.01    -0.02  -0.00   0.18
  35   6     0.06   0.07  -0.03     0.00   0.08  -0.01    -0.03  -0.01   0.26
  36   6     0.08   0.09   0.01    -0.00   0.08   0.03    -0.01  -0.01   0.10
  37   6     0.10   0.07   0.07    -0.01   0.09   0.06     0.03  -0.02  -0.17
  38   6     0.10   0.04   0.07    -0.01   0.08   0.05     0.04  -0.01  -0.23
  39   6     0.08   0.01   0.03    -0.00   0.08   0.01     0.01  -0.00  -0.04
  40   6     0.08  -0.01   0.03     0.00   0.08  -0.01     0.01   0.00  -0.04
  41   6     0.10  -0.04   0.07     0.01   0.08  -0.05     0.04   0.01  -0.24
  42   6     0.11  -0.07   0.06     0.01   0.08  -0.06     0.03   0.02  -0.18
  43   6     0.08  -0.09   0.01     0.00   0.08  -0.02    -0.01   0.01   0.10
  44   6     0.06  -0.07  -0.03    -0.00   0.08   0.01    -0.03  -0.00   0.27
  45   6     0.06  -0.03  -0.02    -0.00   0.08   0.01    -0.02  -0.00   0.19
  46   6     0.03  -0.01  -0.03    -0.00   0.08   0.02    -0.03  -0.00   0.25
  47   7     0.01  -0.02  -0.04    -0.00   0.08   0.03    -0.03  -0.00   0.23
  48   6    -0.01  -0.01  -0.01     0.00   0.08   0.01    -0.02  -0.00   0.13
  49   6    -0.02   0.07   0.00     0.03  -0.02   0.03    -0.00  -0.00  -0.03
  50   6    -0.03   0.14  -0.02     0.05  -0.07   0.05     0.01  -0.03  -0.02
  51   6    -0.05   0.22  -0.06     0.10  -0.18   0.09    -0.01   0.02  -0.04
  52   6    -0.05   0.22  -0.08     0.12  -0.23   0.11    -0.04   0.09  -0.07
  53   6    -0.04   0.14  -0.05     0.09  -0.16   0.07    -0.04   0.08  -0.06
  54   6    -0.03   0.08  -0.01     0.05  -0.07   0.04    -0.01   0.03  -0.04
  55   1    -0.07  -0.03   0.02     0.07   0.03  -0.03    -0.02  -0.01   0.01
  56   1    -0.03  -0.07   0.03     0.03   0.07  -0.04     0.00  -0.01   0.02
  57   1    -0.02  -0.06   0.03     0.03   0.06  -0.04    -0.02  -0.01   0.02
  58   1     0.06  -0.04   0.02    -0.06   0.04  -0.02     0.00  -0.02  -0.02
  59   1     0.07   0.01  -0.00    -0.08  -0.01   0.00     0.02  -0.00  -0.00
  60   1     0.06  -0.03   0.02    -0.06   0.03  -0.02     0.03  -0.02  -0.02
  61   1    -0.01   0.02  -0.01     0.00  -0.03   0.01     0.01  -0.03   0.01
  62   1    -0.03   0.05  -0.02     0.01  -0.05   0.03     0.01  -0.02   0.01
  63   1    -0.03   0.06  -0.02     0.01  -0.05   0.03     0.00   0.02  -0.02
  64   1    -0.02   0.03   0.00     0.00  -0.01   0.01    -0.01   0.03  -0.03
  65   1    -0.00  -0.00   0.02    -0.00   0.02   0.00     0.00   0.00  -0.08
  66   1    -0.00   0.00   0.02     0.00   0.02  -0.00     0.00   0.00  -0.08
  67   1    -0.01  -0.04   0.00    -0.01  -0.01  -0.01     0.01   0.03  -0.00
  68   1    -0.02  -0.08  -0.02    -0.04  -0.06  -0.03    -0.01   0.00  -0.01
  69   1    -0.02  -0.08  -0.03    -0.05  -0.09  -0.04    -0.02  -0.04  -0.03
  70   1    -0.01  -0.04  -0.02    -0.03  -0.05  -0.02    -0.02  -0.03  -0.02
  71   1    -0.07   0.03   0.02    -0.07   0.03   0.03    -0.02   0.01   0.01
  72   1    -0.02   0.06   0.03    -0.03   0.06   0.04    -0.02   0.01   0.02
  73   1    -0.03   0.07   0.03    -0.03   0.07   0.04     0.01   0.01   0.02
  74   1     0.06   0.04   0.02     0.06   0.04   0.02     0.00   0.02  -0.02
  75   1     0.07  -0.01  -0.00     0.08  -0.01  -0.00     0.02   0.00  -0.00
  76   1     0.06   0.03   0.02     0.06   0.03   0.02     0.03   0.02  -0.02
  77   1    -0.01  -0.02  -0.01    -0.00  -0.03  -0.01     0.02   0.03   0.02
  78   1    -0.03  -0.05  -0.02    -0.01  -0.05  -0.03     0.02   0.02   0.01
  79   1    -0.03  -0.06  -0.02    -0.01  -0.05  -0.03     0.01  -0.02  -0.02
  80   1    -0.01  -0.03   0.00    -0.00  -0.01  -0.01    -0.00  -0.04  -0.04
  81   1     0.01   0.02  -0.02     0.00   0.02  -0.01    -0.02  -0.00   0.13
  82   1     0.02   0.03   0.00    -0.00   0.02   0.01    -0.01  -0.00   0.05
  83   1     0.04   0.03   0.03    -0.00   0.03   0.03     0.01  -0.01  -0.09
  84   1     0.04   0.01   0.03    -0.00   0.02   0.02     0.02  -0.01  -0.12
  85   1     0.04  -0.01   0.03     0.00   0.02  -0.02     0.02   0.01  -0.13
  86   1     0.04  -0.03   0.03     0.00   0.02  -0.03     0.02   0.01  -0.10
  87   1     0.02  -0.03   0.00     0.00   0.02  -0.01    -0.01   0.00   0.05
  88   1     0.01  -0.02  -0.02    -0.00   0.02   0.01    -0.02  -0.00   0.13
  89   1    -0.01   0.04   0.00     0.01  -0.01   0.01     0.01  -0.02   0.00
  90   1    -0.02   0.08  -0.02     0.04  -0.06   0.03    -0.00   0.00  -0.01
  91   1    -0.02   0.08  -0.03     0.05  -0.09   0.04    -0.02   0.04  -0.03
  92   1    -0.01   0.04  -0.02     0.03  -0.05   0.02    -0.01   0.03  -0.02
                     10                     11                     12
                        a                      a                      a 
 Frequencies --    65.4762                84.7666                87.5366
 Red. masses --    11.2183                10.3299                10.0815
 Frc consts  --     0.0000                 0.0000                 0.0000
 IR Inten    --     0.0236                 1.2257                 0.0163
 Raman Activ --     0.0000                 0.0000                 0.0000
 Depolar     --     0.0000                 0.0000                 0.0000
 Atom AN      X      Y      Z        X      Y      Z        X      Y      Z
   1   6     0.02   0.04   0.05     0.02  -0.02  -0.05    -0.00  -0.01  -0.04
   2   6     0.03   0.01  -0.01     0.01  -0.01   0.01    -0.01   0.01   0.01
   3   6     0.03   0.01  -0.00    -0.01   0.02   0.06    -0.02   0.02   0.03
   4   6     0.09  -0.01  -0.04    -0.00   0.02  -0.01    -0.03   0.03   0.01
   5   6     0.16  -0.05   0.01    -0.02   0.06  -0.03    -0.06   0.08  -0.02
   6   6     0.21  -0.05  -0.01    -0.01   0.03  -0.02    -0.07   0.05   0.00
   7   6     0.19  -0.01  -0.10     0.01  -0.05   0.03    -0.04  -0.06   0.07
   8   6     0.12   0.04  -0.16     0.02  -0.07   0.04    -0.01  -0.09   0.10
   9   6     0.07   0.03  -0.13     0.01  -0.01   0.01    -0.01  -0.02   0.06
  10   7     0.01   0.05  -0.19     0.01   0.01   0.00    -0.00  -0.01   0.07
  11   6     0.01   0.03  -0.16     0.00   0.00  -0.02    -0.00  -0.00   0.04
  12   6     0.00   0.03  -0.09     0.00   0.00   0.09    -0.00  -0.00   0.04
  13   6    -0.00   0.03   0.07     0.00  -0.00   0.09     0.00  -0.00  -0.04
  14   6    -0.01   0.02   0.16     0.00  -0.00  -0.02     0.00  -0.00  -0.04
  15   7    -0.01   0.05   0.19     0.01  -0.01   0.01     0.00  -0.00  -0.07
  16   6     0.03  -0.02   0.12    -0.00  -0.02  -0.00    -0.00   0.03  -0.04
  17   6     0.07  -0.08   0.13    -0.03  -0.10  -0.03    -0.00   0.07  -0.03
  18   6     0.12  -0.12   0.09    -0.02  -0.08  -0.02    -0.04   0.05  -0.04
  19   6     0.12  -0.09   0.02     0.03   0.04   0.02    -0.07  -0.03  -0.05
  20   6     0.08  -0.05   0.00     0.04   0.08   0.04    -0.05  -0.05  -0.04
  21   6     0.03  -0.01   0.05     0.02   0.04   0.02    -0.01  -0.01  -0.03
  22   6    -0.03   0.01   0.01     0.01   0.01   0.01     0.01   0.01  -0.01
  23   6    -0.03   0.04  -0.04     0.02   0.03  -0.05     0.00  -0.00   0.04
  24   6    -0.03   0.02  -0.00    -0.01  -0.02   0.06     0.02   0.02  -0.03
  25   6    -0.08  -0.01   0.04    -0.00  -0.03  -0.01     0.03   0.03  -0.01
  26   6    -0.15  -0.04  -0.01    -0.02  -0.06  -0.03     0.06   0.08   0.02
  27   6    -0.20  -0.05   0.01    -0.02  -0.04  -0.02     0.07   0.05  -0.00
  28   6    -0.19  -0.01   0.10     0.01   0.05   0.03     0.04  -0.05  -0.07
  29   6    -0.12   0.03   0.15     0.02   0.07   0.05     0.01  -0.08  -0.10
  30   6    -0.07   0.03   0.12     0.01   0.01   0.01     0.01  -0.02  -0.06
  31   6    -0.00   0.03   0.09     0.00   0.00  -0.12    -0.00  -0.00   0.02
  32   7    -0.01   0.03   0.16     0.01   0.00  -0.17    -0.01  -0.01   0.15
  33   6    -0.01   0.03   0.07     0.01   0.00  -0.14    -0.01  -0.01   0.11
  34   6    -0.01   0.03   0.07     0.00   0.01  -0.07    -0.02  -0.01   0.17
  35   6    -0.01   0.03   0.10    -0.05   0.02   0.23    -0.04  -0.00   0.31
  36   6     0.00   0.03   0.02    -0.06   0.03   0.35    -0.01  -0.00   0.13
  37   6     0.02   0.02  -0.11    -0.02   0.02   0.10     0.04  -0.01  -0.23
  38   6     0.02   0.02  -0.12     0.03   0.01  -0.19     0.05  -0.02  -0.29
  39   6     0.00   0.03  -0.01     0.03   0.00  -0.22     0.00  -0.01  -0.02
  40   6    -0.00   0.03   0.01     0.03  -0.00  -0.22    -0.00  -0.01   0.01
  41   6    -0.02   0.02   0.10     0.03  -0.00  -0.20    -0.05  -0.02   0.29
  42   6    -0.02   0.03   0.10    -0.02  -0.02   0.09    -0.04  -0.02   0.24
  43   6    -0.00   0.03  -0.01    -0.06  -0.03   0.36     0.01  -0.00  -0.12
  44   6     0.01   0.03  -0.08    -0.05  -0.02   0.24     0.04   0.00  -0.30
  45   6     0.01   0.03  -0.05     0.00  -0.01  -0.06     0.02  -0.01  -0.17
  46   6     0.00   0.03  -0.05     0.01  -0.00  -0.14     0.01  -0.01  -0.11
  47   7     0.01   0.03  -0.14     0.01   0.00  -0.16     0.01  -0.01  -0.15
  48   6     0.00   0.03  -0.08     0.00   0.00  -0.12     0.00  -0.00  -0.03
  49   6    -0.03  -0.01  -0.12    -0.00   0.02  -0.00     0.00   0.03   0.04
  50   6    -0.07  -0.08  -0.14    -0.03   0.10  -0.03     0.00   0.08   0.03
  51   6    -0.12  -0.11  -0.09    -0.02   0.08  -0.02     0.03   0.05   0.04
  52   6    -0.13  -0.08  -0.03     0.03  -0.03   0.02     0.07  -0.03   0.05
  53   6    -0.08  -0.04  -0.01     0.04  -0.08   0.04     0.05  -0.05   0.04
  54   6    -0.03  -0.01  -0.05     0.02  -0.04   0.02     0.01  -0.01   0.03
  55   1     0.01   0.01   0.01     0.01  -0.01  -0.03    -0.00   0.00   0.00
  56   1     0.02   0.02   0.02     0.00   0.01  -0.02    -0.02  -0.01  -0.02
  57   1    -0.01   0.01   0.02     0.01  -0.02  -0.01     0.02   0.00  -0.02
  58   1     0.02   0.01   0.01    -0.02   0.02   0.00     0.01   0.01   0.02
  59   1     0.01  -0.00  -0.01    -0.01   0.01   0.04    -0.00  -0.00  -0.01
  60   1    -0.00   0.01   0.01     0.01  -0.01   0.02    -0.02   0.01   0.02
  61   1     0.05  -0.02   0.02    -0.01   0.03  -0.02    -0.02   0.04  -0.02
  62   1     0.08  -0.03   0.01    -0.01   0.02  -0.01    -0.03   0.03  -0.01
  63   1     0.07  -0.00  -0.04     0.00  -0.03   0.02    -0.01  -0.03   0.03
  64   1     0.03   0.02  -0.06     0.01  -0.04   0.02     0.00  -0.04   0.04
  65   1     0.00   0.01  -0.04     0.00   0.00   0.05    -0.00  -0.00   0.03
  66   1    -0.00   0.01   0.04     0.00  -0.00   0.05     0.00  -0.00  -0.02
  67   1     0.02  -0.03   0.05    -0.02  -0.05  -0.02     0.01   0.04  -0.01
  68   1     0.04  -0.05   0.03    -0.01  -0.04  -0.01    -0.01   0.02  -0.01
  69   1     0.05  -0.03  -0.00     0.01   0.02   0.01    -0.03  -0.02  -0.02
  70   1     0.02  -0.01  -0.01     0.02   0.04   0.02    -0.02  -0.03  -0.01
  71   1    -0.01   0.01  -0.01     0.01   0.01  -0.03     0.00   0.01  -0.00
  72   1     0.01   0.01  -0.02     0.01   0.02  -0.01    -0.02   0.00   0.03
  73   1    -0.02   0.02  -0.02     0.00  -0.01  -0.02     0.02  -0.02   0.02
  74   1    -0.02   0.01  -0.01    -0.02  -0.02   0.01    -0.01   0.01  -0.02
  75   1    -0.01  -0.00   0.01    -0.01  -0.02   0.04     0.00  -0.00   0.01
  76   1     0.01   0.01  -0.01     0.01   0.01   0.02     0.02   0.01  -0.02
  77   1    -0.05  -0.02  -0.02    -0.01  -0.03  -0.02     0.02   0.04   0.02
  78   1    -0.07  -0.02  -0.01    -0.01  -0.02  -0.01     0.03   0.03   0.01
  79   1    -0.07  -0.00   0.04     0.00   0.03   0.02     0.01  -0.03  -0.03
  80   1    -0.03   0.02   0.06     0.01   0.04   0.02    -0.00  -0.04  -0.04
  81   1    -0.01   0.01   0.05    -0.02   0.01   0.11    -0.02   0.00   0.15
  82   1    -0.00   0.01   0.01    -0.03   0.01   0.18    -0.01  -0.00   0.07
  83   1     0.01   0.01  -0.06    -0.01   0.01   0.04     0.02  -0.01  -0.13
  84   1     0.01   0.01  -0.07     0.02  -0.00  -0.10     0.03  -0.01  -0.17
  85   1    -0.01   0.01   0.05     0.02   0.00  -0.11    -0.03  -0.01   0.17
  86   1    -0.01   0.01   0.05    -0.01  -0.01   0.04    -0.02  -0.01   0.14
  87   1     0.00   0.01  -0.01    -0.03  -0.01   0.18     0.01  -0.00  -0.06
  88   1     0.01   0.01  -0.04    -0.02  -0.01   0.11     0.02   0.00  -0.14
  89   1    -0.02  -0.03  -0.05    -0.02   0.05  -0.02    -0.01   0.04   0.01
  90   1    -0.04  -0.05  -0.03    -0.01   0.04  -0.01     0.01   0.02   0.01
  91   1    -0.05  -0.03   0.00     0.01  -0.02   0.01     0.03  -0.02   0.02
  92   1    -0.02  -0.01   0.01     0.02  -0.04   0.02     0.02  -0.03   0.01
                     13                     14                     15
                        a                      a                      a 
 Frequencies --    89.1400                94.7010               103.8814
 Red. masses --     9.9822                 9.7262                10.5616
 Frc consts  --     0.0000                 0.0000                 0.0000
 IR Inten    --     0.3408                 0.4468                 0.8469
 Raman Activ --     0.0000                 0.0000                 0.0000
 Depolar     --     0.0000                 0.0000                 0.0000
 Atom AN      X      Y      Z        X      Y      Z        X      Y      Z
   1   6     0.13   0.14  -0.01     0.08   0.13   0.04     0.02   0.05   0.08
   2   6     0.02  -0.02   0.02    -0.03  -0.06   0.03    -0.01  -0.04   0.02
   3   6    -0.15   0.00  -0.06    -0.21  -0.05  -0.09    -0.07  -0.07  -0.08
   4   6     0.03  -0.08   0.06    -0.00  -0.14   0.07     0.01  -0.10   0.04
   5   6     0.05  -0.19   0.11     0.00  -0.22   0.10     0.01  -0.12   0.04
   6   6     0.01  -0.09   0.06    -0.07  -0.06   0.03    -0.04   0.01  -0.01
   7   6    -0.07   0.18  -0.05    -0.15   0.24  -0.09    -0.08   0.16  -0.08
   8   6    -0.08   0.26  -0.08    -0.14   0.26  -0.09    -0.06   0.12  -0.05
   9   6    -0.02   0.10  -0.01    -0.05   0.03   0.00    -0.00  -0.04   0.01
  10   7    -0.02   0.12  -0.02    -0.02  -0.01   0.03     0.03  -0.13   0.05
  11   6    -0.01   0.04  -0.00    -0.02  -0.01   0.03     0.03  -0.04   0.05
  12   6     0.03   0.02  -0.01    -0.00  -0.02   0.01    -0.02  -0.02   0.06
  13   6     0.03  -0.01  -0.01     0.00  -0.02  -0.01    -0.02   0.02   0.06
  14   6    -0.01  -0.04  -0.00     0.02  -0.01  -0.03     0.02   0.04   0.04
  15   7    -0.02  -0.12  -0.02     0.02  -0.02  -0.03     0.03   0.13   0.06
  16   6    -0.00  -0.07   0.00     0.02  -0.03  -0.04     0.02   0.12   0.05
  17   6    -0.02  -0.13  -0.02     0.04  -0.00  -0.03     0.03   0.18   0.07
  18   6     0.01  -0.09  -0.00     0.05   0.04  -0.00    -0.02   0.08   0.02
  19   6     0.06   0.02   0.04     0.06   0.05   0.01    -0.09  -0.09  -0.05
  20   6     0.06   0.07   0.05     0.04   0.01  -0.02    -0.08  -0.12  -0.05
  21   6     0.04   0.03   0.04     0.02  -0.05  -0.04    -0.02   0.01   0.00
  22   6     0.02   0.02   0.02     0.03  -0.06  -0.03    -0.01   0.04   0.02
  23   6     0.13  -0.14  -0.01    -0.08   0.12  -0.03     0.02  -0.05   0.08
  24   6    -0.16  -0.00  -0.06     0.21  -0.05   0.08    -0.07   0.07  -0.08
  25   6     0.03   0.08   0.06     0.00  -0.13  -0.07     0.01   0.10   0.04
  26   6     0.05   0.19   0.11     0.00  -0.21  -0.10     0.01   0.12   0.05
  27   6     0.00   0.09   0.07     0.07  -0.05  -0.03    -0.04  -0.01  -0.01
  28   6    -0.07  -0.18  -0.05     0.15   0.23   0.09    -0.08  -0.16  -0.08
  29   6    -0.08  -0.27  -0.09     0.13   0.25   0.09    -0.06  -0.11  -0.06
  30   6    -0.02  -0.10  -0.01     0.05   0.03  -0.00    -0.00   0.04   0.01
  31   6    -0.06  -0.01  -0.02     0.00  -0.01  -0.01     0.09   0.01   0.00
  32   7    -0.07  -0.00  -0.04    -0.01  -0.02   0.02     0.12   0.01  -0.06
  33   6    -0.06   0.00  -0.03    -0.00  -0.02   0.02     0.13  -0.00  -0.11
  34   6    -0.02   0.03  -0.02    -0.01  -0.02   0.04     0.08  -0.04  -0.10
  35   6    -0.02   0.09  -0.01    -0.01  -0.02   0.07     0.06  -0.11  -0.00
  36   6     0.02   0.12   0.01    -0.00  -0.02   0.04    -0.02  -0.15   0.12
  37   6     0.06   0.10   0.02     0.01  -0.02  -0.05    -0.07  -0.12   0.10
  38   6     0.06   0.04   0.00     0.01  -0.02  -0.06    -0.05  -0.05  -0.03
  39   6     0.02   0.01  -0.01     0.00  -0.02  -0.00     0.03  -0.01  -0.11
  40   6     0.02  -0.01  -0.01    -0.00  -0.02   0.00     0.03   0.02  -0.11
  41   6     0.06  -0.04   0.00    -0.01  -0.02   0.06    -0.05   0.05  -0.02
  42   6     0.06  -0.10   0.02    -0.01  -0.02   0.05    -0.07   0.12   0.11
  43   6     0.02  -0.12   0.01     0.00  -0.02  -0.04    -0.02   0.15   0.12
  44   6    -0.02  -0.09  -0.01     0.01  -0.02  -0.07     0.06   0.11   0.00
  45   6    -0.02  -0.03  -0.02     0.00  -0.02  -0.04     0.08   0.04  -0.10
  46   6    -0.06  -0.00  -0.03     0.00  -0.02  -0.02     0.13   0.00  -0.11
  47   7    -0.07   0.00  -0.04     0.00  -0.02  -0.02     0.12  -0.01  -0.06
  48   6    -0.06   0.01  -0.02    -0.00  -0.01   0.00     0.09  -0.01   0.00
  49   6    -0.00   0.07   0.00    -0.02  -0.03   0.04     0.02  -0.12   0.05
  50   6    -0.02   0.13  -0.01    -0.04  -0.00   0.03     0.04  -0.19   0.07
  51   6     0.01   0.09  -0.00    -0.05   0.04   0.00    -0.01  -0.09   0.03
  52   6     0.06  -0.02   0.04    -0.06   0.05  -0.01    -0.09   0.10  -0.05
  53   6     0.06  -0.07   0.05    -0.04   0.00   0.02    -0.08   0.12  -0.05
  54   6     0.04  -0.03   0.04    -0.02  -0.05   0.04    -0.02  -0.01   0.00
  55   1     0.08   0.04   0.01     0.06   0.03   0.03     0.02   0.02   0.04
  56   1     0.04   0.06  -0.01     0.02   0.04   0.01     0.01   0.00   0.03
  57   1     0.03   0.07  -0.02     0.01   0.07  -0.01    -0.00   0.04   0.01
  58   1    -0.05   0.01  -0.03    -0.07  -0.01  -0.03    -0.02  -0.03  -0.02
  59   1    -0.07  -0.03  -0.01    -0.08  -0.06  -0.03    -0.03  -0.04  -0.04
  60   1    -0.05   0.03  -0.03    -0.08   0.02  -0.04    -0.03   0.00  -0.04
  61   1     0.03  -0.10   0.05     0.01  -0.11   0.05     0.01  -0.06   0.02
  62   1     0.01  -0.05   0.03    -0.02  -0.03   0.02    -0.01   0.00  -0.00
  63   1    -0.03   0.09  -0.03    -0.06   0.12  -0.05    -0.03   0.09  -0.04
  64   1    -0.04   0.13  -0.04    -0.05   0.13  -0.05    -0.02   0.06  -0.02
  65   1     0.02   0.01  -0.01     0.00  -0.00  -0.00    -0.01  -0.01   0.02
  66   1     0.02  -0.01  -0.01    -0.00  -0.00   0.00    -0.01   0.01   0.02
  67   1    -0.02  -0.06  -0.01     0.01  -0.00  -0.01     0.02   0.08   0.03
  68   1    -0.00  -0.04  -0.01     0.02   0.02   0.00    -0.00   0.04   0.01
  69   1     0.02   0.02   0.01     0.02   0.03   0.01    -0.04  -0.06  -0.03
  70   1     0.03   0.04   0.02     0.01   0.01  -0.00    -0.04  -0.07  -0.03
  71   1     0.08  -0.03   0.01    -0.06   0.03  -0.03     0.02  -0.02   0.04
  72   1     0.03  -0.07  -0.02    -0.01   0.07   0.01    -0.00  -0.04   0.01
  73   1     0.04  -0.06  -0.01    -0.02   0.05  -0.01     0.01  -0.01   0.03
  74   1    -0.06  -0.01  -0.03     0.06  -0.01   0.03    -0.02   0.03  -0.02
  75   1    -0.07   0.03  -0.01     0.08  -0.06   0.03    -0.03   0.04  -0.03
  76   1    -0.05  -0.02  -0.03     0.08   0.02   0.04    -0.03  -0.00  -0.04
  77   1     0.03   0.10   0.05    -0.01  -0.11  -0.05     0.01   0.06   0.02
  78   1     0.01   0.05   0.03     0.02  -0.03  -0.02    -0.01  -0.00  -0.00
  79   1    -0.03  -0.09  -0.03     0.06   0.12   0.05    -0.03  -0.09  -0.04
  80   1    -0.04  -0.13  -0.05     0.05   0.13   0.05    -0.02  -0.06  -0.02
  81   1    -0.02   0.03  -0.00    -0.00  -0.01   0.03     0.03  -0.04   0.00
  82   1     0.00   0.05   0.01    -0.00  -0.01   0.02    -0.01  -0.06   0.07
  83   1     0.03   0.03   0.01     0.00  -0.01  -0.03    -0.04  -0.04   0.06
  84   1     0.03   0.01   0.00     0.01  -0.01  -0.04    -0.03  -0.01  -0.01
  85   1     0.03  -0.01   0.00    -0.01  -0.01   0.04    -0.03   0.01  -0.01
  86   1     0.03  -0.03   0.01    -0.00  -0.01   0.03    -0.04   0.04   0.06
  87   1     0.00  -0.05   0.01     0.00  -0.01  -0.02    -0.01   0.06   0.07
  88   1    -0.02  -0.03  -0.00     0.00  -0.01  -0.03     0.03   0.04   0.00
  89   1    -0.02   0.06  -0.01    -0.01  -0.00   0.01     0.03  -0.09   0.03
  90   1     0.00   0.04  -0.01    -0.02   0.02  -0.00     0.00  -0.04   0.01
  91   1     0.02  -0.02   0.01    -0.02   0.03  -0.01    -0.04   0.06  -0.03
  92   1     0.03  -0.04   0.02    -0.01   0.01   0.00    -0.04   0.07  -0.03
                     16                     17                     18
                        a                      a                      a 
 Frequencies --   108.2274               113.7247               114.1542
 Red. masses --    10.0108                10.1893                10.6654
 Frc consts  --     0.0000                 0.0000                 0.0000
 IR Inten    --     0.0906                 0.2980                 0.1936
 Raman Activ --     0.0000                 0.0000                 0.0000
 Depolar     --     0.0000                 0.0000                 0.0000
 Atom AN      X      Y      Z        X      Y      Z        X      Y      Z
   1   6     0.18   0.05  -0.10    -0.12  -0.02   0.08    -0.08  -0.07  -0.08
   2   6     0.08  -0.04   0.03    -0.02   0.09  -0.04    -0.11  -0.07   0.01
   3   6    -0.08   0.04   0.08     0.16   0.02  -0.07    -0.18  -0.02   0.08
   4   6     0.07  -0.02   0.02    -0.02   0.08  -0.03    -0.10  -0.04  -0.03
   5   6     0.07   0.04   0.00     0.00  -0.03   0.02    -0.12   0.03  -0.06
   6   6     0.08   0.08  -0.03     0.02  -0.11   0.07    -0.13   0.01  -0.06
   7   6     0.09   0.05  -0.02     0.01  -0.06   0.04    -0.10  -0.09  -0.01
   8   6     0.09   0.00  -0.01    -0.02   0.06  -0.01    -0.08  -0.13   0.02
   9   6     0.07  -0.01   0.01    -0.03   0.09  -0.03    -0.08  -0.08  -0.02
  10   7     0.04   0.01  -0.01    -0.02   0.11  -0.04    -0.07  -0.04  -0.03
  11   6     0.03  -0.03  -0.03    -0.02   0.03   0.01    -0.04   0.02  -0.04
  12   6     0.00  -0.02  -0.01     0.02   0.01   0.04    -0.01   0.01  -0.01
  13   6    -0.01  -0.02   0.01     0.02  -0.01   0.04     0.00   0.01   0.00
  14   6    -0.02  -0.03   0.03    -0.01  -0.03   0.02     0.05   0.03   0.04
  15   7    -0.04   0.01   0.01    -0.01  -0.11  -0.03     0.07  -0.02   0.03
  16   6    -0.03   0.05   0.02     0.02  -0.06  -0.02     0.11  -0.02   0.02
  17   6     0.03   0.26   0.09     0.10   0.15   0.07     0.18   0.03   0.07
  18   6     0.02   0.26   0.10     0.15   0.25   0.12     0.22   0.06   0.07
  19   6    -0.09   0.00  -0.00     0.07   0.06   0.04     0.18  -0.03   0.00
  20   6    -0.13  -0.18  -0.07    -0.01  -0.15  -0.07     0.12  -0.10  -0.05
  21   6    -0.09  -0.11  -0.05    -0.02  -0.17  -0.07     0.09  -0.08  -0.03
  22   6    -0.08  -0.03  -0.03     0.00  -0.10  -0.04     0.11  -0.05  -0.00
  23   6    -0.18   0.05   0.10    -0.11   0.00   0.09     0.10  -0.07   0.06
  24   6     0.07   0.04  -0.08     0.19  -0.02  -0.08     0.15  -0.01  -0.07
  25   6    -0.07  -0.01  -0.02    -0.00  -0.08  -0.02     0.10  -0.02   0.04
  26   6    -0.07   0.04  -0.00     0.02   0.03   0.03     0.12   0.02   0.06
  27   6    -0.08   0.08   0.03     0.04   0.11   0.08     0.12  -0.01   0.04
  28   6    -0.09   0.04   0.02     0.02   0.04   0.04     0.09  -0.10  -0.01
  29   6    -0.09   0.00   0.01    -0.01  -0.08  -0.01     0.08  -0.12  -0.02
  30   6    -0.07  -0.01  -0.01    -0.01  -0.11  -0.03     0.08  -0.06   0.02
  31   6     0.00  -0.04   0.02    -0.06  -0.00   0.01     0.01   0.05   0.03
  32   7     0.00  -0.05   0.03    -0.08  -0.00  -0.03     0.01   0.05   0.04
  33   6     0.00  -0.05   0.00    -0.08   0.01  -0.09     0.01   0.05   0.01
  34   6     0.00  -0.05  -0.02    -0.05   0.03  -0.09     0.01   0.06  -0.00
  35   6     0.01  -0.07  -0.05    -0.06   0.10  -0.02     0.01   0.06  -0.04
  36   6    -0.00  -0.08  -0.03    -0.03   0.13   0.07     0.01   0.07  -0.03
  37   6    -0.02  -0.07   0.04     0.01   0.11   0.07     0.00   0.07   0.02
  38   6    -0.02  -0.06   0.05     0.03   0.05  -0.02    -0.00   0.06   0.04
  39   6    -0.00  -0.05   0.01    -0.01   0.02  -0.09     0.00   0.06   0.01
  40   6     0.00  -0.05  -0.01    -0.01  -0.01  -0.09     0.00   0.06   0.00
  41   6     0.02  -0.06  -0.05     0.03  -0.04  -0.03    -0.00   0.07  -0.04
  42   6     0.02  -0.07  -0.04     0.01  -0.09   0.06    -0.01   0.09  -0.03
  43   6     0.00  -0.07   0.03    -0.03  -0.12   0.08    -0.01   0.09   0.02
  44   6    -0.01  -0.07   0.05    -0.06  -0.09  -0.01    -0.00   0.08   0.04
  45   6    -0.00  -0.05   0.02    -0.05  -0.02  -0.08     0.00   0.06   0.02
  46   6     0.00  -0.05  -0.00    -0.08   0.00  -0.09     0.01   0.05   0.00
  47   7     0.00  -0.05  -0.03    -0.08   0.01  -0.04     0.01   0.05  -0.03
  48   6     0.00  -0.04  -0.03    -0.06   0.01   0.00     0.00   0.05  -0.03
  49   6     0.03   0.05  -0.02    -0.00   0.05  -0.02    -0.11  -0.04  -0.01
  50   6    -0.03   0.26  -0.09     0.07  -0.13   0.05    -0.20   0.06  -0.08
  51   6    -0.02   0.27  -0.10     0.10  -0.23   0.10    -0.25   0.10  -0.09
  52   6     0.09   0.01   0.00     0.04  -0.07   0.03    -0.19  -0.02  -0.01
  53   6     0.13  -0.18   0.07    -0.03   0.13  -0.05    -0.11  -0.13   0.06
  54   6     0.09  -0.11   0.05    -0.03   0.15  -0.06    -0.09  -0.11   0.04
  55   1     0.09  -0.00  -0.05    -0.07   0.01   0.04    -0.01  -0.04  -0.06
  56   1     0.05   0.06  -0.04    -0.03  -0.05   0.03    -0.02   0.02  -0.03
  57   1     0.05   0.01  -0.02    -0.03  -0.01   0.02    -0.04  -0.04   0.00
  58   1    -0.04   0.04   0.01     0.06  -0.03  -0.01    -0.07   0.02   0.01
  59   1    -0.04  -0.01   0.05     0.07   0.03  -0.04    -0.06  -0.01   0.05
  60   1    -0.02   0.01   0.03     0.05  -0.00  -0.02    -0.05  -0.02   0.03
  61   1     0.02   0.02   0.00     0.00  -0.02   0.01    -0.04   0.02  -0.03
  62   1     0.02   0.04  -0.01     0.01  -0.06   0.03    -0.04   0.02  -0.02
  63   1     0.03   0.02  -0.01     0.01  -0.03   0.02    -0.03  -0.04   0.00
  64   1     0.03  -0.01  -0.00    -0.01   0.03  -0.01    -0.02  -0.05   0.01
  65   1    -0.00  -0.01  -0.00     0.01   0.01   0.01     0.00   0.01   0.00
  66   1     0.00  -0.01   0.00     0.01  -0.01   0.01    -0.01   0.01  -0.00
  67   1     0.03   0.12   0.04     0.04   0.07   0.03     0.06   0.02   0.03
  68   1     0.03   0.13   0.05     0.07   0.13   0.06     0.08   0.04   0.03
  69   1    -0.04  -0.01  -0.01     0.03   0.03   0.02     0.06  -0.01  -0.00
  70   1    -0.06  -0.10  -0.04    -0.02  -0.08  -0.04     0.03  -0.05  -0.03
  71   1    -0.09  -0.01   0.05    -0.07  -0.03   0.06     0.03  -0.04   0.06
  72   1    -0.05   0.01   0.02    -0.02  -0.01   0.01     0.04  -0.05  -0.01
  73   1    -0.05   0.06   0.04    -0.03   0.05   0.04     0.02   0.02   0.02
  74   1     0.03   0.04  -0.01     0.07   0.03  -0.01     0.06   0.01  -0.01
  75   1     0.04  -0.00  -0.05     0.08  -0.03  -0.05     0.05   0.00  -0.04
  76   1     0.02   0.01  -0.03     0.06  -0.00  -0.02     0.03  -0.02  -0.02
  77   1    -0.02   0.02  -0.00     0.01   0.02   0.01     0.04   0.02   0.03
  78   1    -0.02   0.04   0.01     0.02   0.06   0.04     0.04   0.01   0.02
  79   1    -0.03   0.02   0.01     0.01   0.02   0.02     0.02  -0.04  -0.01
  80   1    -0.03  -0.01   0.00    -0.01  -0.04  -0.01     0.02  -0.05  -0.01
  81   1     0.01  -0.02  -0.03    -0.03   0.03  -0.01     0.00   0.02  -0.02
  82   1     0.00  -0.02  -0.02    -0.01   0.05   0.04     0.01   0.02  -0.02
  83   1    -0.01  -0.02   0.02     0.01   0.04   0.04    -0.00   0.02   0.01
  84   1    -0.01  -0.02   0.03     0.02   0.01  -0.01    -0.00   0.02   0.02
  85   1     0.01  -0.01  -0.03     0.02  -0.00  -0.01    -0.00   0.02  -0.02
  86   1     0.01  -0.02  -0.02     0.01  -0.03   0.04    -0.00   0.03  -0.02
  87   1    -0.00  -0.02   0.02    -0.01  -0.05   0.04    -0.00   0.03   0.01
  88   1    -0.01  -0.02   0.03    -0.03  -0.03  -0.00     0.00   0.03   0.02
  89   1    -0.03   0.12  -0.04     0.03  -0.06   0.02    -0.06   0.03  -0.04
  90   1    -0.03   0.13  -0.05     0.05  -0.12   0.05    -0.09   0.06  -0.04
  91   1     0.03  -0.01   0.00     0.01  -0.03   0.02    -0.06  -0.00  -0.00
  92   1     0.06  -0.10   0.04    -0.02   0.07  -0.03    -0.02  -0.06   0.04
                     19                     20                     21
                        a                      a                      a 
 Frequencies --   132.0552               133.1641               156.3437
 Red. masses --     2.5845                 2.6154                10.6805
 Frc consts  --     0.0000                 0.0000                 0.0000
 IR Inten    --     0.0713                 0.1570                 0.0478
 Raman Activ --     0.0000                 0.0000                 0.0000
 Depolar     --     0.0000                 0.0000                 0.0000
 Atom AN      X      Y      Z        X      Y      Z        X      Y      Z
   1   6    -0.00  -0.02  -0.05    -0.02   0.07   0.17     0.15  -0.00   0.00
   2   6    -0.00   0.00  -0.00    -0.01  -0.02   0.00     0.07  -0.11   0.04
   3   6    -0.00   0.02   0.04    -0.01  -0.08  -0.13    -0.05  -0.09  -0.00
   4   6    -0.01   0.02  -0.01     0.02  -0.07   0.02     0.07  -0.13   0.05
   5   6     0.00  -0.01   0.00    -0.02   0.05  -0.04     0.05   0.04  -0.02
   6   6     0.01  -0.03   0.01    -0.03   0.11  -0.07     0.03   0.19  -0.10
   7   6     0.00  -0.01   0.00    -0.00   0.01  -0.02     0.07   0.07  -0.06
   8   6    -0.01   0.01  -0.01     0.02  -0.08   0.02     0.10  -0.14   0.03
   9   6    -0.01   0.02  -0.01     0.01  -0.07   0.02     0.07  -0.16   0.05
  10   7    -0.00   0.00  -0.01    -0.01  -0.00  -0.01     0.05  -0.14   0.05
  11   6    -0.00   0.00   0.00    -0.00   0.00  -0.03     0.03  -0.00   0.02
  12   6     0.00   0.00   0.03    -0.00   0.00  -0.03    -0.00   0.01   0.00
  13   6     0.00  -0.00   0.03    -0.00   0.00  -0.01     0.00   0.01  -0.00
  14   6     0.00  -0.00   0.03     0.00   0.00   0.01    -0.03  -0.00  -0.02
  15   7     0.01  -0.00   0.01     0.00   0.00   0.01    -0.05  -0.14  -0.05
  16   6     0.03   0.04   0.03     0.01   0.01   0.01    -0.08  -0.16  -0.05
  17   6     0.03   0.08   0.04     0.02   0.02   0.02    -0.08  -0.16  -0.05
  18   6     0.00   0.02   0.01     0.02   0.00   0.01    -0.02   0.02   0.03
  19   6    -0.04  -0.08  -0.03     0.01  -0.03  -0.01     0.04   0.15   0.10
  20   6    -0.03  -0.07  -0.02     0.01  -0.02  -0.01    -0.00   0.04   0.05
  21   6     0.02   0.03   0.02     0.01   0.00   0.01    -0.06  -0.12  -0.03
  22   6     0.00  -0.02  -0.00     0.01  -0.01   0.00    -0.07  -0.11  -0.04
  23   6     0.01   0.07  -0.17     0.01   0.01  -0.04    -0.14  -0.00  -0.00
  24   6     0.02  -0.08   0.13     0.01  -0.02   0.03     0.05  -0.09   0.00
  25   6    -0.02  -0.07  -0.03    -0.00  -0.02  -0.00    -0.07  -0.12  -0.05
  26   6     0.02   0.05   0.03     0.01   0.01   0.01    -0.05   0.04   0.02
  27   6     0.03   0.11   0.07     0.01   0.02   0.02    -0.03   0.18   0.11
  28   6     0.00   0.01   0.02     0.00  -0.00   0.01    -0.07   0.06   0.06
  29   6    -0.02  -0.07  -0.02    -0.00  -0.02  -0.00    -0.10  -0.14  -0.03
  30   6    -0.02  -0.07  -0.02    -0.00  -0.02   0.00    -0.07  -0.15  -0.05
  31   6     0.00   0.00   0.01    -0.00   0.00   0.01    -0.01   0.01  -0.04
  32   7     0.00   0.00  -0.00    -0.00   0.01   0.01     0.01   0.03  -0.08
  33   6     0.00   0.00  -0.02    -0.00   0.01   0.01    -0.00   0.04  -0.03
  34   6     0.00   0.00  -0.03    -0.00   0.01  -0.01    -0.00   0.06  -0.02
  35   6     0.00   0.01  -0.04     0.00   0.01  -0.02    -0.01   0.11   0.03
  36   6     0.01   0.01  -0.03     0.00   0.01  -0.02     0.01   0.13   0.05
  37   6     0.00   0.01   0.02    -0.00   0.01   0.01     0.04   0.12  -0.01
  38   6    -0.00   0.01   0.03    -0.00   0.01   0.02     0.04   0.08  -0.04
  39   6     0.00   0.00  -0.00    -0.00   0.01   0.00     0.00   0.06  -0.01
  40   6     0.00   0.00  -0.00     0.00   0.01  -0.00    -0.01   0.06   0.01
  41   6     0.00   0.00  -0.00     0.00   0.01  -0.04    -0.04   0.08   0.04
  42   6     0.00   0.00   0.00    -0.00   0.01  -0.02    -0.04   0.12   0.01
  43   6     0.00  -0.00   0.00    -0.01   0.01   0.04    -0.02   0.13  -0.05
  44   6    -0.00   0.00  -0.00    -0.00   0.01   0.05     0.01   0.11  -0.03
  45   6     0.00   0.00  -0.01    -0.00   0.01   0.03    -0.00   0.06   0.02
  46   6     0.00   0.00  -0.01    -0.00   0.01   0.01    -0.00   0.04   0.03
  47   7     0.00   0.00  -0.01    -0.00   0.01  -0.00    -0.02   0.03   0.08
  48   6     0.00   0.00   0.00    -0.00   0.00  -0.01     0.01   0.01   0.04
  49   6     0.00  -0.01   0.00    -0.03   0.04  -0.03     0.08  -0.17   0.05
  50   6    -0.01  -0.02  -0.00    -0.04   0.07  -0.04     0.09  -0.16   0.05
  51   6    -0.02  -0.01  -0.01    -0.01   0.01  -0.01     0.02   0.02  -0.03
  52   6    -0.03   0.02  -0.01     0.03  -0.09   0.03    -0.04   0.16  -0.10
  53   6    -0.02   0.01  -0.00     0.02  -0.07   0.02     0.00   0.04  -0.05
  54   6    -0.00  -0.01   0.00    -0.02   0.03  -0.02     0.06  -0.12   0.03
  55   1     0.01  -0.06  -0.12    -0.04   0.21   0.46     0.07  -0.01  -0.01
  56   1     0.04   0.09   0.00    -0.18  -0.38  -0.01     0.05   0.03  -0.00
  57   1    -0.05  -0.06   0.07     0.20   0.24  -0.26     0.03   0.01   0.01
  58   1    -0.05   0.01  -0.03     0.18  -0.03   0.11    -0.02  -0.01  -0.00
  59   1    -0.01   0.03   0.07     0.02  -0.13  -0.26    -0.03  -0.05   0.00
  60   1     0.05  -0.02  -0.00    -0.21   0.09   0.01    -0.03  -0.01  -0.01
  61   1     0.00  -0.01   0.00    -0.01   0.03  -0.02     0.01   0.02  -0.00
  62   1     0.00  -0.02   0.01    -0.02   0.06  -0.03    -0.00   0.11  -0.05
  63   1     0.00  -0.01   0.00    -0.00   0.01  -0.01     0.02   0.04  -0.03
  64   1    -0.00   0.01  -0.00     0.01  -0.03   0.01     0.04  -0.07   0.01
  65   1     0.00   0.00   0.01    -0.00   0.00  -0.01    -0.00   0.00   0.00
  66   1     0.00  -0.00   0.01    -0.00   0.00  -0.00     0.00   0.00  -0.00
  67   1     0.02   0.04   0.01     0.01   0.01   0.01    -0.03  -0.07  -0.02
  68   1     0.00   0.01   0.00     0.01   0.00   0.01    -0.00   0.02   0.01
  69   1    -0.02  -0.05  -0.02     0.00  -0.01  -0.01     0.03   0.09   0.05
  70   1    -0.02  -0.04  -0.01    -0.00  -0.01  -0.01     0.01   0.03   0.02
  71   1     0.04   0.22  -0.46     0.01   0.05  -0.11    -0.07  -0.01   0.01
  72   1    -0.21   0.24   0.27    -0.05   0.06   0.07    -0.03   0.01  -0.00
  73   1     0.18  -0.38   0.00     0.05  -0.10   0.00    -0.04   0.03   0.00
  74   1    -0.17  -0.03  -0.11    -0.04  -0.01  -0.03     0.02  -0.01   0.00
  75   1    -0.02  -0.13   0.25    -0.00  -0.03   0.06     0.03  -0.05  -0.00
  76   1     0.20   0.09  -0.00     0.05   0.02  -0.00     0.03  -0.01   0.01
  77   1     0.01   0.03   0.02     0.00   0.01   0.01    -0.01   0.02   0.00
  78   1     0.02   0.06   0.04     0.00   0.01   0.01     0.00   0.11   0.05
  79   1     0.00   0.01   0.01     0.00  -0.00   0.00    -0.02   0.04   0.03
  80   1    -0.01  -0.03  -0.01    -0.00  -0.01  -0.00    -0.03  -0.07  -0.02
  81   1    -0.00   0.00  -0.02     0.00   0.00  -0.01    -0.01   0.04   0.01
  82   1     0.00   0.00  -0.01     0.00   0.00  -0.01     0.00   0.04   0.03
  83   1    -0.00   0.00   0.01    -0.00   0.00   0.01     0.02   0.04  -0.01
  84   1    -0.00   0.00   0.02    -0.00   0.00   0.01     0.02   0.02  -0.02
  85   1     0.00   0.00  -0.00     0.00   0.00  -0.02    -0.02   0.02   0.02
  86   1     0.00  -0.00   0.00     0.00   0.00  -0.01    -0.02   0.04   0.01
  87   1    -0.00  -0.00   0.00    -0.00   0.00   0.02    -0.00   0.04  -0.03
  88   1    -0.00  -0.00   0.00     0.00   0.00   0.02     0.01   0.04  -0.01
  89   1    -0.00  -0.01  -0.00    -0.02   0.03  -0.02     0.04  -0.07   0.02
  90   1    -0.01  -0.00  -0.00    -0.00   0.01  -0.01     0.00   0.02  -0.01
  91   1    -0.01   0.01  -0.01     0.02  -0.05   0.02    -0.03   0.10  -0.05
  92   1    -0.01   0.01  -0.00     0.01  -0.04   0.01    -0.01   0.03  -0.02
                     22                     23                     24
                        a                      a                      a 
 Frequencies --   160.2580               163.5286               197.5947
 Red. masses --    10.8800                10.7307                11.4964
 Frc consts  --     0.0000                 0.0000                 0.0000
 IR Inten    --     6.0503                 7.7554                 0.0003
 Raman Activ --     0.0000                 0.0000                 0.0000
 Depolar     --     0.0000                 0.0000                 0.0000
 Atom AN      X      Y      Z        X      Y      Z        X      Y      Z
   1   6    -0.10   0.01   0.00     0.07   0.02   0.03     0.03   0.01   0.05
   2   6    -0.04   0.08  -0.03     0.05  -0.04   0.01     0.01  -0.02   0.02
   3   6     0.04   0.06  -0.01     0.01  -0.04  -0.02    -0.01  -0.04  -0.03
   4   6    -0.04   0.08  -0.05     0.06  -0.06   0.01     0.02  -0.05   0.04
   5   6    -0.02  -0.04  -0.00     0.04  -0.02  -0.01    -0.01  -0.01   0.01
   6   6    -0.02  -0.14   0.06     0.02   0.06  -0.05    -0.04   0.07  -0.02
   7   6    -0.05  -0.04   0.02     0.02   0.05  -0.04    -0.03   0.04   0.01
   8   6    -0.07   0.11  -0.04     0.04  -0.03  -0.01     0.01  -0.05   0.06
   9   6    -0.04   0.12  -0.06     0.05  -0.04  -0.01     0.02  -0.05   0.05
  10   7    -0.01   0.09  -0.05     0.04  -0.05  -0.02     0.01  -0.01   0.03
  11   6    -0.01   0.01  -0.03     0.02   0.00  -0.01     0.00   0.03  -0.03
  12   6     0.01   0.00   0.18     0.01   0.00   0.37    -0.00   0.03   0.04
  13   6     0.01  -0.01   0.18     0.01  -0.01   0.37     0.00   0.03  -0.04
  14   6    -0.01  -0.01  -0.04     0.02  -0.00  -0.01    -0.00   0.03   0.03
  15   7    -0.02  -0.09  -0.05     0.04   0.05  -0.02    -0.01  -0.01  -0.03
  16   6    -0.05  -0.10  -0.05     0.04   0.08  -0.00    -0.01  -0.01  -0.02
  17   6    -0.08  -0.09  -0.06     0.02   0.12  -0.01    -0.03  -0.03  -0.04
  18   6    -0.05   0.04   0.00    -0.03   0.06  -0.03    -0.05  -0.05  -0.05
  19   6    -0.02   0.12   0.06    -0.07  -0.04  -0.05    -0.02   0.02  -0.01
  20   6    -0.03   0.03   0.03    -0.03  -0.04  -0.03     0.00   0.06   0.02
  21   6    -0.05  -0.08  -0.03     0.03   0.04  -0.00    -0.01   0.01  -0.01
  22   6    -0.04  -0.08  -0.03     0.05   0.04   0.01    -0.01  -0.02  -0.02
  23   6    -0.10  -0.01   0.00     0.08  -0.02   0.03    -0.02   0.01  -0.05
  24   6     0.05  -0.06  -0.01     0.01   0.04  -0.02     0.01  -0.04   0.03
  25   6    -0.04  -0.09  -0.05     0.06   0.06   0.01    -0.02  -0.05  -0.04
  26   6    -0.03   0.04   0.00     0.05   0.02  -0.01     0.01  -0.01  -0.01
  27   6    -0.03   0.14   0.07     0.02  -0.06  -0.05     0.04   0.08   0.02
  28   6    -0.05   0.04   0.03     0.02  -0.05  -0.05     0.03   0.04  -0.01
  29   6    -0.07  -0.12  -0.04     0.04   0.03  -0.01    -0.01  -0.06  -0.06
  30   6    -0.04  -0.12  -0.06     0.05   0.04  -0.01    -0.02  -0.05  -0.05
  31   6     0.02  -0.01  -0.14     0.02  -0.00  -0.18    -0.01   0.03   0.14
  32   7     0.09   0.02  -0.13    -0.04  -0.03  -0.17    -0.03   0.03   0.41
  33   6     0.13  -0.01   0.05    -0.09   0.00   0.04    -0.02   0.02   0.20
  34   6     0.11  -0.03   0.12    -0.10   0.02   0.15    -0.01   0.02   0.19
  35   6     0.12  -0.13   0.10    -0.10   0.08   0.12     0.02  -0.02  -0.00
  36   6     0.07  -0.18  -0.02    -0.03   0.10  -0.07     0.03  -0.05  -0.24
  37   6     0.03  -0.15  -0.09     0.02   0.08  -0.15    -0.04  -0.03  -0.00
  38   6     0.01  -0.06   0.01    -0.01   0.03   0.01    -0.07   0.01   0.21
  39   6     0.06  -0.02   0.11    -0.07   0.01   0.15    -0.02   0.03   0.11
  40   6     0.06   0.02   0.11    -0.07  -0.01   0.15     0.02   0.03  -0.11
  41   6     0.01   0.07   0.01    -0.01  -0.03   0.01     0.07   0.02  -0.21
  42   6     0.03   0.15  -0.08     0.02  -0.08  -0.15     0.04  -0.03   0.00
  43   6     0.07   0.18  -0.02    -0.03  -0.10  -0.06    -0.02  -0.05   0.23
  44   6     0.12   0.13   0.10    -0.10  -0.08   0.12    -0.02  -0.02   0.00
  45   6     0.11   0.03   0.12    -0.10  -0.02   0.15     0.01   0.02  -0.19
  46   6     0.13   0.01   0.05    -0.09  -0.00   0.03     0.02   0.02  -0.20
  47   7     0.09  -0.02  -0.13    -0.04   0.03  -0.17     0.03   0.03  -0.41
  48   6     0.02   0.01  -0.14     0.02   0.00  -0.18     0.01   0.03  -0.14
  49   6    -0.05   0.10  -0.05     0.04  -0.08  -0.00     0.01  -0.01   0.02
  50   6    -0.08   0.09  -0.06     0.02  -0.12  -0.01     0.03  -0.03   0.04
  51   6    -0.05  -0.04   0.00    -0.03  -0.06  -0.03     0.05  -0.05   0.04
  52   6    -0.01  -0.12   0.06    -0.07   0.04  -0.05     0.02   0.02   0.01
  53   6    -0.03  -0.03   0.03    -0.03   0.03  -0.03    -0.00   0.06  -0.02
  54   6    -0.05   0.08  -0.03     0.03  -0.04  -0.00     0.01   0.01   0.01
  55   1    -0.05   0.01   0.01     0.03   0.00   0.02     0.02  -0.01  -0.01
  56   1    -0.03  -0.02   0.00     0.02   0.01   0.01     0.02   0.03   0.02
  57   1    -0.02  -0.00  -0.00     0.01   0.02   0.00    -0.01  -0.00   0.03
  58   1     0.02   0.01   0.00     0.00  -0.01  -0.01    -0.04  -0.02  -0.03
  59   1     0.02   0.03  -0.01    -0.00  -0.02  -0.01    -0.01  -0.00   0.02
  60   1     0.01   0.01   0.00     0.00  -0.01  -0.01     0.03  -0.02  -0.03
  61   1    -0.00  -0.03  -0.00     0.01  -0.01  -0.00    -0.00  -0.01   0.00
  62   1     0.00  -0.08   0.03    -0.00   0.04  -0.02    -0.02   0.04  -0.02
  63   1    -0.01  -0.02   0.01     0.00   0.02  -0.02    -0.01   0.02  -0.00
  64   1    -0.03   0.05  -0.01     0.01  -0.02   0.01     0.00  -0.03   0.02
  65   1     0.01   0.00   0.09     0.00   0.00   0.18    -0.00   0.01   0.04
  66   1     0.01  -0.00   0.09     0.00  -0.01   0.18     0.00   0.01  -0.04
  67   1    -0.03  -0.04  -0.03     0.01   0.05  -0.01    -0.01  -0.01  -0.01
  68   1    -0.02   0.02   0.00    -0.01   0.02  -0.01    -0.02  -0.03  -0.02
  69   1     0.01   0.07   0.04    -0.03  -0.03  -0.02    -0.01   0.01   0.00
  70   1    -0.00   0.02   0.02    -0.02  -0.03  -0.01     0.01   0.03   0.02
  71   1    -0.05  -0.01   0.01     0.04  -0.00   0.01    -0.02  -0.01   0.01
  72   1    -0.02   0.00  -0.00     0.01  -0.02   0.00     0.02  -0.01  -0.04
  73   1    -0.03   0.02   0.00     0.02  -0.01   0.01    -0.03   0.04  -0.02
  74   1     0.02  -0.01   0.00     0.00   0.01  -0.01     0.02  -0.02   0.02
  75   1     0.03  -0.03  -0.01    -0.00   0.02  -0.00     0.01  -0.01  -0.01
  76   1     0.02  -0.01   0.00     0.00   0.01  -0.01    -0.02  -0.01   0.03
  77   1    -0.00   0.03  -0.00     0.02   0.01  -0.00     0.00  -0.01  -0.00
  78   1    -0.00   0.08   0.04    -0.00  -0.04  -0.03     0.02   0.05   0.02
  79   1    -0.01   0.02   0.02     0.00  -0.03  -0.02     0.01   0.02   0.00
  80   1    -0.03  -0.05  -0.01     0.01   0.02   0.01    -0.01  -0.03  -0.02
  81   1     0.05  -0.05   0.04    -0.04   0.03   0.05     0.02  -0.01  -0.01
  82   1     0.02  -0.07  -0.02    -0.00   0.04  -0.05     0.02  -0.02  -0.15
  83   1    -0.00  -0.05  -0.06     0.02   0.03  -0.09    -0.02  -0.01  -0.01
  84   1    -0.01  -0.01  -0.01     0.01   0.00  -0.01    -0.03   0.01   0.11
  85   1    -0.01   0.01  -0.01     0.01  -0.00  -0.01     0.03   0.01  -0.11
  86   1    -0.00   0.05  -0.06     0.02  -0.03  -0.09     0.02  -0.01   0.01
  87   1     0.02   0.07  -0.02    -0.00  -0.04  -0.05    -0.02  -0.02   0.15
  88   1     0.05   0.05   0.04    -0.04  -0.03   0.05    -0.02  -0.01   0.01
  89   1    -0.03   0.04  -0.03     0.01  -0.05  -0.01     0.01  -0.01   0.01
  90   1    -0.02  -0.02   0.00    -0.01  -0.02  -0.01     0.02  -0.03   0.02
  91   1     0.01  -0.07   0.04    -0.03   0.03  -0.02     0.01   0.01  -0.00
  92   1    -0.00  -0.02   0.02    -0.02   0.03  -0.01    -0.01   0.03  -0.01
                     25                     26                     27
                        a                      a                      a 
 Frequencies --   199.4321               200.2166               201.2018
 Red. masses --     2.5043                 1.9902                 9.5464
 Frc consts  --     0.0000                 0.0000                 0.0000
 IR Inten    --     0.1763                 0.0651                 0.3052
 Raman Activ --     0.0000                 0.0000                 0.0000
 Depolar     --     0.0000                 0.0000                 0.0000
 Atom AN      X      Y      Z        X      Y      Z        X      Y      Z
   1   6    -0.01  -0.03  -0.03     0.03   0.01  -0.02    -0.05  -0.01   0.07
   2   6    -0.00  -0.00  -0.01     0.01  -0.00  -0.00    -0.03  -0.00   0.02
   3   6     0.01  -0.04  -0.09     0.02   0.03   0.06    -0.05  -0.05  -0.09
   4   6     0.01  -0.01  -0.01     0.01   0.02  -0.02    -0.02  -0.06   0.07
   5   6     0.03   0.01   0.00     0.01   0.00  -0.02    -0.02  -0.00   0.05
   6   6     0.04   0.02  -0.01     0.02  -0.03  -0.00    -0.05   0.09   0.00
   7   6     0.04   0.01  -0.02     0.01  -0.02  -0.01    -0.04   0.06   0.02
   8   6     0.02  -0.01  -0.02     0.00   0.02  -0.03    -0.00  -0.06   0.08
   9   6     0.00   0.00  -0.02     0.00   0.02  -0.03    -0.00  -0.07   0.09
  10   7    -0.01   0.02  -0.03     0.01   0.01  -0.03    -0.02  -0.03   0.08
  11   6    -0.01   0.00   0.05     0.00  -0.00   0.02    -0.01  -0.00  -0.10
  12   6    -0.00  -0.00   0.13    -0.00   0.00   0.08    -0.02   0.00  -0.26
  13   6    -0.00   0.00   0.13    -0.00   0.00   0.08    -0.02   0.00  -0.26
  14   6    -0.00   0.00   0.04    -0.01  -0.00   0.03    -0.01   0.00  -0.10
  15   7     0.00  -0.02  -0.03    -0.01  -0.02  -0.01    -0.02   0.03   0.08
  16   6     0.00   0.00  -0.03    -0.02  -0.04  -0.02    -0.03  -0.05   0.05
  17   6    -0.02   0.00  -0.04    -0.02  -0.05  -0.03     0.04  -0.08   0.08
  18   6    -0.04  -0.01  -0.04    -0.01  -0.00  -0.01     0.15   0.02   0.11
  19   6    -0.04   0.01  -0.01     0.01   0.04   0.02     0.14   0.02   0.05
  20   6    -0.01   0.03   0.01    -0.01   0.02   0.01     0.03  -0.08  -0.04
  21   6     0.00   0.01  -0.01    -0.01  -0.02  -0.02    -0.03  -0.07   0.00
  22   6     0.01   0.00  -0.01    -0.01  -0.00  -0.01    -0.03   0.00   0.02
  23   6     0.01   0.01  -0.03    -0.03   0.03  -0.02    -0.06   0.01   0.07
  24   6     0.02   0.00  -0.01     0.00   0.04  -0.10    -0.05   0.06  -0.10
  25   6     0.01  -0.01  -0.02     0.00   0.01  -0.00    -0.02   0.06   0.07
  26   6     0.02  -0.00  -0.01     0.02  -0.01   0.01    -0.02   0.00   0.05
  27   6     0.03   0.01  -0.01     0.03  -0.03  -0.01    -0.04  -0.10  -0.00
  28   6     0.03   0.01  -0.02     0.03  -0.01  -0.01    -0.03  -0.06   0.02
  29   6     0.01  -0.01  -0.03     0.01   0.01  -0.01    -0.00   0.06   0.08
  30   6     0.00  -0.02  -0.03    -0.00   0.01  -0.01    -0.01   0.07   0.09
  31   6    -0.01   0.00   0.08    -0.01  -0.00   0.06     0.00   0.00  -0.20
  32   7    -0.01   0.00   0.10    -0.01   0.00   0.08     0.02   0.00  -0.21
  33   6    -0.00   0.00   0.03    -0.00  -0.00   0.03     0.01   0.00  -0.04
  34   6     0.00  -0.00  -0.03     0.01   0.00  -0.01    -0.01   0.00   0.09
  35   6     0.01  -0.00  -0.04     0.01   0.00  -0.01    -0.01  -0.01   0.10
  36   6    -0.00  -0.00   0.01    -0.00  -0.00   0.02     0.00  -0.02  -0.02
  37   6    -0.01  -0.00   0.04    -0.01  -0.00   0.03     0.01  -0.02  -0.10
  38   6    -0.00  -0.00  -0.01     0.00   0.00  -0.02    -0.00  -0.01   0.01
  39   6     0.01  -0.00  -0.04     0.01   0.00  -0.03    -0.01   0.00   0.10
  40   6     0.01   0.00  -0.05     0.00   0.00  -0.03    -0.01  -0.00   0.10
  41   6     0.00   0.00  -0.03     0.00   0.00   0.00    -0.00   0.01   0.01
  42   6    -0.01  -0.00   0.04    -0.00  -0.00   0.03     0.01   0.02  -0.10
  43   6    -0.01  -0.00   0.03    -0.00  -0.00   0.00     0.00   0.02  -0.01
  44   6     0.01  -0.00  -0.03     0.00   0.00  -0.03    -0.01   0.01   0.10
  45   6     0.01   0.00  -0.03     0.00   0.00  -0.03    -0.01  -0.00   0.09
  46   6    -0.00   0.00   0.03    -0.00  -0.00   0.01     0.01  -0.00  -0.04
  47   7    -0.01  -0.00   0.09    -0.01  -0.00   0.04     0.02  -0.00  -0.22
  48   6    -0.01   0.00   0.08    -0.01  -0.00   0.05     0.00   0.00  -0.20
  49   6    -0.01   0.03  -0.03     0.01  -0.03  -0.01    -0.03   0.05   0.05
  50   6    -0.03   0.03  -0.04    -0.00  -0.04  -0.02     0.04   0.07   0.08
  51   6    -0.03   0.00  -0.02    -0.04   0.01  -0.03     0.14  -0.02   0.10
  52   6    -0.01  -0.04   0.01    -0.04   0.02  -0.02     0.14  -0.01   0.05
  53   6    -0.01  -0.03   0.01    -0.01  -0.02   0.01     0.03   0.08  -0.04
  54   6    -0.01   0.01  -0.02     0.01  -0.03   0.00    -0.03   0.06   0.00
  55   1     0.01  -0.12  -0.24     0.00   0.05   0.10    -0.01  -0.05  -0.09
  56   1     0.11   0.21   0.03    -0.05  -0.09  -0.03     0.05   0.10   0.05
  57   1    -0.13  -0.13   0.17     0.07   0.06  -0.09    -0.08  -0.06   0.11
  58   1     0.34  -0.01   0.25    -0.11   0.01  -0.08     0.03  -0.03   0.01
  59   1     0.05  -0.21  -0.43    -0.01   0.08   0.16    -0.01  -0.05  -0.09
  60   1    -0.38   0.17   0.08     0.14  -0.06  -0.02    -0.07   0.03  -0.03
  61   1     0.01   0.00   0.01     0.00  -0.00  -0.01    -0.01  -0.00   0.02
  62   1     0.01   0.01  -0.00     0.01  -0.02   0.00    -0.02   0.05  -0.01
  63   1     0.01   0.00  -0.01     0.01  -0.01   0.00    -0.02   0.04  -0.00
  64   1     0.01  -0.01  -0.01    -0.00   0.01  -0.01     0.00  -0.03   0.02
  65   1    -0.00   0.00   0.04    -0.00   0.00   0.03    -0.01  -0.00  -0.08
  66   1    -0.00  -0.00   0.04     0.00  -0.00   0.03    -0.01   0.00  -0.08
  67   1    -0.00   0.00  -0.01    -0.01  -0.02  -0.01     0.00  -0.04   0.03
  68   1    -0.02  -0.01  -0.02    -0.00   0.00  -0.00     0.06   0.02   0.05
  69   1    -0.01   0.00  -0.00     0.01   0.03   0.01     0.06   0.02   0.02
  70   1    -0.00   0.01   0.01     0.00   0.01   0.01     0.00  -0.04  -0.04
  71   1     0.01   0.03  -0.06     0.01   0.12  -0.24    -0.01   0.06  -0.11
  72   1    -0.03   0.03   0.03    -0.14   0.13   0.18    -0.10   0.07   0.13
  73   1     0.03  -0.05   0.00     0.10  -0.21   0.04     0.05  -0.12   0.05
  74   1     0.12  -0.00   0.08     0.34   0.01   0.24     0.06   0.03   0.03
  75   1     0.02   0.06  -0.13     0.04   0.22  -0.43    -0.01   0.08  -0.13
  76   1    -0.12  -0.05   0.03    -0.39  -0.17   0.07    -0.10  -0.04  -0.02
  77   1     0.01  -0.00   0.00     0.01  -0.00   0.01    -0.01   0.00   0.02
  78   1     0.01   0.01   0.00     0.01  -0.01  -0.00    -0.02  -0.06  -0.01
  79   1     0.01   0.01  -0.00     0.01  -0.00  -0.01    -0.02  -0.04  -0.00
  80   1     0.00  -0.00  -0.01     0.00   0.01  -0.00     0.00   0.03   0.02
  81   1     0.00  -0.00  -0.02     0.01  -0.00  -0.01    -0.00  -0.00   0.04
  82   1    -0.00  -0.00   0.01    -0.00  -0.00   0.01     0.00  -0.01  -0.02
  83   1    -0.01   0.00   0.03    -0.00  -0.00   0.02     0.01  -0.01  -0.07
  84   1    -0.00   0.00  -0.00     0.00   0.00  -0.01    -0.00  -0.00  -0.00
  85   1     0.00   0.00  -0.02    -0.00   0.00   0.00    -0.00   0.00  -0.00
  86   1    -0.00  -0.00   0.03    -0.00  -0.00   0.02     0.01   0.01  -0.07
  87   1    -0.00   0.00   0.02    -0.00  -0.00   0.00     0.00   0.01  -0.02
  88   1     0.01   0.00  -0.02    -0.00  -0.00  -0.01    -0.00   0.00   0.04
  89   1    -0.01   0.01  -0.01     0.00  -0.02  -0.01     0.00   0.04   0.03
  90   1    -0.01   0.00  -0.01    -0.02   0.01  -0.01     0.06  -0.02   0.05
  91   1     0.00  -0.02   0.01    -0.02   0.01  -0.01     0.06  -0.02   0.02
  92   1     0.00  -0.01   0.01    -0.00  -0.01   0.01     0.00   0.04  -0.03
                     28                     29                     30
                        a                      a                      a 
 Frequencies --   220.5909               222.0077               228.6163
 Red. masses --     8.7124                 9.2007                10.5791
 Frc consts  --     0.0000                 0.0000                 0.0000
 IR Inten    --     0.0018                 1.2476                 0.5201
 Raman Activ --     0.0000                 0.0000                 0.0000
 Depolar     --     0.0000                 0.0000                 0.0000
 Atom AN      X      Y      Z        X      Y      Z        X      Y      Z
   1   6     0.13   0.00  -0.14    -0.10   0.00   0.12     0.08   0.04   0.04
   2   6     0.07   0.00   0.00    -0.05  -0.01  -0.01     0.04  -0.03   0.01
   3   6     0.10   0.07   0.16    -0.08  -0.07  -0.15     0.04  -0.07  -0.07
   4   6     0.01   0.09  -0.05    -0.00  -0.09   0.04     0.04  -0.07   0.03
   5   6    -0.04   0.03  -0.06     0.08  -0.02   0.07    -0.02  -0.03  -0.02
   6   6    -0.04  -0.14   0.05     0.12   0.15  -0.06    -0.08   0.10  -0.06
   7   6    -0.05  -0.09   0.06     0.13   0.10  -0.09    -0.05   0.01   0.00
   8   6    -0.05   0.12  -0.01     0.09  -0.12  -0.04     0.01  -0.11   0.07
   9   6     0.00   0.11  -0.03    -0.00  -0.10   0.00     0.03  -0.05   0.03
  10   7     0.03   0.02  -0.00    -0.05  -0.01  -0.04    -0.00   0.12  -0.05
  11   6     0.01   0.04   0.02    -0.05  -0.02   0.04     0.01   0.13  -0.03
  12   6    -0.00   0.05   0.02    -0.07  -0.02   0.20    -0.00   0.14  -0.03
  13   6    -0.00   0.05  -0.01    -0.07   0.01   0.20     0.00   0.13   0.03
  14   6    -0.02   0.04  -0.02    -0.05   0.02   0.04    -0.00   0.13   0.03
  15   7    -0.03   0.02  -0.00    -0.05   0.00  -0.04     0.00   0.12   0.05
  16   6    -0.08  -0.13  -0.05    -0.07  -0.09  -0.07    -0.01   0.05   0.03
  17   6    -0.06  -0.19  -0.04    -0.05  -0.15  -0.07     0.02  -0.01   0.04
  18   6     0.08   0.03   0.04     0.05   0.03  -0.00     0.06  -0.06  -0.00
[...]
  38   6    -0.00  -0.00  -0.00    -0.00  -0.00  -0.00     0.00   0.00   0.00
  39   6    -0.00  -0.00  -0.00    -0.00  -0.00  -0.00     0.00   0.00   0.00
  40   6    -0.00   0.00  -0.00     0.00  -0.00   0.00    -0.00   0.00  -0.00
  41   6    -0.00   0.00  -0.00     0.00  -0.00   0.00    -0.00   0.00  -0.00
  42   6    -0.00  -0.00  -0.00     0.00   0.00   0.00    -0.00  -0.00  -0.00
  43   6    -0.00   0.00  -0.00     0.00  -0.00   0.00    -0.00  -0.00  -0.00
  44   6     0.00  -0.01   0.00    -0.00   0.00  -0.00     0.00  -0.00   0.00
  45   6    -0.00  -0.00   0.00    -0.00   0.00  -0.00     0.00  -0.00  -0.00
  46   6     0.00  -0.00  -0.00     0.00   0.00   0.00     0.00  -0.00  -0.00
  47   7    -0.00   0.00   0.00     0.00   0.00   0.00    -0.00   0.00   0.00
  48   6     0.00   0.00   0.00     0.00  -0.00  -0.00     0.00  -0.00   0.00
  49   6     0.00   0.00   0.00    -0.00  -0.00  -0.00     0.00   0.00   0.00
  50   6     0.07   0.03  -0.00    -0.03  -0.01   0.00     0.01   0.00  -0.00
  51   6     0.07  -0.01  -0.10    -0.04   0.01   0.06     0.01  -0.00  -0.02
  52   6    -0.06  -0.08  -0.12     0.03   0.04   0.07    -0.01  -0.01  -0.02
  53   6    -0.08  -0.03   0.00     0.04   0.02  -0.00    -0.02  -0.01   0.00
  54   6    -0.00   0.00   0.00     0.00  -0.00  -0.00    -0.00   0.00   0.00
  55   1    -0.00  -0.00   0.00     0.00   0.00  -0.00    -0.00  -0.00   0.00
  56   1     0.01  -0.00  -0.01    -0.01   0.00   0.01     0.00  -0.00  -0.00
  57   1     0.01   0.01   0.02    -0.01  -0.01  -0.01     0.00   0.00   0.00
  58   1     0.01  -0.00  -0.01    -0.01   0.00   0.01     0.00  -0.00  -0.00
  59   1    -0.00  -0.00  -0.00     0.00   0.00  -0.00    -0.00  -0.00   0.00
  60   1     0.01   0.01   0.01    -0.00  -0.01  -0.01     0.00   0.00   0.00
  61   1     0.15   0.04  -0.01    -0.13  -0.03   0.01     0.05   0.01  -0.00
  62   1     0.11  -0.05  -0.17    -0.09   0.04   0.14     0.03  -0.01  -0.05
  63   1    -0.03  -0.04  -0.06     0.03   0.03   0.05    -0.01  -0.01  -0.02
  64   1     0.10   0.02  -0.00    -0.09  -0.02   0.00     0.02   0.01  -0.00
  65   1    -0.02   0.04  -0.00     0.08  -0.14   0.00     0.32  -0.57   0.02
  66   1     0.01   0.01   0.00    -0.08  -0.15  -0.01    -0.32  -0.58  -0.02
  67   1    -0.15   0.06   0.01    -0.19   0.08   0.01     0.04  -0.01  -0.00
  68   1    -0.14  -0.03   0.21    -0.20  -0.05   0.30     0.04   0.01  -0.06
  69   1     0.13  -0.17   0.25     0.18  -0.25   0.36    -0.04   0.05  -0.08
  70   1     0.16  -0.06  -0.01     0.24  -0.09  -0.01    -0.05   0.02   0.00
  71   1    -0.00   0.00   0.00    -0.00   0.00   0.00     0.00  -0.00  -0.00
  72   1     0.01  -0.01   0.01     0.01  -0.01   0.02    -0.00   0.00  -0.00
  73   1     0.01   0.00  -0.01     0.02   0.00  -0.02    -0.00  -0.00   0.01
  74   1     0.00   0.00  -0.01     0.01   0.00  -0.01    -0.00  -0.00   0.00
  75   1    -0.00  -0.00  -0.00    -0.00   0.00   0.00     0.00  -0.00  -0.00
  76   1     0.00  -0.01   0.01     0.01  -0.01   0.01    -0.00   0.00  -0.00
  77   1     0.10  -0.03  -0.01     0.22  -0.06  -0.02    -0.05   0.01   0.00
  78   1     0.07   0.03  -0.10     0.15   0.08  -0.23    -0.04  -0.02   0.06
  79   1    -0.02   0.02  -0.03    -0.05   0.05  -0.08     0.01  -0.02   0.02
  80   1     0.06  -0.01  -0.00     0.13  -0.03  -0.01    -0.03   0.01   0.00
  81   1    -0.01  -0.01  -0.00    -0.01  -0.02  -0.00     0.00   0.01   0.00
  82   1    -0.00  -0.00  -0.00     0.02   0.00   0.00    -0.01  -0.00  -0.00
  83   1    -0.00   0.00  -0.00     0.00  -0.01   0.00    -0.00   0.00  -0.00
  84   1     0.00   0.00   0.00     0.01   0.01   0.00    -0.01  -0.01  -0.00
  85   1     0.00  -0.01   0.00    -0.00   0.01  -0.00     0.01  -0.01   0.00
  86   1     0.00   0.00   0.00    -0.00  -0.01  -0.00     0.00   0.00   0.00
  87   1     0.00   0.00   0.00    -0.01   0.00  -0.00     0.01  -0.00   0.00
  88   1    -0.01   0.02  -0.00     0.01  -0.01   0.00    -0.00   0.01  -0.00
  89   1    -0.22  -0.09   0.01     0.12   0.05  -0.01    -0.03  -0.01   0.00
  90   1    -0.23   0.05   0.33     0.12  -0.03  -0.18    -0.04   0.01   0.06
  91   1     0.20   0.26   0.40    -0.11  -0.15  -0.23     0.04   0.05   0.07
  92   1     0.26   0.10  -0.01    -0.15  -0.06   0.00     0.05   0.02  -0.00
                    265                    266                    267
                        a                      a                      a 
 Frequencies --  3099.1677              3105.1659              3105.4476
 Red. masses --     1.8730                 1.8541                 1.8533
 Frc consts  --     0.0000                 0.0000                 0.0000
 IR Inten    --     6.2407                23.7457                36.9156
 Raman Activ --     0.0000                 0.0000                 0.0000
 Depolar     --     0.0000                 0.0000                 0.0000
 Atom AN      X      Y      Z        X      Y      Z        X      Y      Z
   1   6     0.00   0.00   0.00    -0.00  -0.00  -0.00    -0.00  -0.00   0.00
   2   6     0.00   0.00   0.00     0.00  -0.00  -0.00     0.00  -0.00  -0.00
   3   6     0.00   0.00   0.00    -0.00  -0.00  -0.00     0.00  -0.00  -0.00
   4   6     0.00   0.00   0.00    -0.00  -0.00   0.00    -0.00  -0.00   0.00
   5   6     0.00   0.00  -0.00    -0.02  -0.01   0.00    -0.00  -0.00   0.00
   6   6     0.00  -0.00  -0.00    -0.03   0.01   0.04    -0.01   0.00   0.01
   7   6    -0.00  -0.00  -0.00     0.04   0.04   0.07     0.01   0.01   0.01
   8   6     0.00   0.00  -0.00     0.24   0.06  -0.01     0.04   0.01  -0.00
   9   6     0.00  -0.00  -0.00     0.01  -0.00  -0.01     0.00  -0.00  -0.00
  10   7     0.00   0.00   0.00     0.00   0.00   0.00     0.00  -0.00  -0.00
  11   6    -0.00   0.00  -0.00    -0.00  -0.00  -0.00    -0.00  -0.00  -0.00
  12   6     0.00  -0.00   0.00    -0.00   0.00  -0.00    -0.00   0.00  -0.00
  13   6     0.00   0.00   0.00    -0.00  -0.00  -0.00    -0.00  -0.00  -0.00
  14   6    -0.00  -0.00  -0.00    -0.00  -0.00   0.00    -0.00   0.00  -0.00
  15   7     0.00  -0.00   0.00    -0.00   0.00  -0.00     0.00  -0.00   0.00
  16   6     0.00   0.00  -0.00     0.00  -0.00   0.00     0.00  -0.00   0.00
  17   6     0.00  -0.00  -0.00    -0.00   0.00   0.00     0.00  -0.00  -0.00
  18   6    -0.00  -0.00   0.00    -0.00  -0.00   0.00     0.00   0.00  -0.00
  19   6     0.00  -0.00   0.00     0.00  -0.00   0.00    -0.00   0.00  -0.00
  20   6     0.00  -0.00  -0.00     0.00  -0.00   0.00    -0.00   0.00   0.00
  21   6     0.00  -0.00  -0.00    -0.00  -0.00   0.00     0.00   0.00  -0.00
  22   6     0.00  -0.00   0.00    -0.00  -0.00   0.00     0.00   0.00  -0.00
  23   6     0.00  -0.00   0.00     0.00  -0.00   0.00    -0.00   0.00  -0.00
  24   6     0.00  -0.00   0.00     0.00   0.00   0.00    -0.00   0.00  -0.00
  25   6     0.00  -0.00   0.00     0.00  -0.00  -0.00    -0.00   0.00   0.00
  26   6     0.00  -0.00  -0.00     0.00  -0.00  -0.00    -0.02   0.01   0.00
  27   6     0.00   0.00  -0.00     0.01   0.00  -0.01    -0.03  -0.01   0.04
  28   6    -0.00   0.00  -0.00    -0.01   0.01  -0.01     0.04  -0.05   0.07
  29   6     0.00  -0.00  -0.00    -0.04   0.01   0.00     0.24  -0.06  -0.01
  30   6     0.00   0.00  -0.00    -0.00  -0.00   0.00     0.01   0.00  -0.01
  31   6    -0.00   0.00  -0.00     0.00   0.00  -0.00    -0.00  -0.00   0.00
  32   7     0.00  -0.00   0.00     0.00   0.00  -0.00    -0.00   0.00  -0.00
  33   6    -0.00  -0.00  -0.00     0.00  -0.00   0.00     0.00  -0.00   0.00
  34   6     0.00   0.00   0.00    -0.00  -0.00  -0.00    -0.00   0.00  -0.00
  35   6    -0.01  -0.02  -0.00    -0.00  -0.00  -0.00    -0.00  -0.00  -0.00
  36   6     0.04   0.00   0.01    -0.00  -0.00  -0.00     0.00   0.00   0.00
  37   6     0.04  -0.07   0.01    -0.00   0.00  -0.00     0.00   0.00   0.00
  38   6    -0.08  -0.16  -0.01     0.00   0.00   0.00     0.00   0.00   0.00
  39   6    -0.01  -0.00  -0.00     0.00   0.00   0.00    -0.00  -0.00   0.00
  40   6    -0.01   0.00  -0.00    -0.00   0.00  -0.00     0.00   0.00   0.00
  41   6    -0.08   0.16  -0.01     0.00  -0.00  -0.00     0.00  -0.00   0.00
  42   6     0.04   0.07   0.01     0.00  -0.00   0.00    -0.00  -0.00  -0.00
  43   6     0.04  -0.00   0.01     0.00  -0.00   0.00     0.00   0.00   0.00
  44   6    -0.01   0.02  -0.00    -0.00   0.00  -0.00    -0.00   0.00  -0.00
  45   6     0.00  -0.00   0.00    -0.00   0.00  -0.00    -0.00   0.00  -0.00
  46   6    -0.00   0.00  -0.00     0.00   0.00   0.00     0.00   0.00   0.00
  47   7     0.00   0.00   0.00    -0.00  -0.00  -0.00    -0.00  -0.00  -0.00
  48   6    -0.00  -0.00  -0.00    -0.00   0.00   0.00     0.00   0.00   0.00
  49   6     0.00  -0.00  -0.00     0.00   0.00   0.00     0.00   0.00   0.00
  50   6     0.00   0.00  -0.00     0.01   0.00  -0.00    -0.00  -0.00   0.00
  51   6    -0.00   0.00   0.00     0.00  -0.00  -0.00    -0.00   0.00   0.00
  52   6     0.00   0.00   0.00    -0.00  -0.00  -0.00    -0.00  -0.00  -0.00
  53   6     0.00   0.00  -0.00    -0.00  -0.00   0.00    -0.00  -0.00   0.00
  54   6     0.00   0.00  -0.00     0.00  -0.00  -0.00    -0.00  -0.00  -0.00
  55   1     0.00   0.00  -0.00    -0.00   0.00  -0.00     0.00   0.00  -0.00
  56   1    -0.00   0.00   0.00     0.00  -0.00  -0.00     0.00  -0.00  -0.00
  57   1    -0.00  -0.00  -0.00     0.00   0.00   0.00     0.00   0.00   0.00
  58   1    -0.00   0.00   0.00     0.00  -0.00  -0.00     0.00  -0.00  -0.00
  59   1     0.00  -0.00   0.00     0.00  -0.00   0.00    -0.00   0.00  -0.00
  60   1    -0.00  -0.00  -0.00     0.00   0.00   0.00     0.00   0.00   0.00
  61   1    -0.00  -0.00   0.00     0.07   0.02  -0.01     0.01   0.00  -0.00
  62   1    -0.00   0.00   0.00     0.09  -0.04  -0.14     0.02  -0.01  -0.02
  63   1     0.00   0.00   0.00    -0.13  -0.14  -0.22    -0.02  -0.02  -0.04
  64   1    -0.00  -0.00   0.00    -0.86  -0.20   0.04    -0.15  -0.03   0.01
  65   1    -0.00   0.00  -0.00     0.00  -0.00  -0.00     0.01  -0.02   0.00
  66   1    -0.00  -0.00  -0.00     0.01   0.01   0.00     0.01   0.01  -0.00
  67   1    -0.00   0.00   0.00     0.01  -0.00  -0.00    -0.02   0.01   0.00
  68   1     0.00   0.00  -0.00     0.01   0.00  -0.01    -0.01  -0.00   0.01
  69   1    -0.00   0.00  -0.00    -0.00   0.00  -0.00     0.01  -0.01   0.01
  70   1    -0.00   0.00   0.00    -0.00   0.00   0.00     0.01  -0.00  -0.00
  71   1     0.00  -0.00  -0.00     0.00  -0.00  -0.00    -0.00  -0.00  -0.00
  72   1    -0.00   0.00  -0.00    -0.00   0.00  -0.00     0.00  -0.00   0.00
  73   1    -0.00  -0.00   0.00    -0.00  -0.00   0.00     0.00   0.00  -0.00
  74   1    -0.00  -0.00   0.00    -0.00  -0.00   0.00     0.00   0.00  -0.00
  75   1     0.00   0.00   0.00    -0.00  -0.00  -0.00     0.00   0.00   0.00
  76   1    -0.00   0.00  -0.00    -0.00   0.00  -0.00     0.00  -0.00   0.00
  77   1    -0.00   0.00   0.00    -0.01   0.00   0.00     0.07  -0.02  -0.01
  78   1    -0.00  -0.00   0.00    -0.02  -0.01   0.02     0.09   0.04  -0.14
  79   1     0.00  -0.00   0.00     0.02  -0.02   0.04    -0.13   0.14  -0.21
  80   1    -0.00   0.00   0.00     0.15  -0.03  -0.01    -0.86   0.20   0.04
  81   1     0.04   0.07   0.01     0.00   0.00   0.00     0.00   0.00   0.00
  82   1    -0.14  -0.00  -0.02     0.00  -0.00   0.00    -0.00  -0.00  -0.00
  83   1    -0.13   0.21  -0.03     0.00  -0.00   0.00     0.00  -0.00   0.00
  84   1     0.28   0.54   0.03    -0.00  -0.00  -0.00    -0.00  -0.00  -0.00
  85   1     0.29  -0.54   0.02    -0.00   0.00   0.00    -0.00   0.00  -0.00
  86   1    -0.12  -0.22  -0.03     0.00   0.00   0.00     0.00   0.00   0.00
  87   1    -0.14   0.00  -0.02    -0.00   0.00  -0.00    -0.00   0.00  -0.00
  88   1     0.04  -0.08   0.00     0.00  -0.00   0.00     0.00  -0.00   0.00
  89   1    -0.00  -0.00   0.00    -0.02  -0.01   0.00     0.01   0.00  -0.00
  90   1     0.00  -0.00  -0.00    -0.01   0.00   0.02     0.00  -0.00  -0.00
  91   1    -0.00  -0.00  -0.00     0.01   0.01   0.01     0.00   0.00   0.00
  92   1    -0.00  -0.00   0.00     0.01   0.00  -0.00     0.00   0.00  -0.00
                    268                    269                    270
                        a                      a                      a 
 Frequencies --  3108.0666              3108.3692              3109.2883
 Red. masses --     1.8595                 1.8573                 1.8391
 Frc consts  --     0.0000                 0.0000                 0.0000
 IR Inten    --    12.3803                13.8431                59.9346
 Raman Activ --     0.0000                 0.0000                 0.0000
 Depolar     --     0.0000                 0.0000                 0.0000
 Atom AN      X      Y      Z        X      Y      Z        X      Y      Z
   1   6    -0.00  -0.00   0.00     0.00   0.00   0.00     0.00   0.00  -0.00
   2   6    -0.00   0.00   0.00     0.00  -0.00  -0.00     0.00  -0.00  -0.00
   3   6    -0.00   0.00  -0.00     0.00  -0.00   0.00     0.00  -0.00  -0.00
   4   6     0.00   0.00   0.00     0.00   0.00   0.00    -0.00   0.00   0.00
   5   6     0.00   0.00   0.00     0.00   0.00  -0.00     0.00   0.00  -0.00
   6   6     0.00  -0.00  -0.00     0.00  -0.00  -0.00     0.00  -0.00  -0.00
   7   6    -0.00  -0.00  -0.00     0.00   0.00   0.00    -0.00  -0.00  -0.00
   8   6    -0.00  -0.00   0.00     0.00   0.00  -0.00     0.00   0.00   0.00
   9   6    -0.00   0.00   0.00     0.00  -0.00  -0.00     0.00  -0.00  -0.00
  10   7     0.00   0.00   0.00     0.00   0.00  -0.00    -0.00   0.00   0.00
  11   6     0.00   0.00   0.00    -0.00   0.00  -0.00     0.00   0.00   0.00
  12   6     0.00  -0.00   0.00     0.00  -0.00   0.00     0.00  -0.00   0.00
  13   6    -0.00  -0.00   0.00    -0.00  -0.00  -0.00    -0.00  -0.00  -0.00
  14   6     0.00   0.00   0.00    -0.00   0.00  -0.00    -0.00   0.00  -0.00
  15   7    -0.00   0.00   0.00    -0.00   0.00  -0.00     0.00   0.00  -0.00
  16   6     0.00  -0.00  -0.00    -0.00   0.00   0.00     0.00  -0.00  -0.00
  17   6     0.00  -0.00   0.00    -0.00   0.00   0.00     0.00  -0.00   0.00
  18   6     0.00   0.00  -0.00    -0.00  -0.00   0.00     0.00   0.00  -0.00
  19   6    -0.00   0.00  -0.00     0.00  -0.00   0.00    -0.00   0.00  -0.00
  20   6    -0.00   0.00   0.00     0.00  -0.00   0.00    -0.00   0.00  -0.00
  21   6    -0.00  -0.00   0.00     0.00   0.00  -0.00    -0.00  -0.00   0.00
  22   6    -0.00   0.00  -0.00     0.00   0.00  -0.00    -0.00  -0.00   0.00
  23   6    -0.00   0.00  -0.00     0.00  -0.00  -0.00    -0.00   0.00   0.00
  24   6    -0.00   0.00  -0.00     0.00   0.00   0.00    -0.00  -0.00  -0.00
  25   6    -0.00   0.00  -0.00    -0.00   0.00  -0.00     0.00   0.00  -0.00
  26   6    -0.00   0.00   0.00    -0.00   0.00  -0.00    -0.00   0.00   0.00
  27   6     0.00   0.00  -0.00    -0.00  -0.00   0.00    -0.00  -0.00   0.00
  28   6    -0.00   0.00  -0.00     0.00  -0.00   0.00     0.00  -0.00   0.00
  29   6    -0.00   0.00   0.00     0.00  -0.00  -0.00    -0.00   0.00  -0.00
  30   6    -0.00  -0.00   0.00     0.00   0.00  -0.00    -0.00  -0.00   0.00
  31   6     0.00  -0.00  -0.00     0.00  -0.00   0.00    -0.00   0.00  -0.00
  32   7    -0.00   0.00  -0.00    -0.00  -0.00  -0.00     0.00   0.00   0.00
  33   6    -0.00  -0.00  -0.00     0.00   0.00   0.00     0.00  -0.00   0.00
  34   6    -0.00  -0.00  -0.00    -0.00   0.01  -0.00    -0.00  -0.00  -0.00
  35   6    -0.00  -0.00  -0.00     0.11   0.23   0.02    -0.03  -0.06  -0.00
  36   6    -0.00  -0.00  -0.00     0.08  -0.00   0.01    -0.04  -0.00  -0.01
  37   6    -0.01   0.01  -0.00     0.00  -0.01   0.00    -0.02   0.05  -0.01
  38   6     0.02   0.04   0.00     0.02   0.04   0.00     0.08   0.16   0.01
  39   6     0.00   0.00   0.00     0.00  -0.00   0.00     0.00   0.00   0.00
  40   6    -0.00  -0.00  -0.00    -0.00   0.00  -0.00    -0.00   0.00  -0.00
  41   6    -0.01   0.03  -0.00    -0.02   0.05  -0.00    -0.08   0.16  -0.01
  42   6    -0.00  -0.01  -0.00     0.01   0.01   0.00     0.02   0.04   0.01
  43   6    -0.08  -0.00  -0.01     0.01  -0.00   0.00     0.03  -0.00   0.01
  44   6    -0.12   0.23  -0.01     0.00  -0.01   0.00     0.02  -0.04   0.00
  45   6     0.00   0.01   0.00     0.00  -0.00  -0.00     0.00  -0.00   0.00
  46   6    -0.00   0.00  -0.00     0.00  -0.00   0.00    -0.00  -0.00  -0.00
  47   7     0.00  -0.00   0.00    -0.00   0.00   0.00    -0.00   0.00  -0.00
  48   6    -0.00  -0.00  -0.00    -0.00  -0.00   0.00     0.00   0.00   0.00
  49   6     0.00   0.00  -0.00    -0.00  -0.00   0.00     0.00   0.00   0.00
  50   6     0.00   0.00  -0.00    -0.00  -0.00  -0.00    -0.00  -0.00  -0.00
  51   6     0.00  -0.00  -0.00    -0.00   0.00   0.00    -0.00   0.00   0.00
  52   6    -0.00  -0.00  -0.00     0.00   0.00   0.00     0.00   0.00   0.00
  53   6    -0.00  -0.00  -0.00     0.00   0.00   0.00     0.00   0.00   0.00
  54   6    -0.00   0.00   0.00     0.00  -0.00  -0.00     0.00  -0.00  -0.00
  55   1     0.00   0.00  -0.00    -0.00  -0.00   0.00     0.00   0.00  -0.00
  56   1     0.00  -0.00  -0.00    -0.00   0.00   0.00    -0.00   0.00   0.00
  57   1    -0.00  -0.00  -0.00    -0.00  -0.00  -0.00    -0.00  -0.00  -0.00
  58   1    -0.00   0.00   0.00    -0.00   0.00   0.00    -0.00   0.00   0.00
  59   1     0.01  -0.01   0.00    -0.00   0.00  -0.00    -0.00   0.00  -0.00
  60   1    -0.00  -0.00  -0.00    -0.00  -0.00  -0.00     0.00   0.00   0.00
  61   1    -0.00  -0.00  -0.00    -0.00  -0.00   0.00    -0.00  -0.00   0.00
  62   1    -0.00   0.00   0.00    -0.00   0.00   0.00    -0.00   0.00   0.00
  63   1     0.00   0.00   0.00    -0.00  -0.00  -0.00     0.00   0.00   0.00
  64   1     0.00   0.00  -0.00    -0.00  -0.00   0.00    -0.00  -0.00   0.00
  65   1    -0.00   0.00  -0.00    -0.00   0.00  -0.00    -0.00   0.01  -0.00
  66   1     0.00   0.00   0.00     0.00   0.00   0.00     0.00   0.01   0.00
  67   1    -0.00   0.00   0.00     0.01  -0.00  -0.00    -0.00   0.00   0.00
  68   1    -0.00  -0.00   0.00     0.01   0.00  -0.01    -0.00  -0.00   0.01
  69   1     0.00  -0.00   0.00    -0.01   0.01  -0.01     0.00  -0.01   0.01
  70   1     0.00  -0.00  -0.00    -0.00   0.00   0.00     0.01  -0.00  -0.00
  71   1     0.00  -0.00  -0.00    -0.00   0.00   0.00    -0.00  -0.00   0.00
  72   1     0.00  -0.00   0.00     0.00  -0.00   0.00     0.00  -0.00   0.00
  73   1     0.00   0.00  -0.00    -0.00  -0.00   0.00     0.00   0.00  -0.00
  74   1     0.00   0.00  -0.00     0.00   0.00  -0.00     0.00   0.00  -0.00
  75   1    -0.00  -0.00  -0.00    -0.01  -0.01  -0.00     0.00   0.00   0.00
  76   1     0.00  -0.00   0.00     0.00  -0.00   0.00    -0.00   0.00  -0.00
  77   1     0.00  -0.00  -0.00     0.00  -0.00  -0.00     0.00  -0.00  -0.00
  78   1    -0.00  -0.00   0.00     0.00   0.00  -0.00     0.00   0.00  -0.00
  79   1     0.00  -0.00   0.00    -0.00   0.00  -0.00    -0.00   0.00  -0.00
  80   1     0.00  -0.00  -0.00    -0.00   0.00   0.00     0.00  -0.00  -0.00
  81   1     0.00   0.01   0.00    -0.41  -0.80  -0.06     0.10   0.19   0.01
  82   1     0.02   0.00   0.00    -0.23  -0.00  -0.04     0.12   0.00   0.02
  83   1     0.02  -0.03   0.00    -0.01   0.02  -0.00     0.08  -0.13   0.02
  84   1    -0.07  -0.13  -0.01    -0.07  -0.13  -0.01    -0.29  -0.55  -0.03
  85   1     0.05  -0.10   0.00     0.09  -0.16   0.01     0.29  -0.55   0.02
  86   1     0.02   0.03   0.00    -0.02  -0.04  -0.00    -0.08  -0.13  -0.02
  87   1     0.24  -0.00   0.04    -0.02   0.00  -0.00    -0.10   0.00  -0.02
  88   1     0.42  -0.80   0.05    -0.01   0.02  -0.00    -0.07   0.14  -0.01
  89   1    -0.01  -0.00   0.00     0.00   0.00  -0.00     0.00   0.00   0.00
  90   1    -0.01   0.00   0.01     0.00  -0.00  -0.00     0.00  -0.00  -0.00
  91   1     0.01   0.01   0.01    -0.00  -0.00  -0.00    -0.00  -0.00  -0.01
  92   1     0.01   0.00  -0.00    -0.00  -0.00   0.00    -0.00  -0.00   0.00
