$hessian                                                                        
        0.4311854182   0.0070333515   0.2321405366  -0.3943067366  -0.0040578262
       -0.2092466376  -0.0306901527  -0.0030761413  -0.0142234846  -0.0014506173
        0.0002393974   0.0002111414   0.0008634265  -0.0005224216  -0.0024614970
       -0.0003171793  -0.0002657775   0.0000271966  -0.0002095500   0.0003448641
        0.0003697279   0.0018517863  -0.0006851913  -0.0008960885  -0.0038743090
       -0.0001356853   0.0009548636  -0.0073149108  -0.0032420319  -0.0029201978
        0.0010271268   0.0034622153  -0.0031688277  -0.0001698576  -0.0004197444
        0.0008273804  -0.0009073514   0.0012021413  -0.0005471462   0.0001653894
        0.0001813705   0.0001748745   0.0003066385  -0.0000502645  -0.0001479653
       -0.0000015155   0.0001224566   0.0000118311   0.0000380312  -0.0000381402
        0.0000064410   0.0000715512   0.0001299136   0.0000468523   0.0001815834
       -0.0004736989  -0.0000646750  -0.0002034214   0.0004530424   0.0000570510
       -0.0001897472   0.0001174507   0.0000160600   0.0000235223  -0.0001615825
       -0.0000757942   0.0001031856   0.0000547004   0.0000811967  -0.0000871847
       -0.0000314893  -0.0000730146   0.0000121019   0.0001056094   0.0000378582
        0.0003710841  -0.0009728170  -0.0001725974   0.0003561756  -0.0004197200
        0.0000798422  -0.0012095699  -0.0008352847   0.0008646049   0.0018927528
        0.0007552582  -0.0004532958   0.0000315350  -0.0004667524  -0.0000840104
        0.0000088590  -0.0000337148   0.0001370676   0.0000838538  -0.0000123953
       -0.0000123263  -0.0001283240   0.0000936754   0.0001214363   0.0001013220
       -0.0002288564  -0.0000750130  -0.0003683273   0.0004616108   0.0001985699
        0.0004646816  -0.0001250183  -0.0000924274   0.0001433688  -0.0001275929
       -0.0002774009  -0.0000433752   0.0001901899   0.0002233295  -0.0000082105
       -0.0002278592  -0.0000116522   0.0001710677   0.0000210890   0.0000402769
        0.0001061672  -0.0001281579   0.0001265963  -0.0008866817   0.0006829374
        0.0000540045  -0.0016704447   0.0000733677  -0.0001128870   0.0009898018
        0.0005983288   0.0005292295   0.0001807956  -0.0001184436  -0.0001868525
        0.0001956206   0.0001185933  -0.0000449658   0.0013004234   0.0001921898
       -0.0009463258   0.0011877961  -0.0005178518   0.0001999871  -0.0002090279
        0.0000165775   0.0002103109   0.0000068991   0.0000425477   0.0000458345
       -0.0000534917  -0.0000345356  -0.0000291857  -0.0000634415   0.0000126931
       -0.0000063587  -0.0000280036   0.0000173894   0.0000032403  -0.0000261302
        0.0000572605   0.0000114671   0.0000138900   0.0000630380   0.0000394479
       -0.0000580644  -0.0000748039  -0.0000291366   0.0001889871  -0.0000412854
       -0.0001361719  -0.0000495212  -0.0000338208  -0.0000805818  -0.0000100031
        0.0000009224  -0.0000239286   0.0000093338   0.0000020683  -0.0000074920
        0.0000022752   0.0000229516  -0.0000316401  -0.0000120697  -0.0000015796
       -0.0000455134   0.0000021218  -0.0000002979  -0.0000406188  -0.0000386799
       -0.0000506910  -0.0000700131  -0.0001697715   0.0000523669  -0.0001643687
        0.0011170979   0.0006899047  -0.0008881641
        0.0070333515   0.0424210708  -0.0004146008  -0.0037906798  -0.0547224081
        0.0016680547  -0.0102114607   0.0088042318  -0.0052400551  -0.0117951331
        0.0065099801  -0.0079814198   0.0008148990  -0.0013274713  -0.0034906256
       -0.0001499001  -0.0016120392  -0.0000420758  -0.0005305607  -0.0000016017
        0.0003165424   0.0002930020  -0.0004903968   0.0002866023  -0.0007548525
        0.0001974796  -0.0000561139   0.0152350472   0.0063370805   0.0119380543
        0.0008085969  -0.0051317249   0.0040542451  -0.0000571795  -0.0003000883
       -0.0013530136   0.0016472900  -0.0004234200   0.0010249816  -0.0007747960
       -0.0008964496  -0.0005156208  -0.0000030150   0.0001436094   0.0000472291
        0.0001775343  -0.0001246168  -0.0000193997  -0.0000745611   0.0001894843
        0.0000553209  -0.0000055046  -0.0001776504  -0.0001313458   0.0001920588
        0.0000307125   0.0001425064   0.0002281296   0.0003032304   0.0002412853
       -0.0001720952  -0.0004054318  -0.0002893571   0.0000218556   0.0001755728
        0.0001058710  -0.0000616100  -0.0000799679  -0.0000765964   0.0000512999
        0.0000453904   0.0000583517  -0.0001359060  -0.0000158936  -0.0000736083
        0.0000055706   0.0005025985   0.0000543523   0.0000592135   0.0002309656
        0.0001851555   0.0016107139   0.0008488836  -0.0019510709  -0.0012447062
       -0.0003395548   0.0008536219  -0.0000810074   0.0005475133  -0.0001126306
        0.0001289278  -0.0000168567  -0.0000309104  -0.0000710930   0.0000396984
        0.0000770581   0.0000933989  -0.0000413486  -0.0000560526  -0.0000322622
        0.0001605627   0.0000941048   0.0002852464  -0.0003312878  -0.0002752305
       -0.0003157376   0.0002256681   0.0002524605  -0.0001778573   0.0000083588
        0.0000954639   0.0000792399  -0.0001312518  -0.0000876771   0.0000310109
        0.0001553960   0.0000354669  -0.0001215431  -0.0002011936  -0.0000255580
        0.0000061857   0.0001163952   0.0000643530   0.0009141354  -0.0005684331
       -0.0004797614   0.0002931331  -0.0007139638   0.0011900295   0.0000088818
        0.0003020675  -0.0001663379   0.0000043890  -0.0002566361  -0.0002733422
       -0.0000677854   0.0002240312  -0.0002388448  -0.0002575528  -0.0002848318
        0.0000103793  -0.0000295708   0.0000325980   0.0004198995  -0.0000768652
       -0.0002202266  -0.0001256502   0.0000142585   0.0001040081   0.0000887644
        0.0000283920   0.0000256629   0.0000306405   0.0000121404   0.0000188863
        0.0000221830   0.0000355210  -0.0000219687   0.0000102712   0.0000309212
       -0.0000285058  -0.0000007438  -0.0000015742  -0.0000059617  -0.0000003926
        0.0000640154   0.0000762784   0.0000535877   0.0000664335   0.0000361289
        0.0002553835  -0.0001058365   0.0000562567   0.0000290028   0.0000037512
       -0.0000181818  -0.0000112192  -0.0000250073  -0.0000410611  -0.0000085461
       -0.0000328122  -0.0000283480   0.0000021062  -0.0000269498   0.0000195678
        0.0000109254  -0.0000490173   0.0000208631   0.0000282622  -0.0000653857
        0.0000743285   0.0000926788   0.0000929246  -0.0002019197  -0.0001606643
        0.0009283486   0.0001761317  -0.0002067309
        0.2321405366  -0.0004146008   0.1952913972  -0.2104520554   0.0013257511
       -0.1990165509   0.0114214216  -0.0006680197   0.0200933938  -0.0189988691
        0.0017758211  -0.0059705045   0.0012879641  -0.0030144021  -0.0059974131
       -0.0011266796  -0.0014497994  -0.0002550998  -0.0006106993   0.0003259084
        0.0004687782   0.0005065456  -0.0007228399   0.0003040861  -0.0013944968
        0.0001025294   0.0001418666  -0.0110625615  -0.0015096939  -0.0009649007
       -0.0002593751   0.0041963991  -0.0027162485  -0.0002277723  -0.0006673508
        0.0005523054  -0.0011150335   0.0012021408  -0.0003298634   0.0000856538
        0.0001744886  -0.0000323473   0.0003611455  -0.0000714972  -0.0000317283
        0.0000179197   0.0000590803   0.0000274578   0.0000016262  -0.0000827626
       -0.0000075184  -0.0000061129   0.0001726744   0.0000896796   0.0002748512
       -0.0005369333  -0.0001098927  -0.0002657025   0.0005736161   0.0001584215
       -0.0002137391   0.0001092916  -0.0000594237  -0.0000179616  -0.0001985395
       -0.0000880907   0.0000978400   0.0001081421   0.0001219003  -0.0001030159
       -0.0000102875  -0.0000338571  -0.0000242709   0.0000768489   0.0000964396
        0.0004350559  -0.0010897003  -0.0002514921   0.0001459314  -0.0001889667
       -0.0000545330  -0.0012146698  -0.0011105685   0.0005801154   0.0008401399
        0.0010111324  -0.0000046113  -0.0001055737  -0.0008866705  -0.0001097561
        0.0000002957   0.0000823798   0.0001475421   0.0001159875   0.0000344400
       -0.0000189259  -0.0001147662   0.0000545243   0.0000997810   0.0000412008
       -0.0001471326  -0.0000371184   0.0001055555   0.0002037402  -0.0000566281
        0.0002058255   0.0006053032   0.0001367418  -0.0001001679  -0.0006197659
       -0.0001507239  -0.0000271451   0.0000842758   0.0000999567  -0.0000171179
       -0.0000296976   0.0000324455  -0.0000058494   0.0000724273   0.0000465048
       -0.0002966178  -0.0002115380  -0.0000064101   0.0000112792   0.0000362298
       -0.0002494275  -0.0007509900   0.0007897550  -0.0001054896   0.0005668200
        0.0004060530  -0.0002485475   0.0000700258  -0.0003264162  -0.0005236308
       -0.0000355932   0.0001266163  -0.0002404680  -0.0005377953   0.0002525724
       -0.0001137440   0.0006294992  -0.0000603978  -0.0001725009  -0.0001403040
       -0.0000297905   0.0001442287   0.0000370701   0.0000863980   0.0000751195
       -0.0000567919  -0.0000187218  -0.0000365511  -0.0000630066   0.0000207158
       -0.0000243357  -0.0000204535   0.0000287567  -0.0000051249  -0.0000178318
        0.0000529298   0.0000035913   0.0000188596   0.0000740018   0.0000222229
        0.0000083523  -0.0000623639  -0.0000763621   0.0000299959   0.0000013087
       -0.0000993460  -0.0000359451  -0.0000540946  -0.0000850916  -0.0000349270
        0.0000430185  -0.0000015890   0.0000016686   0.0000358275   0.0000000962
        0.0000030465   0.0000245008  -0.0000216394   0.0000349151   0.0000391933
       -0.0000330207   0.0000577264   0.0000098546  -0.0000364235  -0.0000754753
        0.0000575924   0.0000645895   0.0001316381   0.0000040941   0.0000880887
       -0.0001570258  -0.0002577813  -0.0005098198
       -0.3943067366  -0.0037906798  -0.2104520554   0.8836111327   0.0916080866
        0.0245388734  -0.3851973414  -0.1063661609   0.1819603301  -0.0450036950
        0.0081987245   0.0098597574   0.0052225284  -0.0065471042  -0.0107881581
       -0.0029161577  -0.0031101481  -0.0018059719  -0.0003725214   0.0000428001
        0.0000965544  -0.0056251832   0.0004685191   0.0043001195   0.0026386407
        0.0082957570   0.0111277396  -0.0411538895   0.0125644142  -0.0052919208
       -0.0028358849   0.0140821285  -0.0088013332  -0.0028279165   0.0009277772
       -0.0015277345  -0.0011365759  -0.0000377894  -0.0003766477   0.0002975441
        0.0005286635  -0.0001147343  -0.0005223413  -0.0000988744   0.0003559087
       -0.0001103093  -0.0002695199   0.0000117362   0.0000138551  -0.0001004884
        0.0000066215  -0.0001294937  -0.0000246647   0.0001386277  -0.0002938283
        0.0003642491  -0.0001973496  -0.0000204956  -0.0006173243  -0.0000539190
        0.0002759977   0.0002936180   0.0001008341  -0.0000939205   0.0000227599
        0.0000628302  -0.0000601573   0.0000101079   0.0000068846   0.0000085000
        0.0000136404   0.0001016649  -0.0000318609  -0.0001477358   0.0000973293
       -0.0004271764   0.0008214562  -0.0002300292  -0.0011738214   0.0001157724
        0.0000603078  -0.0004438299  -0.0013611500   0.0000345316  -0.0028341216
       -0.0009064483   0.0012505693  -0.0002740933  -0.0002375478   0.0001440795
        0.0000330682   0.0001264588  -0.0001594136  -0.0000724548   0.0000148444
       -0.0000158358   0.0000809998  -0.0000952389  -0.0001084619  -0.0001344830
        0.0002049062   0.0000566362   0.0007276398  -0.0006670590  -0.0003922221
       -0.0006000919   0.0008400127   0.0002560183  -0.0004183677  -0.0003861535
        0.0003662570   0.0000226641  -0.0002003658  -0.0002932296   0.0000082418
        0.0003214327   0.0000309914  -0.0003490037   0.0000442241  -0.0000467288
       -0.0005212827   0.0000713374  -0.0003145000   0.0015313815  -0.0011628573
       -0.0002706233   0.0032384737  -0.0122758572   0.0076384656  -0.0020480259
       -0.0011589380  -0.0022205743  -0.0003099091  -0.0005817864  -0.0010973355
       -0.0005625689   0.0001206396  -0.0002179904  -0.0019664720   0.0004650500
        0.0013858376  -0.0022226787   0.0014064270  -0.0011026177   0.0004924505
        0.0000493638  -0.0004857747   0.0000650248  -0.0000546291  -0.0000555672
        0.0000911831   0.0000430005   0.0000142559   0.0000889236   0.0000006306
       -0.0000264486   0.0000366750  -0.0000070057  -0.0000354355   0.0000384738
       -0.0000689751  -0.0000290057   0.0000033349  -0.0000688101  -0.0000679995
        0.0001597115   0.0000692946  -0.0000518867  -0.0004378714   0.0000065697
        0.0001497667   0.0000849753   0.0000213179   0.0000977845  -0.0000144162
        0.0000589184   0.0000526903  -0.0000149696   0.0000428219   0.0000172774
        0.0000029295  -0.0000160396   0.0000401734   0.0000638598   0.0000386432
        0.0000500298   0.0000552083   0.0000028353   0.0000324942   0.0000199598
        0.0001845057   0.0001715101   0.0005974881  -0.0000629894   0.0004301671
       -0.0020469179  -0.0020693679   0.0015858491
       -0.0040578262  -0.0547224081   0.0013257511   0.0916080866   0.3600476299
       -0.0561711545  -0.1062851676  -0.0894657743   0.0624278723   0.0069743288
       -0.0791495806  -0.0425485731  -0.0037166842  -0.0062718699  -0.0079361722
       -0.0041195125   0.0060257702  -0.0021828850   0.0016039835  -0.0006240116
       -0.0013849800  -0.0023080626   0.0062759922   0.0013307854   0.0072168815
       -0.0021787822  -0.0045471804   0.0127818347  -0.1245727998   0.0347641959
        0.0088380360  -0.0041598449   0.0037189730   0.0056337137   0.0010878837
        0.0045213947  -0.0058911927   0.0003499596  -0.0029548360   0.0028216724
        0.0034209096   0.0016713125  -0.0000421722  -0.0004942122  -0.0001061380
       -0.0006864833   0.0004421120   0.0000613681   0.0003801311  -0.0006740496
       -0.0001496614   0.0000869064   0.0006984126   0.0005863308  -0.0007460633
       -0.0002748478  -0.0006215148  -0.0009396677  -0.0009834433  -0.0008860946
        0.0006096808   0.0015044845   0.0010532631   0.0000200242  -0.0006872276
       -0.0003978277   0.0003178380   0.0002543981   0.0003159628  -0.0002362084
       -0.0001921936  -0.0002526227   0.0003431063   0.0001208180   0.0002674025
        0.0001516563  -0.0021597415   0.0001321332   0.0004549853  -0.0017139334
       -0.0004163469  -0.0070070970  -0.0011283214   0.0049093807   0.0055017703
        0.0019297781  -0.0028463428   0.0003163883  -0.0023830158   0.0004084741
       -0.0003120621   0.0000318587   0.0001887947   0.0003274090  -0.0000660609
       -0.0002778679  -0.0004813699   0.0001943715   0.0003133006   0.0001527824
       -0.0007900974  -0.0004004313  -0.0009823093   0.0013674000   0.0009288563
        0.0012100344  -0.0005890734  -0.0008048990   0.0006967541  -0.0002775162
       -0.0005082956  -0.0003689555   0.0006490676   0.0004861962  -0.0002037979
       -0.0007357727  -0.0001324498   0.0005281846   0.0006140729   0.0000257863
        0.0000356657  -0.0003629341  -0.0001855002  -0.0034689326   0.0022979523
        0.0012892763  -0.0064981452  -0.0101494229   0.0059859397   0.0004661552
       -0.0013866886   0.0010093420   0.0002937636   0.0003591297   0.0000431013
        0.0002781237  -0.0014959083   0.0012465348  -0.0008205723  -0.0006003841
        0.0011089117  -0.0013642078   0.0004637176  -0.0017679660   0.0003027954
        0.0005893852   0.0002849232   0.0000221265  -0.0004093851  -0.0002929183
       -0.0000893526  -0.0000936187  -0.0001058046  -0.0000347599  -0.0000538568
       -0.0000747642  -0.0001150032   0.0000603062  -0.0000413602  -0.0001039186
        0.0000994535   0.0000150657   0.0000268336   0.0000504540   0.0000115388
       -0.0001709517  -0.0002181499  -0.0001392347  -0.0000181500  -0.0003766487
       -0.0008810374   0.0002714672  -0.0001658687  -0.0001092156  -0.0000457896
        0.0000724843   0.0000310932   0.0000725051   0.0001413119   0.0000256316
        0.0001029946   0.0000901308  -0.0000208447   0.0000794392  -0.0000460600
       -0.0000517120   0.0001443858  -0.0000695670  -0.0000885350   0.0001900483
       -0.0002346066  -0.0002750990  -0.0003108346   0.0005465695   0.0004085463
        0.0005627575   0.0001718632  -0.0013371736
       -0.2092466376   0.0016680547  -0.1990165509   0.0245388734  -0.0561711545
        0.5474579036   0.1808337560   0.0620103228  -0.1694183762   0.0091848392
       -0.0488155720  -0.1016758562  -0.0065998543  -0.0075476046  -0.0110820741
       -0.0016942397  -0.0027048397   0.0031515579   0.0012828357  -0.0008470415
       -0.0019713304  -0.0002638178  -0.0003788556   0.0048506146   0.0101416396
       -0.0045087176  -0.0117208726  -0.0058708234   0.0383412649  -0.0588842428
       -0.0058102087   0.0050865585  -0.0054359555  -0.0028199142   0.0038251067
        0.0042409863   0.0017656828  -0.0018194041  -0.0006757474   0.0002963757
        0.0000016451   0.0006559176  -0.0010509015   0.0003688667  -0.0001326962
       -0.0000341651  -0.0001767683  -0.0001679956  -0.0000198920   0.0001005357
       -0.0000546935  -0.0000023947  -0.0002167575  -0.0002191116  -0.0007934536
        0.0013416510   0.0002902418   0.0006945298  -0.0014990409  -0.0004928331
        0.0005177127  -0.0001505805   0.0002859048   0.0000033984   0.0003526465
        0.0001148617  -0.0002103441  -0.0001726743  -0.0002546556   0.0002340075
        0.0000523896   0.0000336127   0.0001849016  -0.0002400658  -0.0003105101
       -0.0009517289   0.0022660217   0.0004673007  -0.0002066235   0.0006453134
        0.0000576587   0.0017898418   0.0045807486   0.0042731476  -0.0012826637
       -0.0022923271  -0.0005409482   0.0003210080   0.0024050816   0.0002941068
       -0.0000619697  -0.0002631240  -0.0003107814  -0.0002432699  -0.0000221227
        0.0000273485   0.0002695997  -0.0001351907  -0.0002321193  -0.0000918613
        0.0003525096   0.0000980226  -0.0004482309  -0.0002906187   0.0002727995
       -0.0003226774  -0.0016848273  -0.0004211076   0.0003883760   0.0015434552
        0.0002539649   0.0000753834  -0.0002543809  -0.0002179969   0.0000290823
        0.0001301735  -0.0000741767   0.0000232664  -0.0002117655  -0.0001269099
        0.0010256456   0.0005990012  -0.0001034460  -0.0003275772   0.0000194706
        0.0006825616   0.0043740550   0.0066711821  -0.0057487805   0.0006071865
        0.0015760027   0.0012787624   0.0003915663   0.0001492165   0.0003304415
       -0.0000257859   0.0009548613  -0.0002224543  -0.0011540953   0.0006624963
        0.0012389101   0.0007951397  -0.0016953054  -0.0001168094   0.0005138698
        0.0000003343  -0.0000446346  -0.0000698087  -0.0002545769  -0.0001645440
        0.0001313172   0.0000209622   0.0000956508   0.0001112371  -0.0000620348
        0.0000640558   0.0000247735  -0.0000473125   0.0000282705   0.0000192408
       -0.0000974750  -0.0000063675  -0.0000594220  -0.0001566690  -0.0000334789
       -0.0001313752   0.0000484563   0.0001513500   0.0000625008  -0.0005373591
       -0.0008863071   0.0000639284   0.0000665621   0.0001603212   0.0000949261
       -0.0001283046  -0.0000168913   0.0000056286  -0.0001057260   0.0000043340
       -0.0000133371  -0.0000593764   0.0000385544  -0.0000998662  -0.0000998887
        0.0000778682  -0.0001525737  -0.0000228747   0.0001020194   0.0001916385
       -0.0002105065  -0.0001597171  -0.0005993049  -0.0000856280  -0.0000779086
       -0.0003289456  -0.0018744201  -0.0000601689
       -0.0306901527  -0.0102114607   0.0114214216  -0.3851973414  -0.1062851676
        0.1808337560   0.4212351333   0.1195132442  -0.1998055820  -0.0062579297
       -0.0047102467   0.0025847861  -0.0023554666  -0.0008633396  -0.0005947776
        0.0004617022   0.0006942665  -0.0003431625   0.0001152018  -0.0005444523
       -0.0007639572  -0.0017094872   0.0013708273   0.0017347238   0.0016315678
        0.0010672837   0.0027521826  -0.0031221293   0.0005897267  -0.0009429425
       -0.0014576208  -0.0001475302  -0.0002279319  -0.0007281084   0.0003020449
       -0.0001658300   0.0015208982  -0.0001405666   0.0001728973  -0.0004454843
       -0.0006793427   0.0000154101   0.0001137440   0.0001483089  -0.0001667664
        0.0001029052   0.0000901147  -0.0000271878  -0.0000568481   0.0001607569
        0.0000085454   0.0000545652  -0.0001276625  -0.0001991983   0.0000701446
        0.0001044681   0.0002538162   0.0002857308   0.0001507836   0.0000413916
       -0.0001427149  -0.0003660305  -0.0001253761   0.0000473528   0.0001592978
        0.0000473363  -0.0000574907  -0.0000784244  -0.0001007118   0.0000521045
        0.0000278183  -0.0000169940   0.0000370768   0.0000412699  -0.0001268723
       -0.0000337435   0.0002730693   0.0001562697   0.0002120796   0.0003981780
       -0.0001328449  -0.0003566163   0.0004811230  -0.0004011148  -0.0000823466
       -0.0011219044   0.0002609901   0.0001314210   0.0008843644   0.0001215900
        0.0000026592  -0.0000950381  -0.0000137107  -0.0000756812  -0.0000023471
        0.0000481328   0.0000952151  -0.0000142824  -0.0000495521  -0.0000018914
        0.0001101285   0.0000385346  -0.0002505471  -0.0000451953   0.0000771459
        0.0000215357  -0.0005772681  -0.0000911244   0.0001147114   0.0005196872
        0.0000032800   0.0000650323  -0.0000765770  -0.0000022577   0.0000416688
       -0.0000126237  -0.0000250652   0.0000669704  -0.0000630429   0.0000136942
        0.0002759550   0.0000597610   0.0001403312  -0.0001126105   0.0000977894
       -0.0000190610   0.0016192353  -0.0014981213   0.0019054741   0.0012555262
        0.0003533823   0.0010895016   0.0001574022   0.0001213399   0.0001913743
        0.0002713604  -0.0001142634   0.0001569114   0.0010715681  -0.0001484548
       -0.0004115887   0.0015323164  -0.0003949192   0.0008685253  -0.0001699544
       -0.0000485229   0.0002012926  -0.0000462674   0.0000095121   0.0000252980
       -0.0000209043  -0.0000097078   0.0000202878  -0.0000241820  -0.0000086696
        0.0000347221  -0.0000056460  -0.0000099726   0.0000300236  -0.0000062140
        0.0000097049   0.0000105244  -0.0000140970  -0.0000016196   0.0000284697
       -0.0000973571  -0.0000045106   0.0000615228   0.0001940744   0.0000644457
        0.0000355444  -0.0000582494   0.0000389537   0.0000065350   0.0000326570
       -0.0000580783  -0.0000316834   0.0000023867  -0.0000543164  -0.0000063729
       -0.0000132608  -0.0000135225  -0.0000026801  -0.0000546416  -0.0000366418
        0.0000010818  -0.0000513024   0.0000124214   0.0000144814   0.0000464539
       -0.0000676194  -0.0000868575  -0.0002542543  -0.0000052620  -0.0001822669
        0.0010121846   0.0007826325  -0.0003443348
       -0.0030761413   0.0088042318  -0.0006680197  -0.1063661609  -0.0894657743
        0.0620103228   0.1195132442   0.0806227293  -0.0672308210   0.0083091774
        0.0088902546  -0.0072654174  -0.0003022808   0.0002555373  -0.0005481389
        0.0008179711  -0.0006036755   0.0007809274  -0.0002468483  -0.0000308605
        0.0001558172   0.0012969971  -0.0010960645  -0.0007913873  -0.0005217699
       -0.0009971612  -0.0020099564  -0.0188532209   0.0011974715   0.0109102944
       -0.0006783030  -0.0008470232   0.0010893318  -0.0019854651   0.0006170292
       -0.0020241350   0.0017104725  -0.0000546765   0.0009220876  -0.0008531317
       -0.0010108404  -0.0005695661  -0.0000281522   0.0001937831   0.0000299314
        0.0002099397  -0.0001596659  -0.0000432961  -0.0000874927   0.0001755186
        0.0000363097  -0.0000188919  -0.0001716680  -0.0001611443   0.0002091714
        0.0000917386   0.0001925111   0.0003247941   0.0003150403   0.0002930402
       -0.0002113871  -0.0004802554  -0.0003448279  -0.0000033736   0.0001781050
        0.0001027872  -0.0000817347  -0.0000620135  -0.0000806654   0.0000720266
        0.0000748304   0.0000822359  -0.0001393903  -0.0000602483  -0.0000968009
       -0.0000530031   0.0006332575  -0.0000252718  -0.0002351334   0.0003158808
        0.0001759470   0.0001850393   0.0000062690  -0.0015231238  -0.0017399958
       -0.0013331443   0.0012016419  -0.0000959047   0.0008674621   0.0000582595
        0.0001202164  -0.0000038824  -0.0000648147  -0.0001026434   0.0000130113
        0.0000751457   0.0001477403  -0.0000896822  -0.0001045542  -0.0000850632
        0.0002573999   0.0001278265   0.0002485252  -0.0004386051  -0.0002591666
       -0.0003490690   0.0000864079   0.0002084828  -0.0001537771   0.0001656370
        0.0001455865   0.0000939885  -0.0002252260  -0.0001349008   0.0000384905
        0.0002377197   0.0000483432  -0.0001329185  -0.0001886687  -0.0000170819
        0.0000446719   0.0001307182   0.0000834477   0.0010671028  -0.0006746800
       -0.0004651089   0.0010984611  -0.0062192178   0.0050609456   0.0008304302
       -0.0000151372   0.0003527495   0.0000291203  -0.0000158634   0.0000401092
        0.0000555074   0.0002328691  -0.0002109194   0.0002882810   0.0000117448
       -0.0002267298  -0.0005316189  -0.0002135577   0.0000214842  -0.0000761617
       -0.0002274968  -0.0001130938  -0.0000067368   0.0001265381   0.0001005920
        0.0000351945   0.0000311748   0.0000413885   0.0000126779   0.0000190158
        0.0000259208   0.0000392342  -0.0000210141   0.0000154532   0.0000358219
       -0.0000333173  -0.0000054004  -0.0000052559  -0.0000161157  -0.0000031889
        0.0000656073   0.0000880661   0.0000571155  -0.0000122248   0.0000255828
        0.0002694861  -0.0001010291   0.0000768367   0.0000491616   0.0000145975
       -0.0000293157  -0.0000117677  -0.0000212061  -0.0000547308  -0.0000037386
       -0.0000352301  -0.0000379563   0.0000078528  -0.0000385082   0.0000085286
        0.0000207698  -0.0000565012   0.0000228525   0.0000337986  -0.0000608199
        0.0000475183   0.0000727371   0.0000711343  -0.0002251157  -0.0001852743
        0.0003609083   0.0002818942   0.0002884702
       -0.0142234846  -0.0052400551   0.0200933938   0.1819603301   0.0624278723
       -0.1694183762  -0.1998055820  -0.0672308210   0.1636928473   0.0178289745
        0.0071715014  -0.0055994047   0.0009329359   0.0001103859  -0.0002480618
        0.0007591009  -0.0002508098   0.0008924983  -0.0005358616   0.0004048090
        0.0006106566   0.0031963806  -0.0016417303  -0.0021848203  -0.0015028342
       -0.0025613367  -0.0043066338   0.0107179226   0.0020115092  -0.0001205965
        0.0004344480   0.0009388915  -0.0000406760   0.0012920430  -0.0007063412
        0.0004773767  -0.0008997851   0.0006990405   0.0000959330  -0.0000639036
        0.0000159858  -0.0002535436   0.0003226203  -0.0001432429   0.0000048482
        0.0000180878   0.0000658810   0.0000613198   0.0000070480  -0.0000046217
        0.0000282177  -0.0000131985   0.0000538797   0.0000874635   0.0002690298
       -0.0005312342  -0.0001540354  -0.0003100103   0.0005236547   0.0001591134
       -0.0001723770   0.0001260828  -0.0000723939  -0.0000053403  -0.0001238241
       -0.0000359562   0.0000794108   0.0000607534   0.0000968816  -0.0001123695
       -0.0000007191  -0.0000180840  -0.0000291506   0.0000783410   0.0001482211
        0.0003024435  -0.0007881907  -0.0001657231   0.0000206223  -0.0001742959
       -0.0000654975   0.0003366886  -0.0006072798   0.0004564529   0.0007198738
        0.0013755840  -0.0003452037  -0.0001237105  -0.0010989957  -0.0001773812
       -0.0000061382   0.0000698336   0.0000861712   0.0000976000   0.0000228232
       -0.0000255382  -0.0001269397   0.0000874768   0.0001047197   0.0000703665
       -0.0001840319  -0.0000723356   0.0001655957   0.0001517967  -0.0000629638
        0.0001128339   0.0006182465   0.0001208587  -0.0001266481  -0.0005807774
       -0.0000860918  -0.0000252018   0.0001816686   0.0000774690   0.0000022704
       -0.0000824904   0.0000038753  -0.0000174041   0.0000489737   0.0000093505
       -0.0003238154  -0.0001202617  -0.0000371379  -0.0000937783   0.0000843690
       -0.0000604438  -0.0007148058   0.0040737060  -0.0024913077   0.0004343819
        0.0005298129  -0.0001798033  -0.0000836717  -0.0000115324  -0.0000114770
       -0.0000381175   0.0001493803  -0.0002275786  -0.0004765756   0.0000514239
       -0.0002058186   0.0002493262  -0.0002070269  -0.0004999824  -0.0001272944
       -0.0000096800   0.0000797026   0.0000299958   0.0000762788   0.0000661968
       -0.0000500637  -0.0000056064  -0.0000326605  -0.0000378438   0.0000262144
       -0.0000267040  -0.0000068640   0.0000183422  -0.0000182185  -0.0000072828
        0.0000318659   0.0000028693   0.0000233474   0.0000522861   0.0000029369
        0.0000626743  -0.0000420153  -0.0000801691  -0.0000254044   0.0000062874
       -0.0000820542   0.0000200166  -0.0000598448  -0.0000623278  -0.0000358388
        0.0000612583   0.0000138358   0.0000009201   0.0000546960  -0.0000007985
        0.0000122635   0.0000312543  -0.0000088765   0.0000559270   0.0000383417
       -0.0000254459   0.0000614006  -0.0000008222  -0.0000332239  -0.0000848761
        0.0000637663   0.0000812748   0.0001594690  -0.0000130509   0.0001444888
       -0.0005501774  -0.0001736361  -0.0001616280
       -0.0014506173  -0.0117951331  -0.0189988691  -0.0450036950   0.0069743288
        0.0091848392  -0.0062579297   0.0083091774   0.0178289745   0.6386389538
        0.0781020293  -0.0251986096  -0.2505924623  -0.0690077897  -0.0538336720
        0.0388327781  -0.0316341465  -0.0664083121  -0.0673268378  -0.0150152599
       -0.0084105962   0.0142489215   0.0536012691   0.0959118570  -0.2729254333
       -0.0090911066   0.0489906119   0.0030123647   0.0014577238   0.0022917358
       -0.0002112844   0.0001606585  -0.0001775496  -0.0000314164  -0.0002920954
       -0.0000578175   0.0001261069   0.0001110707   0.0000852916  -0.0000413096
       -0.0000998024  -0.0000096677  -0.0000342540  -0.0000200097  -0.0000271288
        0.0000661765  -0.0000658660   0.0000055933   0.0000302948   0.0000364571
        0.0000219775   0.0000174904  -0.0000147298  -0.0000118314   0.0000637689
       -0.0000862069   0.0000051937   0.0000188745   0.0001025425   0.0000443589