$hessian                                                                        
        0.4304878387   0.0053285159   0.2147854147  -0.3925583361  -0.0054716991
       -0.1905447572  -0.0293603765  -0.0027516236  -0.0122884025  -0.0027538840
       -0.0015508860  -0.0021443211   0.0019020921   0.0000544811  -0.0021123225
       -0.0008656020  -0.0004438288   0.0000076992   0.0007597417   0.0007388906
        0.0011883732   0.0015208039  -0.0011937981  -0.0022035650  -0.0046169241
        0.0004279493   0.0020780284  -0.0100890630   0.0030668364  -0.0058319606
        0.0034710365   0.0015560091  -0.0019691493  -0.0012593980   0.0005139640
       -0.0003523047  -0.0009054425   0.0007534662  -0.0007942581   0.0023909708
        0.0003543982   0.0016242027   0.0000870469  -0.0010361324  -0.0007204032
        0.0022016951  -0.0000302910   0.0011043751  -0.0020227742   0.0010289701
       -0.0005622458   0.0000260586  -0.0008042647  -0.0004906218  -0.0023510269
        0.0014452407  -0.0003801801   0.0009656712  -0.0001730719   0.0004191000
       -0.0024505990  -0.0003667410  -0.0015000334   0.0000852380   0.0008365273
        0.0005299240  -0.0020148838   0.0001018948  -0.0011890224   0.0020995986
       -0.0010299934   0.0007177139  -0.0000691733   0.0009684004   0.0005191083
        0.0023710445  -0.0017078943   0.0004017227   0.0021189124  -0.0011698044
        0.0013268017  -0.0015212625   0.0020582162  -0.0020509978  -0.0003121340
       -0.0002968970   0.0002616094  -0.0005850771   0.0007893239   0.0003787063
        0.0004062454  -0.0003208050  -0.0002522764  -0.0002452355   0.0000920843
        0.0001984847   0.0002747478   0.0002386148  -0.0000459888  -0.0000688640
       -0.0002937854   0.0000129160  -0.0002307532   0.0007447252   0.0003164872
        0.0008942153   0.0002343070  -0.0004541766   0.0002199528  -0.0004199942
       -0.0002994447  -0.0002384814   0.0000751568   0.0002521201   0.0002401238
       -0.0001284764  -0.0001296279  -0.0000323983  -0.0002579229  -0.0000558303
        0.0002277914   0.0003978507   0.0002330546  -0.0000849816  -0.0005962840
       -0.0003357892  -0.0031071870  -0.0031346686   0.0017701764   0.0009044354
        0.0005675229   0.0004389332   0.0001479444  -0.0000781702  -0.0002196978
        0.0002167305   0.0001457183  -0.0000185306   0.0016451955   0.0002848310
       -0.0008858912   0.0010824266  -0.0004470334   0.0002548104  -0.0001498434
       -0.0000647867   0.0001102220   0.0000121977   0.0000802290   0.0000670865
       -0.0000353127   0.0000418279   0.0000107710  -0.0000255251  -0.0000362710
       -0.0000177670  -0.0000221496   0.0000270293   0.0000177781  -0.0000308948
       -0.0000245489  -0.0000092607   0.0000280871  -0.0000416642   0.0000118316
       -0.0000452913   0.0000273486   0.0000361247   0.0002361418   0.0000002562
       -0.0000379878  -0.0001020336   0.0000112257  -0.0000063549  -0.0000294642
        0.0000213018  -0.0000127954  -0.0000436956   0.0000370817   0.0000020025
        0.0000197805   0.0000069582  -0.0000426790  -0.0000270025   0.0000168927
       -0.0000214829  -0.0000385631  -0.0000366640  -0.0000158166  -0.0000052947
       -0.0000197326  -0.0001055663  -0.0002280399  -0.0000026041  -0.0002100791
        0.0014832034   0.0008562911  -0.0007639901
        0.0053285159   0.0432225165  -0.0013837240  -0.0048874424  -0.0456737294
        0.0040209125  -0.0092290493   0.0069568439  -0.0053920980  -0.0136170314
       -0.0000627773  -0.0117070477   0.0037292038   0.0008576090  -0.0018328937
        0.0002021865  -0.0012267152  -0.0019036936   0.0014515290   0.0009731937
        0.0018019385  -0.0033682937  -0.0018589568  -0.0018001731  -0.0014481182
        0.0010193824   0.0018364644   0.0184348679  -0.0010089036   0.0139965855
       -0.0027097432  -0.0021238784   0.0023226017  -0.0005808586  -0.0030784316
        0.0023100299   0.0004982463  -0.0006160460   0.0004951787  -0.0006244153
       -0.0001952838  -0.0005400152  -0.0000614298   0.0002896398   0.0001762870
       -0.0005439458   0.0000226564  -0.0002712713   0.0005363449  -0.0002481581
        0.0001098394   0.0000354434   0.0002006426   0.0001532482   0.0006465226
       -0.0004906958   0.0000068136  -0.0002949585   0.0001194049  -0.0000528089
        0.0007598837   0.0000429799   0.0003280692   0.0000009170  -0.0001653840
       -0.0000950655   0.0006058648  -0.0000363221   0.0003181368  -0.0006770865
        0.0003608118  -0.0001378634  -0.0000363515  -0.0004308746  -0.0002124370
       -0.0005294222   0.0005424777  -0.0000175528  -0.0000693511   0.0022734305
       -0.0018053424   0.0028844316  -0.0014386467   0.0010545711  -0.0002205212
       -0.0003002097   0.0002457677   0.0000672299   0.0002831054  -0.0000640535
        0.0000929796  -0.0001727553   0.0000171633   0.0001699901   0.0002032735
       -0.0000353080  -0.0001488555  -0.0000606785   0.0000786061   0.0000129813
        0.0000119093   0.0000498804  -0.0001437945  -0.0001199278  -0.0000146927
       -0.0000207727   0.0000471543   0.0000198192  -0.0000576299  -0.0000775033
       -0.0000381622  -0.0000205304  -0.0000054833   0.0000370841  -0.0000746930
       -0.0000580181  -0.0000148289   0.0000644983  -0.0000137618  -0.0000641360
        0.0000766562   0.0001061653   0.0000411354   0.0002251833  -0.0001236694
       -0.0002871049   0.0027160973   0.0024852937  -0.0011275849   0.0000401057
        0.0000868532  -0.0000215378   0.0000740057  -0.0002792751  -0.0003967185
       -0.0000636603  -0.0000097532  -0.0001487542  -0.0003265457  -0.0002542837
        0.0001210147   0.0000047224  -0.0000343727   0.0001618281  -0.0000339486
       -0.0000666459  -0.0000443700   0.0000016490   0.0000294038   0.0000298114
        0.0000127864   0.0000352699   0.0000140634   0.0000229219  -0.0000192747
        0.0000027873   0.0000238841  -0.0000113467   0.0000093268   0.0000014421
       -0.0000343627  -0.0000134862   0.0000096413  -0.0000049438  -0.0000009033
        0.0000218435   0.0000516785  -0.0000273168   0.0001220780  -0.0001255742
        0.0001550253  -0.0000742719  -0.0000210308  -0.0000625350  -0.0000127029
        0.0000414557  -0.0000035563  -0.0000306538   0.0000265421   0.0000067734
        0.0000138738  -0.0000010884  -0.0000105753  -0.0000100678   0.0000196661
        0.0000096607  -0.0000230395  -0.0000278214   0.0000343406   0.0000485423
       -0.0000025841  -0.0000236906  -0.0000418096  -0.0000255522  -0.0000630653
        0.0010439250   0.0001953602  -0.0003503973
        0.2147854147  -0.0013837240   0.1752559165  -0.1944919894   0.0040304404
       -0.1777890000   0.0137177681  -0.0011716713   0.0197039779  -0.0199194319
       -0.0012233890  -0.0077124254   0.0027692023  -0.0017664651  -0.0050153734
       -0.0011548879  -0.0012867241  -0.0008545138   0.0008017473   0.0005582226
        0.0009731610  -0.0018294413  -0.0012271661  -0.0002345673  -0.0011578247
        0.0005134750   0.0009176368  -0.0118040080  -0.0004748242  -0.0021331420
        0.0004394503   0.0031805445  -0.0016439575  -0.0008849203   0.0003002770
       -0.0000194349  -0.0003543154   0.0003702703  -0.0004576160   0.0008654837
        0.0000354089   0.0004979604   0.0001617808  -0.0003372916  -0.0002244031
        0.0007538121  -0.0000656807   0.0003643756  -0.0007434232   0.0003103129
       -0.0002388958   0.0000354314  -0.0001627558  -0.0000632149  -0.0007619064
        0.0002172832  -0.0002711188  -0.0000447578   0.0001353775   0.0000723352
       -0.0008242932   0.0000757532  -0.0004456317   0.0000876827   0.0001598222
        0.0001767533  -0.0007246147   0.0001592069  -0.0003677015   0.0007034185
       -0.0002940492   0.0003173259  -0.0001444740   0.0002436139   0.0001714369
        0.0010291129  -0.0007339790   0.0001086944   0.0005007001  -0.0003735107
        0.0005180021  -0.0009442529   0.0001665478  -0.0002803217  -0.0002379893
       -0.0000123665   0.0001612680  -0.0001657151   0.0001287412   0.0000543654
        0.0002610636  -0.0002599275  -0.0001599632   0.0001182831   0.0002499891
        0.0000317473  -0.0001116868   0.0000833822   0.0001323069  -0.0000217773
       -0.0003202840  -0.0000680409  -0.0003343390   0.0004104409   0.0002667310
        0.0006487293   0.0005127237  -0.0001923116  -0.0001189566  -0.0007573606
       -0.0001228263  -0.0002041988   0.0001723239   0.0001975580  -0.0000189642
       -0.0002175848   0.0000013217   0.0001363295   0.0000320531  -0.0000799996
       -0.0002088195   0.0001812940   0.0001491814   0.0002701802  -0.0003903069
       -0.0003100946  -0.0009355207  -0.0001261844   0.0006270980   0.0004074223
        0.0003355538  -0.0001895869   0.0000735818  -0.0002565826  -0.0006570846
       -0.0000646466   0.0000391562  -0.0001924399  -0.0005886158   0.0001946785
       -0.0000839779   0.0004554549  -0.0000584284  -0.0001996394  -0.0000425191
       -0.0000299478   0.0001056724   0.0000069083   0.0000532529   0.0000465833
       -0.0000037699  -0.0000124835   0.0000089782  -0.0000637389   0.0000209093
       -0.0000265963  -0.0000540940   0.0000447125  -0.0000152560   0.0000207633
        0.0000365588   0.0000136885   0.0000061747   0.0000568587   0.0000017035
        0.0000332745  -0.0000306278  -0.0000723336   0.0000095574   0.0000086819
       -0.0000780501  -0.0000644289   0.0000114707  -0.0000532341  -0.0000388484
        0.0000145770  -0.0000012123   0.0000004972   0.0000080675  -0.0000036208
       -0.0000075392   0.0000097924  -0.0000116461   0.0000134276   0.0000019283
       -0.0000364767   0.0000182960   0.0000148374  -0.0000361926  -0.0000087943
        0.0000951083  -0.0000069710   0.0000353382  -0.0000094084   0.0000847249
       -0.0000867835  -0.0001909242  -0.0006116321
       -0.3925583361  -0.0048874424  -0.1944919894   0.8573371621   0.0875554820
        0.0110025256  -0.3587722916  -0.0968038347   0.1840099048  -0.0463868327
        0.0016461325   0.0047413046   0.0082722104  -0.0042807316  -0.0093091405
       -0.0024473639  -0.0031186876  -0.0036389102   0.0013413013   0.0013903333
        0.0027749898  -0.0069201251  -0.0015618578   0.0006451882   0.0013306444
        0.0083530687   0.0132865001  -0.0459066718   0.0104492925  -0.0051380083
       -0.0035595193   0.0151684031  -0.0101519356  -0.0049310795  -0.0005940115
        0.0002803103  -0.0003175311  -0.0000497239  -0.0004045824   0.0005709010
        0.0000948892  -0.0000989676  -0.0005846187  -0.0000527935   0.0001522090
        0.0005221987  -0.0003223022   0.0001498920  -0.0005972747   0.0000039120
       -0.0001212417   0.0000086257   0.0000249640   0.0001846612  -0.0007136865
        0.0001358682  -0.0003447434  -0.0002559556  -0.0001466205  -0.0001455141
       -0.0002316375   0.0002913986  -0.0000979807  -0.0000605278   0.0000169564
        0.0000734683  -0.0004261005   0.0001356444  -0.0001139937   0.0003640555
        0.0000464629   0.0001691264  -0.0001045679  -0.0001920458   0.0000564967
        0.0002608342   0.0004468236  -0.0000459281  -0.0001325535   0.0019062319
       -0.0015479200  -0.0013980265  -0.0043476189   0.0032282178   0.0000189912
       -0.0000912388   0.0003399348  -0.0000129804  -0.0012600994  -0.0001662354
       -0.0003205694   0.0002913621   0.0001959759  -0.0000885577  -0.0002318140
       -0.0000221637   0.0001230014  -0.0001488971  -0.0001828949  -0.0000433447
        0.0004819517   0.0000853306   0.0005659741  -0.0007138882  -0.0005413792
       -0.0008340332  -0.0000247404   0.0005021254  -0.0000283028   0.0004917574
        0.0002746620   0.0002540358  -0.0002625967  -0.0003328940   0.0001312363
        0.0004141660   0.0000639173  -0.0004072720   0.0001675282   0.0001819486
       -0.0005091654  -0.0005398384  -0.0003919024  -0.0002212920   0.0001661090
        0.0005497160   0.0069736476  -0.0081067484   0.0052855406  -0.0024027154
       -0.0008962819  -0.0013050933  -0.0005354099  -0.0005130036  -0.0011858129
       -0.0005023826  -0.0000227009  -0.0002078410  -0.0022438739   0.0002442597
        0.0013124685  -0.0023868394   0.0011028136  -0.0009557607   0.0004760522
        0.0001815770  -0.0003651437   0.0000211955  -0.0001404425  -0.0001478506
        0.0001143243  -0.0000966653   0.0000179678  -0.0000195445   0.0000847211
       -0.0000169923  -0.0000450267   0.0000131933  -0.0000651588   0.0000941257
        0.0000660425   0.0000239911  -0.0000240789   0.0000938559  -0.0000360003
        0.0001973525  -0.0000285311  -0.0001005111  -0.0005531936  -0.0001391206
        0.0000373447   0.0001144272   0.0000802275   0.0000120206   0.0000244844
       -0.0000554749   0.0000114445   0.0000742775  -0.0000892818  -0.0000134873
       -0.0000574591  -0.0000169835   0.0000693712   0.0000371279  -0.0000420659
        0.0000062882   0.0000535807   0.0000966485   0.0000013061   0.0000182157
        0.0001884071   0.0001778547   0.0005620249   0.0000209075   0.0004392963
       -0.0023212662  -0.0020733077   0.0013446775
       -0.0054716991  -0.0456737294   0.0040304404   0.0875554820   0.3159413344
       -0.0663179450  -0.0963947242  -0.0756941283   0.0649476415   0.0085397307
       -0.0529282250  -0.0341826579  -0.0183688343  -0.0130310949  -0.0170210073
       -0.0063910362   0.0041868942   0.0074066889  -0.0062857881  -0.0046068137
       -0.0080023622   0.0142053016   0.0112972299   0.0112691650   0.0106656835
       -0.0059431737  -0.0132792666   0.0090244865  -0.1051818523   0.0288789315
        0.0278413279  -0.0170023508   0.0161084521   0.0064564512   0.0151292172
       -0.0122823628  -0.0018147450   0.0013397641  -0.0007615545   0.0060306539
       -0.0001496344   0.0035096953  -0.0001147046  -0.0023278525  -0.0014736792
        0.0060739653  -0.0006066713   0.0028110983  -0.0057112339   0.0026799936
       -0.0014450855  -0.0000388926  -0.0021795421  -0.0013469877  -0.0066030411
        0.0044299564  -0.0009291905   0.0025272594  -0.0007743623   0.0009422764
       -0.0071173269  -0.0005879905  -0.0040148889   0.0002416387   0.0020270199
        0.0013532138  -0.0060696531   0.0004202109  -0.0033039088   0.0064515429
       -0.0030008089   0.0020134004  -0.0004268950   0.0029756340   0.0013930257
        0.0060817313  -0.0031239786   0.0015988392   0.0026247491  -0.0123931114
        0.0101142149  -0.0124991718   0.0118998649  -0.0121758989   0.0000812112
        0.0011201970  -0.0000282748  -0.0016368104  -0.0006683084   0.0008769686
        0.0002751011   0.0009153923  -0.0002190612  -0.0017995643  -0.0014093799
        0.0006748923   0.0019395911   0.0005062735  -0.0009902646  -0.0003459307
        0.0003888380   0.0001755120   0.0022435403   0.0005490559  -0.0009346914
       -0.0005716008  -0.0003573396   0.0002249730   0.0013043826   0.0016370004
       -0.0001049360   0.0000853006  -0.0005246038  -0.0002584538   0.0011996665
        0.0010971925  -0.0001504221  -0.0014397653  -0.0006284449   0.0005928274
        0.0000134033  -0.0003768156  -0.0001905169  -0.0012228997  -0.0008872747
        0.0006842198  -0.0200165965  -0.0281991108   0.0185961317   0.0002805172
       -0.0004541170   0.0002881605  -0.0001134916   0.0006560503   0.0006086161
        0.0001796188  -0.0001200801   0.0006988027  -0.0005696097  -0.0008419004
        0.0006158130  -0.0015593504   0.0002940042  -0.0009123397   0.0001950179
       -0.0003337493  -0.0001850757   0.0001212874   0.0000498491   0.0000588786
       -0.0000105463  -0.0000165394   0.0000006880  -0.0000258497   0.0000382129
       -0.0000012254  -0.0000161935   0.0000279945  -0.0000069110   0.0000139629
        0.0000137271   0.0000127090   0.0000287743  -0.0000916911   0.0000031620
        0.0000275538   0.0001712167   0.0003809383  -0.0001962687   0.0004910464
       -0.0002545496  -0.0000254458   0.0002904676   0.0003837103   0.0000004023
       -0.0001363207  -0.0000040146   0.0000140614  -0.0001008894  -0.0000067799
       -0.0000503619  -0.0000163133   0.0000045482  -0.0000026489  -0.0000094157
       -0.0000082050  -0.0000054858   0.0000879118  -0.0000593329  -0.0002777759
        0.0000651006   0.0002137287   0.0001399865  -0.0004363788  -0.0000818330
        0.0007305585   0.0000873426  -0.0005386802
       -0.1905447572   0.0040209125  -0.1777890000   0.0110025256  -0.0663179450
        0.5404797538   0.1801243714   0.0628366983  -0.1794532258   0.0083128815
       -0.0536419151  -0.0947677978  -0.0142089223  -0.0115467967  -0.0201728896
       -0.0051951846   0.0008283633   0.0085318257   0.0013392056  -0.0028493142
       -0.0083710806   0.0012531540   0.0038259326   0.0118796264   0.0177524297
       -0.0066878799  -0.0225678376  -0.0089500783   0.0504953354  -0.0472222492
       -0.0075465965   0.0081001423  -0.0094674816   0.0010594826  -0.0005022413
        0.0029960387   0.0015280020   0.0004197169   0.0005528061  -0.0091874971
        0.0000566332  -0.0046853206   0.0002140009   0.0035603231   0.0021286337
       -0.0086765632   0.0006262035  -0.0042405190   0.0083277353  -0.0037126413
        0.0023366687  -0.0001815772   0.0029810339   0.0014513044   0.0092640221
       -0.0052762657   0.0021911846  -0.0026333062   0.0006424975  -0.0014392820
        0.0088830488   0.0009052877   0.0058807295  -0.0003441642  -0.0030858637
       -0.0022292651   0.0080262074  -0.0006885979   0.0044990729  -0.0080490796
        0.0034380676  -0.0031245660   0.0008639383  -0.0027781141  -0.0017490785
       -0.0094976208   0.0044135423  -0.0021162986   0.0009399417   0.0004171950
       -0.0007211805  -0.0015244064  -0.0003978463   0.0024183371   0.0008616213
        0.0012729212  -0.0003848967   0.0025699664   0.0003599797  -0.0009201267
       -0.0008073457   0.0005000236   0.0003384971   0.0014814199   0.0003467813
       -0.0008569423  -0.0018328207  -0.0006802869   0.0007978409   0.0003124077
       -0.0003075617  -0.0003547742  -0.0012965489  -0.0009853164   0.0007193457
       -0.0009046836  -0.0006613702   0.0003453829  -0.0018899214  -0.0003735005
        0.0008604316   0.0004272074   0.0004060660  -0.0003794639  -0.0019238450
       -0.0009433489   0.0006027620   0.0020147953   0.0006465281  -0.0007348352
        0.0000507717   0.0003821465  -0.0001177466   0.0015697693   0.0017274236
        0.0000241226   0.0062725445   0.0104142409  -0.0100020383   0.0014779454
        0.0009208152   0.0012597376   0.0004335592  -0.0001426745   0.0001872594
       -0.0000429739   0.0004206191   0.0001836067  -0.0015399855   0.0003954005
        0.0014777646   0.0013491682  -0.0010970119   0.0007343082  -0.0000558187
        0.0000746607   0.0000657465  -0.0000460113  -0.0002073064   0.0000042697
       -0.0000167401  -0.0000404774  -0.0000551511   0.0001037274   0.0000068305
        0.0000984890   0.0001104461  -0.0001280150   0.0000442791  -0.0000677911
       -0.0000017429   0.0000164743  -0.0000757981  -0.0000206358   0.0000199401
       -0.0002743280  -0.0002707586   0.0000213763   0.0000355606  -0.0000205646
       -0.0003077449   0.0002341037  -0.0002373424   0.0000689639   0.0000961878
       -0.0000535925   0.0000303988   0.0000614367  -0.0000235361  -0.0000099115
        0.0000006101  -0.0000318824   0.0000252818  -0.0000264489  -0.0000350487
        0.0000754799   0.0000125701  -0.0000262428   0.0000413447   0.0000137814
       -0.0003029902   0.0000103413  -0.0001125063   0.0000084306  -0.0000057714
       -0.0009272263  -0.0013741246   0.0008470493
       -0.0293603765  -0.0092290493   0.0137177681  -0.3587722916  -0.0963947242
        0.1801243714   0.3919218787   0.1089792874  -0.2038000549  -0.0074925454
       -0.0011786515   0.0055124704  -0.0027635250  -0.0016465210  -0.0014981113
       -0.0005739160   0.0007013259   0.0012327717   0.0010694165  -0.0000729922
       -0.0007508061  -0.0004941847   0.0008917538   0.0008889414   0.0024276337
        0.0001123872   0.0015734731  -0.0027719753  -0.0036283174   0.0013040248
       -0.0026779535   0.0016191582  -0.0013239708  -0.0002099920  -0.0019168022
        0.0018639945  -0.0002864490   0.0001549800  -0.0002784184  -0.0008854132
        0.0006680294   0.0000413599   0.0003725848  -0.0000719480  -0.0000592200
       -0.0007616244   0.0004191928  -0.0002476625   0.0008497206  -0.0001354741
        0.0003677466  -0.0001470746   0.0000878040  -0.0001069288   0.0008144469
        0.0000496403   0.0005397707   0.0006760107  -0.0000331880   0.0002505613
        0.0006671994  -0.0006164145   0.0001467226  -0.0001784153   0.0000478564
       -0.0001656353   0.0008330673  -0.0003314916   0.0003333611  -0.0007890628
        0.0001400343  -0.0004780192   0.0003361814   0.0000641570   0.0000032734
       -0.0008986365  -0.0004502920  -0.0005498432   0.0018031719   0.0012509511
       -0.0008811681  -0.0012188205  -0.0001597538  -0.0001468521   0.0001243034
       -0.0003659921   0.0003775149   0.0002052101   0.0004044035  -0.0000680177
       -0.0000816146   0.0000624049   0.0001171717   0.0001230165   0.0000271521
       -0.0000528275  -0.0001628338  -0.0000249334   0.0000802126   0.0000751110
        0.0000175489   0.0000062419  -0.0002259296  -0.0001183414   0.0000360810
       -0.0000294648  -0.0001414386   0.0000282363  -0.0002312498   0.0000603604
       -0.0000048760   0.0001390530   0.0000120349  -0.0000551467  -0.0001890531
       -0.0000913487   0.0000362543   0.0002608769  -0.0000329768  -0.0000760452
        0.0001327755   0.0000828888   0.0000304107   0.0002218675   0.0001387343
       -0.0002142212   0.0027196200   0.0001202526   0.0009458584   0.0016701713
        0.0004374059   0.0006204131   0.0001102040   0.0000802151   0.0002565365
        0.0003059787   0.0000047849   0.0001154028   0.0010178496  -0.0001322279
       -0.0004766285   0.0019406192  -0.0003408454   0.0008201874  -0.0002156357
       -0.0000253805   0.0002159458  -0.0000142736   0.0000216570   0.0000695555
       -0.0000812668   0.0000305175  -0.0000243705   0.0000110210  -0.0000421471
        0.0000237372   0.0000357488  -0.0000258508   0.0000469181  -0.0000714269
       -0.0000188799  -0.0000070940  -0.0000091927  -0.0000379513   0.0000286239
       -0.0001526668  -0.0000701099   0.0000111490   0.0002538714   0.0001077465
       -0.0000252106  -0.0000056626  -0.0000802001  -0.0000254938   0.0000179618
        0.0000127096  -0.0000000039  -0.0000169453   0.0000283493  -0.0000064496
        0.0000122742  -0.0000033254  -0.0000203910  -0.0000220342   0.0000097367
        0.0000196923  -0.0000086459  -0.0000258792   0.0000055072  -0.0000193033
       -0.0001231167  -0.0000298165  -0.0001799564  -0.0000102497  -0.0001094049
        0.0008505663   0.0007313540  -0.0003095732
       -0.0027516236   0.0069568439  -0.0011716713  -0.0968038347  -0.0756941283
        0.0628366983   0.1089792874   0.0766578560  -0.0678857612   0.0079779241
        0.0038062069  -0.0100298550   0.0019098443   0.0012273276   0.0007423988
        0.0008614572  -0.0002216656  -0.0002869302   0.0018708688   0.0005395001
        0.0005803000  -0.0029150553  -0.0016849370  -0.0014023357   0.0000064293
        0.0000225632  -0.0017076901  -0.0184590069  -0.0079574156   0.0149832620
       -0.0046641009   0.0021974874  -0.0017074068  -0.0021043987  -0.0026651717
        0.0015212281   0.0005966793  -0.0002648770   0.0003077694  -0.0016691813
       -0.0001452465  -0.0010504512   0.0000030979   0.0005986239   0.0003413517
       -0.0014866551   0.0001568635  -0.0007024179   0.0014435688  -0.0005740392
        0.0004184625   0.0000110589   0.0004702842   0.0002819063   0.0015795663
       -0.0008899951   0.0003439291  -0.0003174599   0.0001764859  -0.0000941022
        0.0015914623  -0.0000409037   0.0008187485  -0.0000355109  -0.0004540205
       -0.0003043033   0.0014749284  -0.0001543029   0.0007806127  -0.0015525477
        0.0007122104  -0.0005058487  -0.0000065694  -0.0006869575  -0.0003581543
       -0.0015640474   0.0008561893  -0.0003721496  -0.0004921560   0.0024740306
       -0.0020493913   0.0012827411  -0.0029098585   0.0023699041  -0.0005275676
       -0.0009525822   0.0006552022   0.0004897939   0.0008466893  -0.0000331068
        0.0000923075  -0.0004044071  -0.0000996474   0.0005738720   0.0005654634
       -0.0001722716  -0.0006746856  -0.0001116697   0.0003735178   0.0000807206
       -0.0002556506  -0.0001001394  -0.0009075301  -0.0000453375   0.0004323699
        0.0004302956   0.0002668867  -0.0001533146  -0.0005474685  -0.0008006961
        0.0000312027  -0.0000900481   0.0002282103   0.0001266976  -0.0004502888
       -0.0004593724   0.0000614469   0.0006091202   0.0001146396  -0.0002923037
       -0.0000107636   0.0003993219   0.0001899191   0.0009034083  -0.0001840362
       -0.0006287450   0.0040788123  -0.0014602041   0.0029310654   0.0009995884
       -0.0001726590   0.0003191575   0.0001916879  -0.0000448057  -0.0000808603
        0.0000352394  -0.0000231698  -0.0000980340   0.0001723511   0.0000701597
       -0.0001024370  -0.0004848058  -0.0001481385  -0.0001648144  -0.0000386589
       -0.0000343532  -0.0000009137  -0.0000276135   0.0000034307   0.0000241441
        0.0000161767  -0.0000030900   0.0000188115  -0.0000022838   0.0000081632
        0.0000124185   0.0000034800  -0.0000105117   0.0000010925   0.0000179923
       -0.0000016937   0.0000085175  -0.0000022598   0.0000364397   0.0000007579
        0.0000474106   0.0000117302  -0.0000542688   0.0000168887  -0.0001316137
        0.0001590934  -0.0000365869   0.0000094645  -0.0000426918   0.0000014925
        0.0000135230  -0.0000034899  -0.0000067630  -0.0000141084  -0.0000016383
       -0.0000142144  -0.0000201131   0.0000068597  -0.0000230253  -0.0000075614
        0.0000106706  -0.0000226814  -0.0000051893   0.0000228553   0.0000511644
        0.0000055757  -0.0000417392  -0.0000205669  -0.0000225631  -0.0000707382
        0.0003092437   0.0002248749   0.0000572511
       -0.0122884025  -0.0053920980   0.0197039779   0.1840099048   0.0649476415
       -0.1794532258  -0.2038000549  -0.0678857612   0.1770793179   0.0184195706
        0.0045464191  -0.0080903351   0.0016797150   0.0004192321   0.0003638601
        0.0008589976  -0.0000774606   0.0002861401   0.0003087253   0.0001985043
        0.0002394417   0.0003590008  -0.0014399557  -0.0015313826  -0.0009466827
       -0.0018980571  -0.0041148599   0.0112235863   0.0025838812  -0.0017334437
        0.0007448962   0.0001498702   0.0005268714   0.0006975750   0.0002890843
       -0.0002187839   0.0002088404   0.0000546021   0.0001586703  -0.0000875242
       -0.0003968811  -0.0002652106   0.0000745526   0.0001738206   0.0000964647
       -0.0002015565  -0.0000581301  -0.0000572114   0.0001562651  -0.0001367087
       -0.0000984305   0.0001236389   0.0001688400   0.0001766172   0.0003194439
       -0.0006767406  -0.0002770357  -0.0007653394   0.0002895560  -0.0001592258
        0.0001977015   0.0004723835   0.0002651190   0.0001637512  -0.0002873981
       -0.0000179584   0.0001143482   0.0001848955   0.0001161277  -0.0001999658
        0.0001229190   0.0001272701  -0.0002085757  -0.0002064553  -0.0000935148
        0.0001242057   0.0001494652   0.0001618279  -0.0003017543  -0.0004616574
        0.0004860203   0.0006953779   0.0004680404   0.0000271753  -0.0001259125
        0.0002954253  -0.0003241129   0.0000150281  -0.0000977640  -0.0000613429
        0.0001732113  -0.0002046620  -0.0001325769   0.0002575646   0.0002634741
       -0.0000836833  -0.0002243474   0.0000044591   0.0001828580   0.0000068539
       -0.0003103557  -0.0000894273  -0.0003351189   0.0002898882   0.0003078181
        0.0004850290   0.0004371225  -0.0002231648  -0.0001330861  -0.0006693916
       -0.0000654257  -0.0002201197   0.0002160395   0.0002149242  -0.0001186035
       -0.0002579718   0.0000061080   0.0002154670   0.0001253049  -0.0001357827
       -0.0002703693   0.0001293429   0.0001393115   0.0002102701  -0.0001449412
       -0.0001681859  -0.0011597526   0.0031453132  -0.0018306588   0.0003254204
        0.0003972208  -0.0002525510   0.0000638779  -0.0000173280  -0.0001039273
       -0.0000985683   0.0000126163  -0.0001896104  -0.0005075639   0.0001089108
       -0.0000554171   0.0001146543  -0.0002022718  -0.0005522656  -0.0000327408
       -0.0000302215   0.0000615693   0.0000286778   0.0000572491   0.0000375307
       -0.0000153254   0.0000175068  -0.0000193045  -0.0000253250  -0.0000017001
       -0.0000352099  -0.0000216529   0.0000321588  -0.0000188972  -0.0000029102
        0.0000090955  -0.0000120906   0.0000383543   0.0000254263   0.0000002575
        0.0000766378   0.0000202497  -0.0000652562  -0.0000224366  -0.0000074913
       -0.0000628645  -0.0000009465  -0.0000403097  -0.0000742193  -0.0000288308
        0.0000689946   0.0000007540  -0.0000241157   0.0000572681   0.0000151997
        0.0000289055   0.0000329785  -0.0000162846   0.0000315159   0.0000326697
       -0.0000214233   0.0000207144  -0.0000194326  -0.0000079423   0.0000180109
        0.0000692955  -0.0000073026   0.0000225198   0.0000256235   0.0001504323
       -0.0004452282  -0.0001716435  -0.0002121191
       -0.0027538840  -0.0136170314  -0.0199194319  -0.0463868327   0.0085397307
        0.0083128815  -0.0074925454   0.0079779241   0.0184195706   0.5635932845
        0.0748390518  -0.0298557891  -0.2092560011  -0.0558099842  -0.0551758301
        0.0016749621  -0.0208875381  -0.0419053766  -0.0059673870   0.0022533480
        0.0036964003  -0.0096356885   0.0257914381   0.0637140995  -0.2327230118
       -0.0166439089   0.0494871669  -0.0045747551  -0.0040897602   0.0039481635
        0.0005557125   0.0038763127  -0.0016631405  -0.0054462546  -0.0054020992
        0.0050309009  -0.0024739558   0.0003564148  -0.0008473097   0.0069743979
        0.0018885746   0.0044087499  -0.0004853713  -0.0031121761  -0.0016907680
        0.0062240129  -0.0002609150   0.0031687500  -0.0057416205   0.0026962076
       -0.0013781564  -0.0001615996  -0.0022035163  -0.0012598320  -0.0068926441
        0.0046334186  -0.0011735275   0.0030703333  -0.0011774652   0.0012266908