85
 energy: -134.698052333818 gnorm: 0.000069785572 xtb: 6.7.1 (edcfbbe)
C            3.48729945433936       -4.74335204655545        2.21892206524289
C            2.82250449477808       -4.35060082967007        0.89935008805219
N            2.34867013726821       -2.99243228671406        0.92804253467645
C            1.10338771622489       -2.57099915467138        1.35575577992757
C            0.02473569885184       -3.32928855723069        1.77741862185159
C           -1.14422269839545       -2.66816344209042        2.12657926405322
C           -1.24109554916942       -1.28406104724438        2.05320274804697
C           -0.16980334262646       -0.50833650698222        1.64127561516242
C            1.01728463197878       -1.14657978556904        1.29287275572696
C            2.28787588244705       -0.72876079048398        0.81848836491052
C            3.07298741101806       -1.88796533967289        0.61261173192689
C            4.31745998659160       -1.48171326254232        0.07435414843423
C            5.49349277007606       -2.12342953976026       -0.31558391118505
C            6.54275919696840       -1.35884472883984       -0.78605554870327
C            6.44940987624389        0.02900212957370       -0.86255152551208
C            5.29234856078637        0.69457144140480       -0.48189503914690
C            4.22505731488115       -0.05822888319847       -0.03038611943121
N            2.98296388626105        0.37437877417061        0.42405134071175
C            2.48654100128746        1.68049084777826        0.39612345538813
C            1.84712343535970        2.20645671808090        1.53131900359137
C            1.23605678890992        3.43308995270546        1.47051137674193
C            1.25288081950047        4.16689918700738        0.27869380564179
S           -0.04088418673306        5.34429096778067        0.00867669488709
O           -0.31890369886944        6.10540761030162        1.21621754871183
O            0.22570174859917        6.11369738743001       -1.19616701914945
C           -1.31693000863755        4.14869519493959       -0.26550985853438
C           -1.98928046813774        3.63436880189258        0.84882699648371
C           -2.59451988862234        2.40355809024859        0.78443491309541
C           -2.51258760764750        1.64418759837925       -0.39214120661466
N           -2.98916042759487        0.33081355314761       -0.42480108389855
C           -4.22371084046670       -0.12240762285327        0.03017511897749
C           -5.30180981776033        0.61217464256023        0.48602589602138
C           -6.44751307552234       -0.07264893831209        0.86691482552033
C           -6.51930196175961       -1.46157477451567        0.78644794781736
C           -5.45918513843527       -2.20810884632807        0.31136210418926
C           -4.29420392545624       -1.54680521780435       -0.07894403865073
C           -3.04458515121762       -1.93204474953054       -0.62061934390152
C           -2.27772109698728       -0.76021351462140       -0.82382791177694
C           -1.00127393104954       -1.15698339661716       -1.30055368257664
C            0.17568495491211       -0.49948299400486       -1.64751271385219
C            1.25857402702166       -1.25736588244204       -2.06229045268368
C            1.18291436588119       -2.64255554925913       -2.14003350894723
C            0.02443346458668       -3.32266733663887       -1.79242085909105
C           -1.06545951838047       -2.58237268835902       -1.36771115724471
N           -2.30371677223805       -3.02425637761497       -0.94019380418573
C           -2.75609570078069       -4.38977955393134       -0.91358885536940
C           -3.41635241364049       -4.79064736778235       -2.23299277539447
C           -1.88228039731548        2.18450523131351       -1.52569360846920
C           -1.28995965427939        3.42008646211814       -1.46032242812944
C            1.93384383566110        3.66745959682257       -0.83717220838423
C            2.55787410777023        2.44582593025539       -0.77726334900143
H            3.84208806567192       -5.76877909459448        2.16404902324675
H            2.77892303485767       -4.65982172798382        3.03960041372423
H            4.33230473234956       -4.09041924376979        2.42421128775255
H            3.53780536458064       -4.44061836794639        0.07888799016800
H            1.97494781624883       -5.00816816453206        0.69497669588809
H            0.08097632460207       -4.40464687714983        1.84037274519385
H           -1.99643681358549       -3.24016593614994        2.46094699078060
H           -2.16796398612898       -0.80468030818545        2.33114720417973
H           -0.25446019415183        0.56601758529469        1.58005335037424
H            5.58803928029017       -3.19590392907818       -0.24316091035051
H            7.45905531007475       -1.84178808495148       -1.09195400035100
H            7.29352571436288        0.60004508477417       -1.21857124288083
H            5.23323079630216        1.77134924391414       -0.52779577759685
H            1.84105872348013        1.63150488513323        2.44516576533994
H            0.72082410684818        3.85133246270881        2.32138968285141
H           -1.99606256034108        4.22177573728028        1.75398223478996
H           -3.08896352135261        1.99300887929239        1.65181304530434
H           -5.25947471197259        1.68959110347623        0.53529848841643
H           -7.29975705572759        0.48396207630177        1.22641051368171
H           -7.42729599783844       -1.95971451341929        1.09278268322657
H           -5.53674789172906       -3.28169727959820        0.23568367707499
H            0.24388637180907        0.57584371921560       -1.58293829007622
H            2.17785916425959       -0.76290269100655       -2.33900019417838
H            2.04367234721355       -3.20029402650956       -2.47660917898187
H           -0.01534376205053       -4.39855137047889       -1.85876763811912
H           -1.89798845252544       -5.03426273996169       -0.71149466879488
H           -3.46890259428696       -4.49264043770392       -0.09242388938510
H           -4.27148528614917       -4.15038307110448       -2.43633489457355
H           -3.75552197576770       -5.82141765755177       -2.17915531902427
H           -2.71031449464942       -4.69524557903304       -3.05439486639241
H           -1.86823529096907        1.61348834566292       -2.44191624133612
H           -0.78186204039166        3.84961087243733       -2.30987709232396
H            1.93237164224261        4.25861970610862       -1.73990891330015
H            3.05940740265850        2.04652705895922       -1.64582111809798
