$hessian                                                                        
        0.4670376589  -0.0743009313   0.2432135647  -0.1318594601  -0.0406952955
       -0.0731084435   0.0375379834  -0.0393354132   0.0157912428  -0.0361949676
       -0.0152944172  -0.0279628981  -0.0000128133   0.0012615853   0.0018240494
       -0.0003967764  -0.0004811580  -0.0003563717   0.0001020108   0.0002736798
        0.0000996902  -0.0001921954  -0.0001215582   0.0000575803   0.0001254897
       -0.0001365611  -0.0001598071   0.0001641944   0.0001770104   0.0001492294
       -0.0000525346  -0.0003825947   0.0001816706  -0.0002644552  -0.0000008452
        0.0000518655  -0.0004788245   0.0003774754   0.0001503636   0.0003053091
       -0.0000802701   0.0001556356   0.0000039631   0.0002190313  -0.0001630111
        0.0000411117  -0.0000630620  -0.0000307140   0.0000468777   0.0000682546
        0.0000097387  -0.0000760483  -0.0002251390   0.0000027589  -0.0000143328
        0.0003054181  -0.0000000577   0.0000057555  -0.0002192822   0.0000041996
       -0.0000029980   0.0001155107  -0.0000018979   0.0000104769  -0.0001195520
       -0.0000085223  -0.0000275055   0.0002670467   0.0000025320   0.0000369569
       -0.0002391179   0.0000131059  -0.0000076490   0.0000678718   0.0000017901
        0.0000022870   0.0000400195   0.0000010983   0.0000125470  -0.0000138206
       -0.0000012006   0.0000027352   0.0000004190  -0.0000003918  -0.0000070953
       -0.0000059908  -0.0000000734   0.0000018543   0.0000066819  -0.0000003586
        0.0000023655  -0.0000030829   0.0000017099  -0.0000025176  -0.0000004093
        0.0000018998   0.0000163670   0.0000033139   0.0000049320  -0.0000147597
       -0.0000311164   0.0000064684  -0.0000102342   0.0000076155   0.0000002198
       -0.0002368880  -0.0000700621   0.0000967194   0.0002474856  -0.0002203409
        0.0001233795  -0.0153764892   0.0734712062   0.0053747397  -0.2309560048
        0.0211948968  -0.1305319049  -0.0683855377   0.0819881490  -0.0046092991
       -0.0135996669  -0.0161130923  -0.0148557464   0.0028292638   0.0033357869
       -0.0029148247  -0.0000106099  -0.0000092975  -0.0000091112   0.0000003091
        0.0000031632   0.0000047524  -0.0000049669   0.0000071792  -0.0000235144
        0.0000267739  -0.0000011994   0.0000096664  -0.0000047962  -0.0000605543
       -0.0000632398  -0.0001408675   0.0001235137  -0.0000668026  -0.0000096862
        0.0000199659   0.0000229290   0.0000001279  -0.0000108656   0.0000007380
       -0.0000022530   0.0000250390  -0.0000065560  -0.0000039864   0.0000010290
       -0.0000024485   0.0000019350   0.0000025206  -0.0000025269   0.0000015805
        0.0000014988  -0.0000009640  -0.0000003052   0.0000005265   0.0000027036
        0.0000028599  -0.0000009519   0.0000037311  -0.0000026777   0.0000017507
        0.0000039348  -0.0000037192   0.0000033458  -0.0000033092  -0.0000137987
       -0.0000099923   0.0000302323   0.0029854007   0.0028014316  -0.0030172001
       -0.0131842591   0.0020740370  -0.0094976758
       -0.0743009313   0.6503476834   0.0866506298  -0.1028453314  -0.2052677235
       -0.1180311949   0.0073006922  -0.0579025262  -0.0119512967  -0.0152460375
        0.0022052161  -0.0097116368   0.0014134366  -0.0031170581   0.0006321948
        0.0001946085   0.0003347819   0.0005382989  -0.0000206529   0.0001533115
        0.0001025388  -0.0001069588   0.0000311669   0.0000774487   0.0000552192
       -0.0000717334  -0.0000653548   0.0001005505   0.0001757563   0.0000598961
       -0.0001031706  -0.0004098599  -0.0000146415  -0.0009048931   0.0002455867
       -0.0006050391   0.0001186261   0.0000123994   0.0001126138   0.0000132546
        0.0000362358   0.0000270251   0.0000089082   0.0000328634  -0.0000558124
       -0.0000467726   0.0000853119   0.0000023130  -0.0001200013  -0.0001282777
       -0.0000143564   0.0001233929   0.0003914737   0.0000210669   0.0000017791
       -0.0004704820  -0.0000022605   0.0000089281   0.0003357520   0.0000037959
        0.0000016840  -0.0001531097   0.0000117709   0.0000656867   0.0001686243
        0.0000357691  -0.0000128001  -0.0003926883  -0.0000156171  -0.0000392864
        0.0003587926  -0.0000411358   0.0000053691  -0.0001222599   0.0000007764
       -0.0000173608  -0.0000711910  -0.0000067981  -0.0000170992   0.0000214411
       -0.0000013032  -0.0000030539   0.0000052844  -0.0000053108   0.0000179641
        0.0000102058  -0.0000017654   0.0000028452  -0.0000116591   0.0000013012
       -0.0000062839   0.0000034094  -0.0000018106   0.0000176803   0.0000022713
        0.0000034880  -0.0000436852  -0.0000074297  -0.0000067832   0.0000630638
        0.0000498795  -0.0000175118   0.0000065196  -0.0000279128   0.0000007133
       -0.0001089774   0.0000266390  -0.0000192354   0.0001365611  -0.0000592168
        0.0000041710   0.0268339347  -0.0054497646   0.0189804195   0.0833662376
       -0.1069488535   0.0466326237   0.0819888359  -0.2732018603  -0.0027787645
        0.0025062100   0.0044277246   0.0033132511   0.0029736774  -0.0046661771
       -0.0012262399  -0.0000166029   0.0000095364   0.0000530409  -0.0000095997
       -0.0000175643  -0.0000041496  -0.0000196611  -0.0000081993  -0.0000029052
       -0.0000235227  -0.0000356761   0.0000234456  -0.0000618713  -0.0001967259
       -0.0000016416   0.0001117345  -0.0000688990  -0.0000252982   0.0000363131
        0.0000036174  -0.0000169940  -0.0000038211   0.0000253744  -0.0000032842
        0.0000147903  -0.0000299057   0.0000194693   0.0000071581   0.0000003915
       -0.0000022807  -0.0000050423  -0.0000064041  -0.0000027949  -0.0000098057
       -0.0000043274  -0.0000027246  -0.0000050597  -0.0000011753  -0.0000048812
       -0.0000111405   0.0000060558  -0.0000002386   0.0000046775  -0.0000002746
       -0.0000008237   0.0000010232  -0.0000039223   0.0000137915  -0.0000015900
        0.0000279337  -0.0000516807   0.0031685882  -0.0047968914  -0.0009319222
       -0.0165589371   0.0041150289  -0.0116963649
        0.2432135647   0.0866506298   0.3161047030  -0.0900978650  -0.0711878905
       -0.1324961183   0.0288420947  -0.0454147332   0.0096942269  -0.0261757984
       -0.0090745293  -0.0294010373   0.0006397871   0.0002157206   0.0013953326
       -0.0002949933  -0.0003716558  -0.0000931188   0.0000712278   0.0003293208
        0.0001186568  -0.0002185603  -0.0000976985   0.0000709347   0.0001291489
       -0.0001163451  -0.0001679040   0.0001816349   0.0001823642   0.0001674610
       -0.0000403203  -0.0005088416   0.0001417995  -0.0004856689   0.0000933227
       -0.0001026686  -0.0003850252   0.0003725889   0.0001521016   0.0002699865
       -0.0000512901   0.0001454920   0.0000166901   0.0001904574  -0.0001499004
        0.0000166417  -0.0000228259  -0.0000395528   0.0000134353   0.0000063810
        0.0000032047  -0.0000341998  -0.0000246980   0.0000948766   0.0000053738
        0.0000563109  -0.0000054656  -0.0000033581  -0.0000342685  -0.0000027203
       -0.0000080194   0.0000202768   0.0000046692   0.0000091755  -0.0000258280
        0.0000024427  -0.0000174348   0.0000492756   0.0000022582   0.0000175660
       -0.0000458841  -0.0000070525  -0.0000027646   0.0000109910  -0.0000805615
       -0.0000026202   0.0000073588   0.0000102933   0.0000044819  -0.0000017167
        0.0000053387   0.0000002844   0.0000012242   0.0000155831   0.0000014877
       -0.0000023135   0.0000012551   0.0000027143   0.0000015371  -0.0000026708
       -0.0000020209  -0.0000024775  -0.0000168825   0.0000021214  -0.0000008029
       -0.0000015696  -0.0000012913   0.0000014419  -0.0000166398   0.0000079623
       -0.0000071704   0.0000014510  -0.0000051320  -0.0000037768  -0.0000082053
       -0.0002417731  -0.0000538867   0.0000807803   0.0002690554  -0.0002255349
        0.0001332024  -0.0055877483   0.0531894614   0.0102522594  -0.1140028252
       -0.0004472759  -0.1315046129  -0.0044681476  -0.0027043426  -0.0371607409
       -0.0101963033  -0.0110657959  -0.0092079020  -0.0032005537  -0.0008711502
        0.0055919450  -0.0000148951   0.0000011445  -0.0000003725  -0.0000009536
       -0.0000004127  -0.0000031519  -0.0000122551   0.0000040901  -0.0000306797
        0.0000105560  -0.0000211833   0.0000114853  -0.0000199767  -0.0001505532
       -0.0000307921  -0.0001098344   0.0001260483  -0.0000386413  -0.0000049694
        0.0000224819   0.0000162605  -0.0000002747  -0.0000012365  -0.0000083339
        0.0000038302   0.0000084850   0.0000015966  -0.0000003771  -0.0000008548
        0.0000029861   0.0000000650  -0.0000015443   0.0000013220  -0.0000015069
       -0.0000000771   0.0000009719  -0.0000011511  -0.0000011961  -0.0000015747
       -0.0000004307   0.0000015977  -0.0000031721  -0.0000006214   0.0000005407
       -0.0000036645  -0.0000025517  -0.0000030562  -0.0000039718  -0.0000105712
       -0.0000020315   0.0000030918  -0.0030290850  -0.0013952744   0.0055859042
       -0.0150470078   0.0023971014  -0.0092242080
       -0.1318594601  -0.1028453314  -0.0900978650   0.4818717398  -0.0711389494
        0.2547793440  -0.1038312336   0.1130438091  -0.0146454009  -0.0145337996
        0.0261327911  -0.0029993618  -0.0015397175   0.0022837594  -0.0046359626
       -0.0003428270   0.0001438925  -0.0001656873   0.0000459827   0.0001011686
        0.0001401061  -0.0000668554  -0.0000662866   0.0000638358   0.0000684753
       -0.0000623050  -0.0000985010   0.0001133450   0.0001273562   0.0000571540
       -0.0001367493  -0.0001753948   0.0002563895  -0.0008858592   0.0005782975
       -0.0009238856   0.0003395518   0.0000698790  -0.0000529662  -0.0001396153
        0.0000861722  -0.0000203825   0.0001656985  -0.0000296033   0.0000260171
       -0.0000718801  -0.0000258930   0.0000084427   0.0000659481   0.0001684985
        0.0000034991  -0.0000195210  -0.0005627606   0.0000073722  -0.0001518295
        0.0007469905  -0.0000036410   0.0001318877  -0.0006049930   0.0000045740
       -0.0000259615   0.0003309610   0.0000068556   0.0000570960  -0.0003590804
        0.0000362414  -0.0000871509   0.0007038580  -0.0000286609   0.0000529451
       -0.0005791896  -0.0000223025   0.0000315410   0.0001274666  -0.0000148036
       -0.0000194775   0.0000893373  -0.0000023414   0.0000370669  -0.0000349790
        0.0000038569   0.0000076775  -0.0000095416   0.0000065072  -0.0000216536
       -0.0000003299   0.0000040091  -0.0000266953   0.0000075724   0.0000020391
        0.0000096089  -0.0000102100   0.0000004968  -0.0000229556   0.0000022305
        0.0000002331   0.0000617321   0.0000225478  -0.0000008293  -0.0000887224
       -0.0000819357  -0.0000139248   0.0000251790   0.0000388137   0.0000005050
       -0.0001390639   0.0000764395   0.0000619742  -0.0001655836  -0.0000379028
        0.0001371647   0.0002992029  -0.0067772900   0.0018698664  -0.0300637926
       -0.0084710138  -0.0257884755   0.0043172812   0.0064584270   0.0046488857
       -0.2070582515   0.0515554601  -0.1158832490   0.0044531251  -0.0128698208
       -0.0008634032   0.0000173491  -0.0000285730  -0.0000548843   0.0000024419
       -0.0000095980  -0.0000190299  -0.0000044084  -0.0000174571  -0.0000258209
        0.0000073031  -0.0000179522   0.0000050409   0.0000377179  -0.0000040851
       -0.0000927238  -0.0000924955   0.0000842997  -0.0000329094   0.0000117828
       -0.0000017043  -0.0000081373  -0.0000005973  -0.0000220877  -0.0000142403
       -0.0000139360   0.0000377397   0.0000233131  -0.0000105199   0.0000007040
        0.0000046856   0.0000087973   0.0000131539   0.0000064262   0.0000134977
        0.0000070887   0.0000042806   0.0000106347   0.0000030727   0.0000020141
        0.0000181861  -0.0000095669  -0.0000014425  -0.0000093881  -0.0000027442
       -0.0000031319  -0.0000059254  -0.0000058691  -0.0000177752  -0.0000115698
       -0.0000432046   0.0000238976   0.0004620284  -0.0001715019   0.0005106218
       -0.0012973273   0.0020353676  -0.0061739092
       -0.0406952955  -0.2052677235  -0.0711878905  -0.0711389494   0.6304283401
        0.0832509678   0.0512825275  -0.3101050610  -0.0305255272   0.0710417202
       -0.0092524790   0.0531355111  -0.0012825865   0.0061048041  -0.0030194634
       -0.0003698292  -0.0002762504  -0.0006328217   0.0000613169  -0.0001820087
       -0.0001485142   0.0003080773   0.0000243044  -0.0001354586  -0.0001391188
        0.0002695443   0.0002359984  -0.0002902545  -0.0002945613  -0.0000605681
        0.0003240838   0.0009161371  -0.0004189018   0.0019891624  -0.0008006184
        0.0008670842   0.0002115475  -0.0005712501  -0.0001972276  -0.0003357825
        0.0000832350  -0.0002683817  -0.0000157175  -0.0002268436   0.0002317960
        0.0000048866  -0.0001142983   0.0000166137   0.0001242671   0.0001824544
       -0.0000008548  -0.0001592572  -0.0007005277  -0.0000320873  -0.0000041096
        0.0008172432   0.0000093838   0.0000796668  -0.0004905150  -0.0000066038
       -0.0000734504   0.0002170132  -0.0000160797   0.0000166114  -0.0003305038
       -0.0000501880  -0.0000577541   0.0007244701   0.0000214464   0.0000840964
       -0.0006258542   0.0000638639  -0.0000180146   0.0002287279  -0.0000258339
       -0.0000138905   0.0000891752   0.0000100439   0.0000248100  -0.0000333048
        0.0000051326   0.0000011640   0.0000053296  -0.0000113860   0.0000191618
       -0.0000087870   0.0000047754  -0.0000151395   0.0000071920   0.0000030251
        0.0000115581  -0.0000117690   0.0000022901  -0.0000139432  -0.0000034734
       -0.0000029739   0.0000392206   0.0000300748  -0.0000007652  -0.0000649510
       -0.0000831008   0.0000269784   0.0000000144   0.0000094434   0.0000080338
        0.0003902625  -0.0000215544  -0.0000039055  -0.0004275035   0.0003616788
       -0.0001668772  -0.0048081273  -0.0556556488  -0.0168172901  -0.0540134540
        0.0483377343  -0.0285541051  -0.0125394967  -0.0230524818  -0.0152905486
        0.0520441343  -0.0587300878   0.0319700090   0.0058145139  -0.0227640307
       -0.0022892694  -0.0000599809  -0.0000046449  -0.0000001555   0.0000113949
        0.0000423639   0.0000372089   0.0000382621   0.0000285219   0.0000325159
        0.0000583894   0.0000373748  -0.0000538453   0.0000480723  -0.0000217299
        0.0003291684   0.0001749809  -0.0001217004   0.0000581035   0.0000183952
       -0.0000287744   0.0000057656   0.0000142495  -0.0000513737   0.0000036171
       -0.0000206007   0.0000567067  -0.0000250873  -0.0000169404   0.0000050385
        0.0000044718   0.0000072187   0.0000263855   0.0000048820  -0.0000071668
       -0.0000216470   0.0000039445   0.0000075357   0.0000066457  -0.0000031635
        0.0000016114   0.0000087284  -0.0000020207  -0.0000034571  -0.0000047998
        0.0000009767  -0.0000011674   0.0000123245  -0.0000434686   0.0000630338
        0.0000689324   0.0000050733  -0.0002062886  -0.0004296889  -0.0003356270
        0.0024762799   0.0011571685  -0.0000217900
       -0.0731084435  -0.1180311949  -0.1324961183   0.2547793440   0.0832509678
        0.3285818596  -0.0312009172   0.0135868914  -0.0642309711   0.0090110904
        0.0188589327   0.0109291312  -0.0064142169  -0.0012334810   0.0016009385
        0.0007299373   0.0000088308   0.0004615294  -0.0000742739  -0.0003821797
       -0.0000944651   0.0002473525   0.0001223191  -0.0001428407  -0.0001164837
        0.0001162195   0.0001483904  -0.0000752969  -0.0000404110  -0.0000700090
       -0.0000481667   0.0003773506  -0.0002972148  -0.0004555402   0.0013343493
        0.0002721056   0.0002543268   0.0000749920  -0.0001617030  -0.0002139262
        0.0000308803  -0.0001388160   0.0001326322  -0.0000815247   0.0000949992
       -0.0000420362  -0.0000672126   0.0000214428   0.0001054266   0.0002034625
        0.0000143341  -0.0000937914  -0.0007195012   0.0000587963  -0.0001003286
        0.0008934988   0.0000034122   0.0000872854  -0.0006843415  -0.0000004278
        0.0000016352   0.0003547797  -0.0000029660  -0.0000185065  -0.0003747682
       -0.0000190618  -0.0000220871   0.0007969531   0.0000036915   0.0000530683
       -0.0006779645   0.0000214384   0.0000253670   0.0001912239  -0.0000778677
       -0.0000008235   0.0001109830   0.0000078614   0.0000370690  -0.0000442093
       -0.0000006248   0.0000053192  -0.0000061584   0.0000045574  -0.0000145399
       -0.0000079642  -0.0000035511  -0.0000251939   0.0000145250  -0.0000044461
        0.0000168916  -0.0000089538  -0.0000124998  -0.0000272775  -0.0000071795
       -0.0000013822   0.0000741245   0.0000154039  -0.0000072236  -0.0001161763
       -0.0000908438   0.0000122055   0.0000108783   0.0000489371  -0.0000072399
       -0.0000107323  -0.0000221728  -0.0000983255  -0.0003598663   0.0000222438
       -0.0000128305   0.0022179037  -0.0193348498  -0.0077184118  -0.0382957943
        0.0067107599  -0.0255489453  -0.0004089903  -0.0014076935  -0.0001797091
       -0.1156021148   0.0323406651  -0.1133713694   0.0045880459  -0.0159089684
       -0.0006109118  -0.0000107334  -0.0000137157  -0.0000193660  -0.0000034812
       -0.0000083497   0.0000057900   0.0000084919  -0.0000166676   0.0000226464
       -0.0000169255  -0.0000104491   0.0000018263   0.0000900661   0.0002192357
       -0.0000149849   0.0000134709  -0.0000017811   0.0000375927   0.0000046005
       -0.0000209578  -0.0000049105   0.0000061527  -0.0000365601  -0.0000009523
       -0.0000203714   0.0000492296  -0.0000085217  -0.0000127352   0.0000007964
       -0.0000036040   0.0000101950   0.0000171773  -0.0000059023   0.0000097933
       -0.0000006890  -0.0000036644   0.0000102328   0.0000027450  -0.0000011542
        0.0000148883  -0.0000041095   0.0000007044  -0.0000082965  -0.0000031546
        0.0000024062  -0.0000094151   0.0000115787  -0.0000032556   0.0000072758
       -0.0000129012   0.0000519067   0.0004774370  -0.0001720369   0.0000457590
       -0.0061028197  -0.0003329874   0.0029709229
        0.0375379834   0.0073006922   0.0288420947  -0.1038312336   0.0512825275
       -0.0312009172   0.4555487081  -0.0630601162   0.2417846753  -0.2131142092
        0.0594273433  -0.1045554890  -0.0177353734   0.0258618711  -0.0084948015
       -0.0015647755  -0.0023428855  -0.0010394846   0.0002612135  -0.0001109786
       -0.0000939131  -0.0001575890  -0.0003769320  -0.0001763606   0.0000735720
       -0.0000915703  -0.0001488397  -0.0000359635   0.0000773705   0.0001877428
       -0.0002637956  -0.0000821844   0.0004172030   0.0022806397   0.0015571209
        0.0000225288   0.0005250293  -0.0001876896  -0.0004246994  -0.0003361004
        0.0000498591  -0.0002745855   0.0001932696  -0.0002052569   0.0002601607
        0.0000087792  -0.0003694173   0.0000131444   0.0002627555   0.0006904870
        0.0000244961  -0.0004042986  -0.0023204597  -0.0000806936  -0.0000231694
        0.0027035177   0.0000248257   0.0001058852  -0.0018674253  -0.0000053808
        0.0000653402   0.0009175102  -0.0000326402  -0.0002918909  -0.0009341864
       -0.0001000876   0.0001423174   0.0021301180   0.0000461845   0.0002170295
       -0.0018899976   0.0001256351  -0.0000049213   0.0006360995  -0.0000344573
        0.0000486415   0.0003254798   0.0000158082   0.0000735242  -0.0001410204
        0.0000031831   0.0000161244   0.0000038642  -0.0000230721  -0.0000189200
       -0.0000333992   0.0000023878  -0.0000581147   0.0000527022   0.0000022006
        0.0000633437  -0.0000078243   0.0000094948  -0.0000699882  -0.0000358553
       -0.0000019303   0.0002009313   0.0000220338   0.0000103870  -0.0003607802
       -0.0002419418   0.0000510522  -0.0000296728   0.0001453606   0.0000090714
        0.0003043962   0.0001050953  -0.0000150488  -0.0013799974   0.0003895418
       -0.0000916453  -0.0260161520  -0.0452024663  -0.0332314067  -0.0272536770
        0.0276563120  -0.0101100614   0.0016556214  -0.0016534497  -0.0045603070
       -0.0100363520   0.0235356480  -0.0017920484  -0.0983761462  -0.0826271140
       -0.0713508170   0.0000739608  -0.0000847682  -0.0001280834   0.0000387517
        0.0000528595   0.0000275962   0.0000542198   0.0000168651  -0.0000291011
        0.0001745001   0.0000339047  -0.0000342316   0.0004700583  -0.0000867206
       -0.0000924948  -0.0002978966  -0.0002147192   0.0001246884   0.0000024233
       -0.0000382863   0.0000498608   0.0000294127  -0.0001478449   0.0000036379
       -0.0000609080   0.0001684317  -0.0000437786  -0.0000369100   0.0000081939
       -0.0000000008   0.0000229219   0.0000542074   0.0000002429   0.0000083762
       -0.0000241846   0.0000022345   0.0000266727   0.0000098793  -0.0000022830
        0.0000218032   0.0000045283   0.0000022575  -0.0000168685  -0.0000118220
        0.0000078671  -0.0000847596   0.0000303824  -0.0000702107   0.0000348396
       -0.0000294717   0.0001687543   0.0014885967  -0.0013059072  -0.0043699130
       -0.0001711785   0.0004760886   0.0003693681
       -0.0393354132  -0.0579025262  -0.0454147332   0.1130438091  -0.3101050610
        0.0135868914  -0.0630601162   0.6547782677   0.0974056896   0.0123042144
       -0.0910819980  -0.0035467341   0.0339922610  -0.0247844939   0.0156326689
        0.0032225789  -0.0000054448   0.0022873163   0.0003361775   0.0007917314
        0.0001998140  -0.0005011673   0.0000131479   0.0001311608   0.0001841329
       -0.0005278069  -0.0004756772   0.0005530687   0.0008073604   0.0003248115
       -0.0007724721  -0.0022404879   0.0010903714  -0.0021552516  -0.0041300710
        0.0012530156  -0.0005308687   0.0005806739   0.0003602392   0.0000723877
        0.0000245834   0.0002213928   0.0001587879   0.0002368158  -0.0002102515
       -0.0000984469   0.0000448813  -0.0000292450  -0.0000857744   0.0001287967
       -0.0000130564   0.0001757218  -0.0003301921   0.0000557599  -0.0001892918
        0.0004514331  -0.0000093218   0.0001466975  -0.0004368230   0.0000066089
        0.0000074718   0.0002663278   0.0000139325   0.0000241868  -0.0002439018
        0.0000587427  -0.0000400714   0.0004153508  -0.0000386963   0.0000367992
       -0.0003231309  -0.0000507063   0.0000472473  -0.0000050264  -0.0000200005
       -0.0000163803   0.0000495185  -0.0000063732   0.0000291795  -0.0000389154
        0.0000013015   0.0000113103  -0.0000161278   0.0000126946  -0.0000320319
        0.0000106964   0.0000006483  -0.0000419926   0.0000037872  -0.0000020578
        0.0000160363  -0.0000083249  -0.0000061042  -0.0000210128   0.0000016023
        0.0000004467   0.0000531169   0.0000093842  -0.0000045965  -0.0001001036
       -0.0000438100  -0.0000266265   0.0000428284   0.0000542139  -0.0000060784
       -0.0003907897  -0.0003019092   0.0003038827   0.0023545331  -0.0010301487
       -0.0000905059  -0.0087686419   0.0418408124   0.0048602056   0.0296578704
       -0.0283831626   0.0163059987  -0.0012709446  -0.0020613058  -0.0037631122
        0.0049876349  -0.0094190553   0.0013855999  -0.0824366943  -0.1644793701
       -0.0990991533   0.0000018135   0.0000598811   0.0001276745  -0.0000042298
       -0.0000235436  -0.0000210629  -0.0000470683  -0.0000295969  -0.0000304461
       -0.0000195744  -0.0000341110   0.0000924979  -0.0004990094  -0.0007142615
        0.0005360558  -0.0000179510   0.0001774163  -0.0001328976   0.0000521820
        0.0000201500  -0.0000216996  -0.0000105365   0.0000162141  -0.0000110679
       -0.0000006218   0.0000124876   0.0000307404  -0.0000046471   0.0000000057
        0.0000008569   0.0000096848   0.0000056798   0.0000013756   0.0000207413
        0.0000181836  -0.0000001159   0.0000099160  -0.0000000982   0.0000014570
        0.0000224232  -0.0000157694  -0.0000014295  -0.0000091013  -0.0000027016
       -0.0000040869   0.0001797277  -0.0000434604   0.0000777638  -0.0000154738
        0.0000560997  -0.0000910890  -0.0019022009  -0.0022144506  -0.0037184736
        0.0006233392   0.0001015837   0.0004777839
        0.0157912428  -0.0119512967   0.0096942269  -0.0146454009  -0.0305255272
       -0.0642309711   0.2417846753   0.0974056896   0.3208065170  -0.1217283786
        0.0374998540  -0.1269043046  -0.0033840934   0.0076204152   0.0005609091
        0.0004597932   0.0000369712  -0.0006443028  -0.0000783663  -0.0005675106
       -0.0002011886   0.0001955888   0.0000354116  -0.0001827251  -0.0001709543
        0.0000579316   0.0001262423  -0.0003879943  -0.0002863234  -0.0002920188
        0.0000286517   0.0011552354  -0.0003512597   0.0011741727  -0.0009012123
        0.0010752880   0.0002585040  -0.0000617406  -0.0001636215  -0.0002221828
       -0.0000450141  -0.0000774533   0.0001045786  -0.0001502809   0.0001315214
       -0.0000101289   0.0000024957   0.0000260262   0.0002420283   0.0000272391
        0.0000152629  -0.0001374002  -0.0001209228   0.0000292454  -0.0000834745
        0.0002350558   0.0000005445   0.0000665014  -0.0001982266  -0.0000090339
       -0.0000742622   0.0000893668  -0.0000068973   0.0000767890  -0.0001800321
       -0.0000268097  -0.0001158937   0.0003438809   0.0000206239   0.0000210928
       -0.0002689854   0.0000161166   0.0000049844   0.0000392281  -0.0000409901
       -0.0000309692   0.0000431570   0.0000067698   0.0000327201   0.0000121608
        0.0000009665  -0.0000050755  -0.0000028583   0.0000127878  -0.0000157538
       -0.0000096900  -0.0000022028   0.0000074146   0.0000043398  -0.0000056330
       -0.0000147557  -0.0000058344  -0.0000122170  -0.0000170207   0.0000109934
       -0.0000068320   0.0000269716   0.0000248971  -0.0000088142  -0.0000030967
       -0.0000517154   0.0000104635   0.0000264759  -0.0000090191  -0.0000101357
        0.0001789646  -0.0000801877   0.0000021091  -0.0000110033   0.0000831380
       -0.0000653657  -0.0229749851  -0.0240390754  -0.0236309389  -0.0087803406
        0.0141332678  -0.0074890120  -0.0046292146  -0.0037544211   0.0030311748
       -0.0068850690   0.0153847457  -0.0003011986  -0.0718665133  -0.0991836962
       -0.1140334032  -0.0000432244   0.0000598094   0.0000335436  -0.0000214552
        0.0000129759   0.0000157914   0.0000299669   0.0000026107   0.0000688830
       -0.0000135612   0.0000219096   0.0000168109   0.0005088056   0.0011739926
       -0.0003990738  -0.0001580506  -0.0001633709   0.0001806356  -0.0000125708
       -0.0000224635  -0.0000100230  -0.0000103640  -0.0000125925  -0.0000015037
       -0.0000111517   0.0000298920  -0.0000144398  -0.0000035217  -0.0000032381
        0.0000003630   0.0000023525   0.0000022558  -0.0000001505   0.0000091604
        0.0000091594  -0.0000015746   0.0000087763   0.0000012221  -0.0000007942
        0.0000134180  -0.0000078565  -0.0000051837  -0.0000077441  -0.0000004367
       -0.0000058211   0.0000347188  -0.0000195018   0.0000029333   0.0000158525
       -0.0000517481   0.0000665324  -0.0046687523  -0.0033431209   0.0028643103
        0.0001185227   0.0004585969   0.0003192950
       -0.0361949676  -0.0152460375  -0.0261757984  -0.0145337996   0.0710417202
        0.0090110904  -0.2131142092   0.0123042144  -0.1217283786   0.4918609315
       -0.0404377162   0.2282213521  -0.0913948390   0.0477477485  -0.0030504836
        0.0109443918  -0.0121639425   0.0022612081  -0.0028351424  -0.0041492520
        0.0002516455   0.0001545056   0.0000309444  -0.0008956842  -0.0002050490
        0.0000282726   0.0001380848  -0.0002368096   0.0003361478  -0.0006707937
       -0.0016469871  -0.0025916963  -0.0003579339  -0.0188289866   0.0290080254
       -0.0033170544  -0.0005625922   0.0021064024  -0.0001681390  -0.0002117904
       -0.0000539622  -0.0003681964   0.0003965554  -0.0000011649  -0.0001878940
       -0.0001857912   0.0004059595   0.0001596970  -0.0000796610  -0.0003114333
        0.0000175904   0.0002650851   0.0009724393   0.0000830529  -0.0001295263
       -0.0010489386  -0.0000169997  -0.0000173052   0.0004477268   0.0000110693
        0.0001234031  -0.0001646563   0.0000379687  -0.0000696777   0.0003377899
        0.0001301418   0.0001277937  -0.0007958115  -0.0000659619  -0.0001742608
        0.0007513541  -0.0001587509   0.0001513941  -0.0003888642   0.0000036915
        0.0000162146  -0.0000904161  -0.0000190824  -0.0000060691   0.0000204971
       -0.0000029679   0.0000034121  -0.0000206372   0.0000324338  -0.0000549861
        0.0000117118  -0.0000031354  -0.0000070553  -0.0000014239  -0.0000057937
        0.0000021475   0.0000100006  -0.0000112070  -0.0000025795   0.0000011662
        0.0000022666  -0.0000008138  -0.0000526309  -0.0000071472  -0.0000026269
        0.0000893152  -0.0000659994   0.0000427081   0.0000381930  -0.0000173260
       -0.0011197109   0.0006469267  -0.0013325587  -0.0039183812   0.0006045634
        0.0011274542  -0.1305036643  -0.0434483486  -0.0716980189   0.0349849159
       -0.0358391234   0.0185815410  -0.0001453952  -0.0005100633  -0.0005599118
        0.0033693649   0.0023645684  -0.0031264078  -0.0129575367   0.0012276048
       -0.0101976458   0.0000517709   0.0001404813   0.0003138541  -0.0002200076
       -0.0003178623  -0.0001333450   0.0000087048  -0.0001560784   0.0001564524
       -0.0002687729  -0.0001206559   0.0000820086  -0.0004002862  -0.0011329172
        0.0012062982  -0.0009063683   0.0004158800   0.0012845478   0.0001306805
        0.0000055928  -0.0000920870  -0.0000253001   0.0000850647  -0.0000207836
        0.0000192258  -0.0000780323   0.0000668467   0.0000186865  -0.0000071006
       -0.0000011000  -0.0000032237  -0.0000338908  -0.0000009421   0.0000266664
        0.0000468250  -0.0000031081  -0.0000060293  -0.0000104818   0.0000056342
        0.0000153665  -0.0000253433  -0.0000014401  -0.0000035492   0.0000094595
       -0.0000089201  -0.0002563828  -0.0000312341   0.0000159412  -0.0000541133
       -0.0001257088   0.0001754695  -0.0144883764  -0.0152843292  -0.0154187232
        0.0030586992   0.0034031583  -0.0034876210
       -0.0152944172   0.0022052161  -0.0090745293   0.0261327911  -0.0092524790
        0.0188589327   0.0594273433  -0.0910819980   0.0374998540  -0.0404377162
        0.5908017030   0.0804860223   0.0461424024  -0.2132020301  -0.0009438096