$hessian                                                                        
        0.6739968002  -0.0128685805  -0.0338478754  -0.1307126006  -0.0585450288
       -0.1011333182  -0.0286733205  -0.0149454181  -0.0255609321   0.0045191834
        0.0012579420   0.0020146888  -0.0013763080   0.0001699048   0.0003436906
        0.0010366397   0.0002963973   0.0005198336  -0.0002224118  -0.0000394892
       -0.0000641983   0.0000125183  -0.0000105226   0.0000057979   0.0000347957
        0.0000297780  -0.0000323457  -0.0000116106  -0.0000135734   0.0000114167
       -0.0000220556   0.0000126752  -0.0000090736   0.0000066537  -0.0000100852
        0.0000077553  -0.0000243877  -0.0000057260   0.0000110610  -0.0000266521
       -0.0000008815  -0.0000008463   0.0000584497   0.0000012144   0.0000018998
        0.0000137905   0.0000074221   0.0000115853   0.0000051380  -0.0000038489
       -0.0000100695  -0.0000084400  -0.0000000614   0.0000000902  -0.0000048512
       -0.0000008528  -0.0000005722  -0.0000014088  -0.0000007796   0.0000004723
        0.0000009758  -0.0000005650  -0.0000009405  -0.0000013270   0.0000009000
       -0.0000008626  -0.0000010553  -0.0000000496  -0.0000004526  -0.0000027678
       -0.0000000445  -0.0000002507  -0.0000007488  -0.0000005128  -0.0000000623
       -0.0000004958   0.0000006013   0.0000015229  -0.0000027283  -0.0000000909
        0.0000014504  -0.0000014077  -0.0000002613   0.0000018465  -0.0000008278
       -0.0000006344   0.0000021167   0.0000014423   0.0000003487   0.0000018943
       -0.0000022372   0.0000011283   0.0000005841   0.0000046556   0.0000038795
        0.0000109804   0.0000161747  -0.0000070450  -0.0000096452  -0.0000239138
        0.0000089054  -0.0000038841   0.0000066177   0.0000096028  -0.0000077430
       -0.0000217968  -0.0000138435   0.0000077439  -0.0000115863   0.0000112916
       -0.0000141544   0.0000353798  -0.0000409712   0.0000121897   0.0000114892
        0.0000116087  -0.0000012255  -0.0023922900   0.0000063394   0.0000036319
       -0.0030479184  -0.0014121565  -0.0022956032  -0.0403323786   0.0123495574
        0.0223943230  -0.1819166093   0.0817507108   0.1461514905  -0.2978917332
       -0.0095903403  -0.0113524236   0.0063620320   0.0074121207   0.0128941671
       -0.0056910667  -0.0005451727  -0.0006557857   0.0002834633   0.0000913929
        0.0001522633  -0.0000334019  -0.0000161498   0.0000237753  -0.0000055165
        0.0000092205   0.0000010441   0.0000011577   0.0000003300   0.0000028669
       -0.0000036454   0.0000031660   0.0000004573  -0.0000004707   0.0000002832
       -0.0000067888  -0.0000066518   0.0000000941  -0.0000006706  -0.0000015896
        0.0000005649  -0.0000002876  -0.0000014385  -0.0000006027  -0.0000017451
       -0.0000018763   0.0000002806  -0.0000009845  -0.0000015720   0.0000001988
        0.0000001969  -0.0000016034  -0.0000001732   0.0000013496  -0.0000016192
       -0.0000002991   0.0000024499  -0.0000011718   0.0000004168   0.0000029469
       -0.0000013674  -0.0000005785   0.0000016802  -0.0000059007  -0.0000003441
        0.0000012627  -0.0000009274  -0.0000004375   0.0000075537  -0.0000036125
       -0.0000023133   0.0000025128   0.0000013492   0.0000001904  -0.0000014356
       -0.0000051203  -0.0000082582   0.0000006901  -0.0000331477   0.0000271373
       -0.0000030235  -0.0003613909  -0.0000199759  -0.0000495287  -0.0000330800
       -0.0001857238  -0.0003283375   0.0065233336  -0.0051842125  -0.0092182160
       -0.0128685805   0.2449806154   0.2291810263  -0.0198308043  -0.0995781826
       -0.0875333642  -0.0417518106   0.0036907890   0.0055336011   0.0105585178
       -0.0148140712  -0.0159619988  -0.0085593645   0.0013791702   0.0027774904
        0.0002616813  -0.0042639715  -0.0081551006   0.0000332736   0.0000348986
       -0.0000028178  -0.0000028850   0.0000121980   0.0000123022  -0.0000187586
        0.0000062673   0.0000162452   0.0000075352  -0.0000014833   0.0000028307
        0.0000027848  -0.0000023830  -0.0000052333   0.0000025668  -0.0000029071
       -0.0000007067   0.0000028940   0.0000019961   0.0000063597  -0.0000016360
        0.0000010418   0.0000019322  -0.0000018519  -0.0000005849  -0.0000004613
        0.0000033103  -0.0000005532  -0.0000068276  -0.0000039284  -0.0000044620
        0.0000010023  -0.0000055528   0.0000014333  -0.0000003517   0.0000069279
        0.0000050701   0.0000003492  -0.0000033034  -0.0000041877  -0.0000031305
        0.0000011255   0.0000009847  -0.0000005090  -0.0000009213  -0.0000015590
       -0.0000003737  -0.0000003087   0.0000002726   0.0000001881  -0.0000015472
       -0.0000004774  -0.0000010864   0.0000014497   0.0000006112  -0.0000002904
        0.0000010271   0.0000026915  -0.0000008252   0.0000016362  -0.0000017350
       -0.0000017608   0.0000004170   0.0000022566  -0.0000010916  -0.0000025029
        0.0000006710  -0.0000017349  -0.0000011015  -0.0000017674  -0.0000026124
       -0.0000012953   0.0000026250   0.0000012464  -0.0000067167   0.0000013543
       -0.0000004160   0.0000024471   0.0000055881  -0.0000029655   0.0000005465
        0.0000101707   0.0000046267   0.0000014135   0.0000029945  -0.0000028723
        0.0000030175   0.0000016380  -0.0000006570   0.0000069369   0.0000015299
        0.0000072414  -0.0000148113   0.0000180947   0.0000153621   0.0000050531
        0.0000044403   0.0000255302   0.0084614699   0.0029444321   0.0045668286
       -0.0108553525   0.0078976395   0.0036577842   0.0357440032   0.0022601749
        0.0013546054   0.0460134733  -0.1028625148  -0.1047508431  -0.0094938309
       -0.0369804206  -0.0045760946  -0.0044594924  -0.0052899841  -0.0113317389
       -0.0001360574   0.0073975527  -0.0034624568   0.0000116809  -0.0000923019
        0.0001889631   0.0000035498   0.0000087673  -0.0000103201  -0.0000002740
        0.0000031767   0.0000015471   0.0000036304  -0.0000027963   0.0000013571
        0.0000035409  -0.0000006244  -0.0000005035   0.0000014664  -0.0000002883
        0.0000021624   0.0000020132   0.0000003273   0.0000012794   0.0000065076
        0.0000012811  -0.0000005311   0.0000008499   0.0000019086   0.0000008371
        0.0000009257  -0.0000001592  -0.0000004290  -0.0000000749   0.0000008061
       -0.0000003540   0.0000000225   0.0000002773  -0.0000010129   0.0000000229
        0.0000014921  -0.0000017043  -0.0000000801   0.0000020968  -0.0000014644
        0.0000072471   0.0000008466   0.0000003366   0.0000004078   0.0000008125
        0.0000006153  -0.0000012750   0.0000010395   0.0000035547   0.0000011100
       -0.0000001519  -0.0000006552   0.0000036814   0.0000010153   0.0000001903
        0.0000018618   0.0000053895  -0.0000000044   0.0000075093  -0.0000314157
        0.0000041671   0.0000097348  -0.0006128098   0.0004303201  -0.0001511401
       -0.0000691923   0.0001250508   0.0069859871  -0.0060774545  -0.0121016334
       -0.0338478754   0.2291810263   0.5174916750  -0.0332043277  -0.0867920265
       -0.2010855247  -0.0725715793   0.0050055809   0.0112673924   0.0183123553
       -0.0158349564  -0.0338707689  -0.0149907635   0.0026375850   0.0047455130
        0.0004426445  -0.0081588027  -0.0139411922   0.0000636193   0.0000032323
        0.0000288165   0.0000027408   0.0000300530   0.0000278972  -0.0000287855
        0.0000083050   0.0000373824   0.0000127509   0.0000093842   0.0000047723
        0.0000062163  -0.0000021679  -0.0000053748   0.0000027722  -0.0000060430
       -0.0000005068   0.0000027075   0.0000006219   0.0000152512  -0.0000018110
        0.0000018393   0.0000033041  -0.0000058218   0.0000001222  -0.0000006405
        0.0000068928  -0.0000022173  -0.0000118461   0.0000036110  -0.0000004636
        0.0000001377  -0.0000099841  -0.0000000656  -0.0000007555   0.0000107282
        0.0000042360   0.0000050714  -0.0000084296  -0.0000061649  -0.0000099071
        0.0000011438   0.0000004284   0.0000013749  -0.0000045830  -0.0000015637
       -0.0000027303   0.0000041448  -0.0000018964   0.0000072066  -0.0000008395
       -0.0000028996   0.0000008551   0.0000064210  -0.0000016499   0.0000021377
       -0.0000006563   0.0000016355   0.0000015732   0.0000009411  -0.0000016610
       -0.0000011916   0.0000001859   0.0000010993  -0.0000008134  -0.0000019620
       -0.0000009476   0.0000031499  -0.0000013461  -0.0000033433   0.0000006934
        0.0000006969   0.0000027353   0.0000008784  -0.0000027692   0.0000022112
        0.0000023575   0.0000030371  -0.0000017258  -0.0000036488   0.0000053200
        0.0000107693   0.0000070772   0.0000043283   0.0000018920  -0.0000043407
        0.0000063237  -0.0000031015  -0.0000042637   0.0000111798   0.0000040643
        0.0000064788  -0.0000309596   0.0000231512   0.0000247548  -0.0000003792
        0.0000057510   0.0000368063   0.0149067460   0.0046968826   0.0082758383
       -0.0188736376   0.0035141878   0.0123749179   0.0634700656   0.0018037177
        0.0030324321   0.0833640467  -0.1054431484  -0.2305010072  -0.0111850517
       -0.0045665852  -0.0420790580  -0.0079170931  -0.0115694092  -0.0189492488
        0.0000620016  -0.0034442485   0.0033068087   0.0000113678   0.0001919476
        0.0001232455   0.0000111784   0.0000276115  -0.0000350820   0.0000030025
       -0.0000040634   0.0000051673   0.0000054985  -0.0000019695   0.0000030476
        0.0000046698  -0.0000040018   0.0000008577   0.0000009859   0.0000003469
        0.0000041499   0.0000026102   0.0000006561   0.0000023684  -0.0000001026
       -0.0000005841   0.0000007199   0.0000003822   0.0000012354   0.0000006670
        0.0000013101   0.0000002881  -0.0000001468  -0.0000000812   0.0000002140
        0.0000003896   0.0000003111  -0.0000003121   0.0000001984   0.0000004733
       -0.0000002984   0.0000012809  -0.0000004302   0.0000007617   0.0000006460
        0.0000010022   0.0000009474   0.0000007164   0.0000023877   0.0000004281
        0.0000013144  -0.0000034242   0.0000021983   0.0000066474   0.0000060413
        0.0000022443  -0.0000013244   0.0000063377   0.0000051424  -0.0000018633
        0.0000022825   0.0000041325   0.0000012376   0.0000081484  -0.0000341069
        0.0000060098   0.0000147752   0.0004247477  -0.0000997400  -0.0002668260
        0.0001202135   0.0000916533   0.0121631332  -0.0118432028  -0.0203518956
       -0.1307126006  -0.0198308043  -0.0332043277   0.6927386885  -0.0060050971
       -0.0213382150  -0.3771769596  -0.0299776207  -0.0465913963  -0.0600902813
        0.0279169067   0.0499904426   0.0196852718  -0.0019794268  -0.0036613023
       -0.0023941582   0.0085961560   0.0151191503   0.0000041359   0.0000823223
        0.0001323409  -0.0000335659  -0.0000085570  -0.0000399713   0.0000566627
       -0.0000042635  -0.0000553633  -0.0000126324  -0.0000125518   0.0000086995
       -0.0000173884   0.0000140921   0.0000004482  -0.0000071636   0.0000060268
        0.0000048064   0.0000036053  -0.0000137129  -0.0000204381  -0.0000170075
       -0.0000030403  -0.0000034725   0.0000165401   0.0000039406   0.0000054325
        0.0000071617   0.0000018047  -0.0000008668   0.0000027113  -0.0000014340
       -0.0000047359   0.0000136813  -0.0000012639  -0.0000029810  -0.0000219619
        0.0000018529   0.0000000890   0.0000052987   0.0000074173   0.0000054017
        0.0000038344  -0.0000048270  -0.0000032176   0.0000052463   0.0000006888
       -0.0000017376   0.0000005132  -0.0000017880  -0.0000006160  -0.0000004965
       -0.0000031861  -0.0000014834  -0.0000012777   0.0000000079   0.0000006373
       -0.0000043429  -0.0000042750  -0.0000001687  -0.0000001161  -0.0000038207
        0.0000009294  -0.0000024572  -0.0000029673   0.0000017973   0.0000027934
       -0.0000047871   0.0000021629   0.0000010303   0.0000007739   0.0000027891
        0.0000096277  -0.0000136720  -0.0000064324   0.0000006959  -0.0000013108
        0.0000029852   0.0000066988  -0.0000037791  -0.0000026412   0.0000041209
       -0.0000104574  -0.0000251450  -0.0000060999  -0.0000005888   0.0000034974
       -0.0000151867  -0.0000080138   0.0000094644  -0.0000109225   0.0000108088
       -0.0000139442   0.0000577193  -0.0000415283  -0.0000314611  -0.0000290697
       -0.0000272965  -0.0000269732  -0.0117209495  -0.0044920783  -0.0077363722
        0.0116951338  -0.0035735708  -0.0064535748  -0.0365168643  -0.0053216572
       -0.0087727560   0.0529076620  -0.0097667343  -0.0181723643  -0.0163519471
       -0.0133140812  -0.0230742764  -0.1255328785   0.0580102009   0.1038121675
       -0.0161629166  -0.0019089177  -0.0030269617   0.0004036006   0.0000194873
        0.0000357469  -0.0000164967  -0.0000464444   0.0000566448  -0.0000091251
        0.0000103121  -0.0000027175  -0.0000073492   0.0000048836   0.0000009587
       -0.0000056934   0.0000045464  -0.0000005452  -0.0000054473   0.0000022302
       -0.0000003299  -0.0000056732   0.0000000613  -0.0000013539  -0.0000017646
        0.0000003292  -0.0000011377   0.0000002131  -0.0000013692  -0.0000030862
       -0.0000007767  -0.0000023592  -0.0000026814  -0.0000020132  -0.0000021927
       -0.0000007390  -0.0000025776  -0.0000029644   0.0000011118  -0.0000031476
       -0.0000022953   0.0000031037  -0.0000020326  -0.0000008617   0.0000037106
       -0.0000014235  -0.0000020782   0.0000019915  -0.0000053960  -0.0000017694
        0.0000029838   0.0000010515  -0.0000009732   0.0000033590  -0.0000043442
       -0.0000045493   0.0000012491  -0.0000043431  -0.0000039002  -0.0000008276
       -0.0000060919  -0.0000103273  -0.0000015347  -0.0000149863   0.0000734548
       -0.0000147746   0.0000480067  -0.0000429413  -0.0000864969   0.0001591107
       -0.0000441884  -0.0000926630  -0.0009028887   0.0017480194   0.0032679819
       -0.0585450288  -0.0995781826  -0.0867920265  -0.0060050971   0.2411573697
        0.2213412058   0.0056592741  -0.0565669998  -0.0228136699   0.0046416081
        0.0069395123   0.0103443555   0.0074374987   0.0023158264  -0.0060994436
        0.0000978773   0.0030725825   0.0047163019   0.0000491535  -0.0006846906
        0.0002518690   0.0001387072   0.0000047254  -0.0000059495   0.0000085179
        0.0000040346  -0.0000187578   0.0000001419  -0.0000104115  -0.0000053859
        0.0000048319  -0.0000035193   0.0000022934   0.0000075129   0.0000024717
       -0.0000068590   0.0000227232  -0.0000140353   0.0000230115   0.0000141038
       -0.0000050023   0.0000012192  -0.0000107721  -0.0000019337  -0.0000028692
       -0.0000065693  -0.0000025355  -0.0000036843  -0.0000086337  -0.0000023406
        0.0000074944   0.0000147260   0.0000007864  -0.0000004590  -0.0000101468
        0.0000033038  -0.0000006808   0.0000050540   0.0000054965   0.0000050901
        0.0000005562  -0.0000008270  -0.0000005263   0.0000015787  -0.0000031801
        0.0000043218  -0.0000029582  -0.0000019856   0.0000032537   0.0000002706
       -0.0000012962   0.0000033178  -0.0000014044   0.0000042942   0.0000013814
        0.0000000721  -0.0000000719  -0.0000008617   0.0000025533  -0.0000012322
       -0.0000019207   0.0000001566   0.0000034752  -0.0000017812   0.0000009110
        0.0000016063  -0.0000023265   0.0000003390   0.0000011824  -0.0000013799
        0.0000055213  -0.0000030025  -0.0000035297  -0.0000064446  -0.0000003274
       -0.0000070368  -0.0000042226   0.0000099247   0.0000004146  -0.0000110778
       -0.0000356032   0.0000202078  -0.0000154320   0.0000037180   0.0000046326
        0.0000073698   0.0000113841  -0.0000045196   0.0000072438   0.0000083428
        0.0000067366  -0.0000163277   0.0000071696  -0.0000361731  -0.0001389446
        0.0000165992  -0.0000226563  -0.0046226070  -0.0012510792  -0.0027552781
        0.0052644154  -0.0017442825  -0.0029135149  -0.0148108356  -0.0050080081
        0.0016262102   0.0170990342  -0.0158506399  -0.0296893213  -0.0014517659
        0.0000572574  -0.0018670296   0.0579702508  -0.0782436112  -0.0778268753
       -0.0140953323  -0.0006676756  -0.0021755247  -0.0000171091  -0.0001739715
       -0.0000732005  -0.0000119557  -0.0000028850   0.0000020458  -0.0000023408
        0.0000031407  -0.0000086644  -0.0000053340   0.0000008637  -0.0000046351
       -0.0000002973   0.0000015353   0.0000018127   0.0000010600  -0.0000008763
        0.0000046720   0.0000011823  -0.0000010871   0.0000005950   0.0000064016
        0.0000013978   0.0000026201   0.0000009443   0.0000007543   0.0000046996
        0.0000010072  -0.0000008580   0.0000022607  -0.0000001813   0.0000006833
        0.0000022317  -0.0000000660   0.0000006225   0.0000001859   0.0000007122
        0.0000025899  -0.0000022437   0.0000010016   0.0000024207  -0.0000032331
        0.0000060417   0.0000007538  -0.0000000166   0.0000011851   0.0000020138
        0.0000010934   0.0000019422   0.0000003868  -0.0000035513  -0.0000068349
       -0.0000060998   0.0000041631  -0.0000020346  -0.0000037261   0.0000047905
        0.0000024336   0.0000047097   0.0000064395   0.0000163481  -0.0000057025
        0.0000087142  -0.0000687404   0.0000475838   0.0000214571   0.0000370634
       -0.0000621126   0.0002310797   0.0013391684   0.0062392737  -0.0055065921
       -0.1011333182  -0.0875333642  -0.2010855247  -0.0213382150   0.2213412058
        0.5035559713   0.0160245773  -0.0221537557  -0.0822945234   0.0091905153
        0.0099366769   0.0182287896   0.0127560111  -0.0059278136  -0.0049071400
        0.0002304999   0.0045392887   0.0083640605   0.0000793950   0.0002481900
       -0.0003904257  -0.0000800388  -0.0000276303   0.0000081273  -0.0000134090
       -0.0000347526  -0.0000224089   0.0000102935   0.0000002979   0.0000078873
        0.0000115532  -0.0000102161   0.0000087435  -0.0000125652   0.0000061735
        0.0000030827   0.0000005622   0.0000332011  -0.0000130979   0.0000238775
        0.0000015094  -0.0000004969  -0.0000227938  -0.0000030008  -0.0000063670
       -0.0000084052  -0.0000044198  -0.0000074447  -0.0000041789   0.0000074947
        0.0000063918   0.0000237997   0.0000013170  -0.0000015109  -0.0000195355
        0.0000015761   0.0000005262   0.0000049681   0.0000112269   0.0000002031
        0.0000005508  -0.0000025942  -0.0000032794   0.0000001906   0.0000048682
       -0.0000066698   0.0000037860   0.0000028289   0.0000030490   0.0000019301
        0.0000000791  -0.0000034943   0.0000009514   0.0000031616   0.0000021760
       -0.0000029794  -0.0000010626  -0.0000009635   0.0000032786   0.0000010756
        0.0000004295  -0.0000005821  -0.0000004663  -0.0000001286   0.0000045311
       -0.0000030550   0.0000042073  -0.0000002004   0.0000025176   0.0000034062
        0.0000114394  -0.0000096314  -0.0000077338  -0.0000048448  -0.0000048107
       -0.0000071288  -0.0000081835   0.0000015840   0.0000017493   0.0000217871
        0.0000094304   0.0000126214   0.0000002926  -0.0000073463   0.0000020282
        0.0000086577   0.0000068001  -0.0000064725   0.0000042237   0.0000048395
       -0.0000047911  -0.0000024631  -0.0000182087  -0.0000278072   0.0000775518
        0.0000002301  -0.0000128361  -0.0078752778  -0.0027490733  -0.0043173471
        0.0089992417  -0.0027612857  -0.0051035836  -0.0254095432   0.0014373246
       -0.0027076825   0.0289901686  -0.0291585248  -0.0509414057  -0.0022836400
       -0.0016386512  -0.0017385444   0.1036562706  -0.0778332249  -0.1732644151
       -0.0243745155  -0.0024141883  -0.0029983771  -0.0000384370  -0.0000742234
       -0.0002565951   0.0000120867   0.0000118550   0.0000023858   0.0000035325
        0.0000022519   0.0000031939  -0.0000057029   0.0000099057   0.0000019274
       -0.0000058988   0.0000073019   0.0000013674   0.0000006745   0.0000028652
        0.0000061198   0.0000017729   0.0000039057  -0.0000014702   0.0000002252
        0.0000027046  -0.0000016596   0.0000008707   0.0000035964  -0.0000042370
        0.0000008889   0.0000024240  -0.0000042762  -0.0000000097   0.0000023466
       -0.0000023886   0.0000005228   0.0000010170  -0.0000001060   0.0000014390
        0.0000001234   0.0000030685   0.0000011065  -0.0000008581   0.0000028035
        0.0000015542  -0.0000009692   0.0000011699   0.0000033246  -0.0000015741
        0.0000011998   0.0000003747  -0.0000009541  -0.0000039079  -0.0000037719
       -0.0000015188   0.0000025699  -0.0000082044  -0.0000069439   0.0000003631
       -0.0000000892  -0.0000084855  -0.0000018504  -0.0000049034  -0.0000006809
        0.0000048261  -0.0001215703   0.0000242345   0.0000744639   0.0000574364
        0.0002315377   0.0002127639   0.0025565631  -0.0055156831  -0.0003735807
       -0.0286733205  -0.0417518106  -0.0725715793  -0.3771769596   0.0056592741
        0.0160245773   0.6978316891   0.0198758115   0.0242403161  -0.1221698828
        0.0340625625   0.0610431951  -0.0558285375   0.0174475361   0.0314723071
       -0.0028129262  -0.0107215152  -0.0186858020  -0.0006333861   0.0005664236
        0.0009983219  -0.0001162182  -0.0001000945   0.0000827832  -0.0000217027
       -0.0000030300   0.0000711300   0.0000172819  -0.0000170775   0.0000191502
        0.0000153071  -0.0000222104   0.0000090917   0.0000216646  -0.0000017603
        0.0000032084  -0.0000031516  -0.0000044362  -0.0000799069   0.0000265605
        0.0000002527   0.0000007008   0.0000513128   0.0000174486   0.0000291286
       -0.0000183487  -0.0000002862   0.0000237184  -0.0000040302   0.0000092020
        0.0000075013   0.0000635838   0.0000019869   0.0000031074  -0.0000732014
        0.0000000706  -0.0000037524   0.0000227991   0.0000288087   0.0000246901
       -0.0000006966  -0.0000113686  -0.0000047773   0.0000058989   0.0000051600
        0.0000016761  -0.0000042767   0.0000023016   0.0000028427   0.0000014004
       -0.0000020353  -0.0000014712  -0.0000097987   0.0000094997   0.0000037507
       -0.0000092477  -0.0000072930  -0.0000031485   0.0000022591   0.0000036784
        0.0000017188  -0.0000047021  -0.0000012197  -0.0000023223   0.0000078567
       -0.0000025304  -0.0000007461  -0.0000013962   0.0000123769   0.0000039176
        0.0000247736  -0.0000256894  -0.0000216686  -0.0000097255  -0.0000098697
       -0.0000031942  -0.0000267514  -0.0000024570  -0.0000318770  -0.0000084375
       -0.0000608081  -0.0000384257   0.0000218360   0.0000024399  -0.0000020161
        0.0000149568   0.0000230551  -0.0000074079   0.0000143792   0.0000249606
       -0.0000049801  -0.0000217157   0.0000617976   0.0000360102  -0.0001136864
        0.0001216895  -0.0000423272   0.0114928501   0.0050957668   0.0088042957
       -0.0114911067   0.0015417998   0.0029902860   0.0459737914   0.0058452510
        0.0094009299  -0.0431147200   0.0126300308   0.0229733619  -0.0002183755
       -0.0013686655  -0.0022783744  -0.0207767313   0.0005761404   0.0014205143
       -0.0929635289  -0.0502159349  -0.0870686581   0.0008925820   0.0008613895
        0.0014417245  -0.0000987507  -0.0000282992   0.0000013188  -0.0000017968
        0.0000326129  -0.0000161406  -0.0000155592   0.0000223479  -0.0000125448
       -0.0000352283   0.0000123130  -0.0000163936   0.0000091057   0.0000032396
        0.0000046112  -0.0000108085   0.0000001376  -0.0000045787   0.0000004813
        0.0000046784   0.0000043086  -0.0000000962  -0.0000001495   0.0000020100
       -0.0000015423  -0.0000003521   0.0000012479  -0.0000017727   0.0000015874
        0.0000009897  -0.0000014605   0.0000012905   0.0000001292   0.0000000675
        0.0000027530  -0.0000002248   0.0000015951   0.0000018670  -0.0000010283
        0.0000017946  -0.0000022753  -0.0000019721  -0.0000097575   0.0000014344
        0.0000055785   0.0000068028   0.0000000866   0.0000026274  -0.0000357028
       -0.0000216508   0.0000003839  -0.0000165474  -0.0000220051   0.0000142514
       -0.0000027577  -0.0000316269   0.0000200220  -0.0000998830   0.0000148246
       -0.0000221483   0.0001041929   0.0000313409   0.0000392691   0.0001867419
       -0.0004367019  -0.0007687670  -0.0001753390   0.0002559246   0.0004655296
       -0.0149454181   0.0036907890   0.0050055809  -0.0299776207  -0.0565669998
       -0.0221537557   0.0198758115   0.2394824377   0.2185465764   0.0504142797
       -0.0948092834  -0.0762156665   0.0130156991  -0.0008748228  -0.0030093616
       -0.0016303497   0.0078199822   0.0036657212   0.0002578155   0.0001790501
        0.0000178061  -0.0001675196  -0.0000202805  -0.0000868883  -0.0000522583
       -0.0000184380  -0.0000254571  -0.0000227149   0.0000059801  -0.0000159233
        0.0000074125  -0.0000071755  -0.0000032161   0.0000119870  -0.0000028625
        0.0000048832  -0.0000177791   0.0000100575  -0.0000402304  -0.0000000324
       -0.0000122258   0.0000036977   0.0000087692   0.0000060369   0.0000012318
       -0.0000178658  -0.0000013791   0.0000159523  -0.0000109694  -0.0000013343
        0.0000044540   0.0000177822  -0.0000010247  -0.0000026468  -0.0000148973
        0.0000038543  -0.0000042417   0.0000034497   0.0000018051   0.0000056063
       -0.0000012146  -0.0000020622  -0.0000030772  -0.0000004929  -0.0000051922
        0.0000024175  -0.0000037577  -0.0000040269   0.0000015275  -0.0000011254
       -0.0000037300   0.0000016240  -0.0000019560   0.0000030879   0.0000000280
       -0.0000015961  -0.0000023315  -0.0000020175   0.0000008941  -0.0000023328
       -0.0000031521  -0.0000021759   0.0000011405  -0.0000034066  -0.0000027530
        0.0000011179  -0.0000029942  -0.0000025859   0.0000004073  -0.0000027072
        0.0000048705  -0.0000034456  -0.0000038602  -0.0000059984  -0.0000039988
       -0.0000076828  -0.0000137431   0.0000078781  -0.0000117274  -0.0000094056
        0.0000046638  -0.0000054895   0.0000014245  -0.0000069878   0.0000037617
        0.0000036654   0.0000195310  -0.0000010559  -0.0000239088   0.0000013052
        0.0000058273   0.0000189245  -0.0000024139  -0.0000029881  -0.0000399856
       -0.0000044871   0.0000361120  -0.0035581653  -0.0017081307  -0.0026867606
        0.0015620568   0.0027283516  -0.0061660081  -0.0049635067  -0.0099836447
       -0.0193874087   0.0092594654  -0.0044167889  -0.0016672904  -0.0016171118
        0.0034237771  -0.0046195572   0.0125780531   0.0005783695  -0.0004017982
       -0.0495671345  -0.0870158260  -0.0927799725  -0.0010041008  -0.0011709147
        0.0013577712   0.0000338728  -0.0000246711   0.0000488394   0.0000042730
        0.0000189434  -0.0000089259  -0.0000050081   0.0000076697  -0.0000091137
       -0.0000123922   0.0000042791  -0.0000042272   0.0000022094  -0.0000018594
        0.0000003793  -0.0000036007  -0.0000025808  -0.0000018285   0.0000069768
        0.0000010978   0.0000037712   0.0000008852  -0.0000008544   0.0000039928
        0.0000011313  -0.0000019932   0.0000012334  -0.0000000657  -0.0000007752
        0.0000012168  -0.0000002180  -0.0000010896  -0.0000008316   0.0000004062
        0.0000005271  -0.0000032778   0.0000004491   0.0000006383  -0.0000039016
        0.0000061751  -0.0000006273  -0.0000001638  -0.0000004911   0.0000008834
        0.0000010412   0.0000062474  -0.0000004955  -0.0000024189  -0.0000174368
       -0.0000027100   0.0000003843  -0.0000104745  -0.0000059857   0.0000066309
        0.0000052945   0.0000098852  -0.0000021033   0.0000573109   0.0000434276
       -0.0000623353  -0.0000960647  -0.0010299339   0.0007030707   0.0003703766
       -0.0004081639  -0.0003457150   0.0002859256   0.0000769061   0.0003100451
       -0.0255609321   0.0055336011   0.0112673924  -0.0465913963  -0.0228136699
       -0.0822945234   0.0242403161   0.2185465764   0.4966268776   0.0897569685
       -0.0758947408  -0.1866954496   0.0237455016  -0.0031071180  -0.0051008145
       -0.0027444079   0.0038231755   0.0124975771   0.0004704706   0.0000050304
        0.0001735585  -0.0001442426   0.0000323179  -0.0000324745  -0.0000069033
       -0.0000116424  -0.0000198804  -0.0000412045   0.0000132329  -0.0000049884
        0.0000082322  -0.0000141051   0.0000159739   0.0000088292   0.0000083232
       -0.0000007220  -0.0000212850  -0.0000053360  -0.0000284166   0.0000009988
        0.0000004622  -0.0000035452   0.0000089039   0.0000018142   0.0000064590
       -0.0000265254  -0.0000051064   0.0000227071  -0.0000085697   0.0000079914
        0.0000024541   0.0000287966   0.0000000145  -0.0000040699  -0.0000276353
       -0.0000008196  -0.0000044759   0.0000056790   0.0000092766   0.0000048948
       -0.0000052001  -0.0000038736  -0.0000048311  -0.0000049104   0.0000034836
       -0.0000069611   0.0000014048   0.0000010934   0.0000022997  -0.0000005114
       -0.0000013189  -0.0000035098  -0.0000030743   0.0000019026   0.0000026253
       -0.0000032296  -0.0000030286  -0.0000002269   0.0000002313   0.0000012785
        0.0000022286  -0.0000037995  -0.0000035383   0.0000002429  -0.0000003484
       -0.0000028392   0.0000051248  -0.0000033970   0.0000022584   0.0000030971
        0.0000064564  -0.0000065617  -0.0000052330  -0.0000074985  -0.0000109661
       -0.0000072460  -0.0000222834  -0.0000026427  -0.0000201201  -0.0000269003
       -0.0000402934  -0.0000123257   0.0000151783   0.0000007305   0.0000026038
        0.0000103137   0.0000064764  -0.0000111072  -0.0000414348  -0.0000227212
        0.0000019663  -0.0000509384  -0.0000187692  -0.0000384625  -0.0002117909
       -0.0000815763  -0.0000487084  -0.0064303132  -0.0028372044  -0.0050113349
        0.0030437784  -0.0061650679  -0.0046192715  -0.0095667119  -0.0196352100
       -0.0332864056   0.0170441264  -0.0017452687  -0.0068887853  -0.0027037337
       -0.0046278109  -0.0019821513   0.0225545735  -0.0001428285  -0.0001156328
       -0.0859815970  -0.0927650116  -0.1942167804  -0.0017878235   0.0013222347
        0.0003877507   0.0000886346  -0.0001030267   0.0000372609   0.0000097925
       -0.0000007444   0.0000012675  -0.0000155832   0.0000160668  -0.0000029319
       -0.0000247700   0.0000036373   0.0000004369   0.0000016537   0.0000043845
        0.0000002064  -0.0000065223   0.0000029318  -0.0000035724   0.0000028176
        0.0000035765   0.0000013225  -0.0000007215   0.0000010298  -0.0000037476