$hessian                                                                        
        0.6734532879   0.0054666145  -0.0354638918  -0.1317955801   0.0268436378
       -0.1145580763  -0.0295491797   0.0066839188  -0.0285426280   0.0047535100
       -0.0004783712   0.0019751190  -0.0015806421  -0.0001582010   0.0004488597
        0.0011553681  -0.0001096832   0.0004390315  -0.0003335277   0.0000206092
       -0.0000724225   0.0000258351  -0.0000492139   0.0000730057   0.0000323661
        0.0000570196  -0.0000274195   0.0000065578  -0.0000256931   0.0000064025
       -0.0000292073   0.0000096269  -0.0000058673   0.0000076705  -0.0000048848
       -0.0000013698  -0.0000329418  -0.0000183214   0.0000082678  -0.0000152766
        0.0000002500  -0.0000008414   0.0000515013  -0.0000014962   0.0000020421
        0.0000128770   0.0000052430   0.0000116757   0.0000051322  -0.0000003521
       -0.0000100878  -0.0000080809  -0.0000001698   0.0000001302  -0.0000047663
        0.0000000083  -0.0000010038  -0.0000015521  -0.0000012084   0.0000016732
        0.0000013750  -0.0000010778  -0.0000002722  -0.0000005758   0.0000000659
       -0.0000002573  -0.0000010768  -0.0000008761  -0.0000001291  -0.0000024950
       -0.0000006601  -0.0000003075  -0.0000007578  -0.0000011658  -0.0000004121
       -0.0000010274   0.0000002780   0.0000007432  -0.0000027667  -0.0000002978
       -0.0000000127  -0.0000017805  -0.0000000591   0.0000004377  -0.0000010089
       -0.0000005206  -0.0000002215   0.0000011293   0.0000004832   0.0000002938
       -0.0000012555   0.0000003145  -0.0000014062   0.0000039914   0.0000002031
        0.0000104539   0.0000144218  -0.0000051768  -0.0000106006  -0.0000336111
        0.0000245515  -0.0000038058   0.0000064585   0.0000039478   0.0000013305
       -0.0000310678  -0.0000069827   0.0000034248   0.0000018394   0.0000207172
       -0.0000036833   0.0000330609  -0.0000611608   0.0000096907   0.0000356620
        0.0000469027  -0.0000659102  -0.0023208682   0.0000592872   0.0000828017
       -0.0031708516   0.0006092363  -0.0025095774  -0.0397595266  -0.0055661895
        0.0253115854  -0.1798735446  -0.0367570713   0.1624481671  -0.2981227199
        0.0040121427  -0.0122759180   0.0064110212  -0.0032926946   0.0142543482
       -0.0056982537   0.0002210152  -0.0007555373   0.0002843820  -0.0000431870
        0.0001759274  -0.0000341936  -0.0000241471   0.0000057599  -0.0000072439
        0.0000097758   0.0000024427   0.0000009879  -0.0000008398   0.0000013307
       -0.0000026693   0.0000025672   0.0000005607  -0.0000004704  -0.0000004145
       -0.0000054529  -0.0000063095  -0.0000013173  -0.0000009005  -0.0000012597
       -0.0000001332   0.0000001188  -0.0000009133  -0.0000017413  -0.0000003180
       -0.0000015376  -0.0000008764  -0.0000001961  -0.0000015539  -0.0000005683
        0.0000000224  -0.0000017024  -0.0000005330   0.0000001209  -0.0000020509
       -0.0000001527   0.0000003521  -0.0000015855   0.0000010108   0.0000006217
       -0.0000016211  -0.0000004150   0.0000003819  -0.0000062949   0.0000009489
        0.0000010236  -0.0000011197   0.0000003642   0.0000062577  -0.0000028654
       -0.0000022933   0.0000013431   0.0000014850   0.0000010672   0.0000001686
       -0.0000041158  -0.0000062201  -0.0000014037  -0.0000199577   0.0000284706
        0.0000127681  -0.0003617284   0.0000114247  -0.0000486934  -0.0000366644
        0.0000820344  -0.0003705028   0.0065698792   0.0024006299  -0.0105595578
        0.0054666145   0.1416802388  -0.1164256785   0.0093004038  -0.0598683432
        0.0444096977   0.0188068880   0.0014995402  -0.0029014426  -0.0046994010
       -0.0076575147   0.0081006697   0.0038480795   0.0001563033  -0.0014074955
       -0.0000455808  -0.0005149276   0.0040973535  -0.0000403421   0.0000353704
        0.0000084390  -0.0000090259  -0.0000318872   0.0000185581   0.0000071994
       -0.0000066311  -0.0000125035   0.0000046361  -0.0000036005  -0.0000005263
        0.0000021688   0.0000010906   0.0000063199   0.0000005715  -0.0000029924
        0.0000003226  -0.0000018162   0.0000053059  -0.0000079783   0.0000035229
       -0.0000067071  -0.0000024800  -0.0000014100   0.0000024407   0.0000048793
        0.0000016890   0.0000068033   0.0000005976   0.0000007703  -0.0000006910
        0.0000015674   0.0000044205   0.0000023285  -0.0000011544  -0.0000034786
        0.0000021465   0.0000004198   0.0000007830   0.0000034527   0.0000013475
       -0.0000003448   0.0000000752  -0.0000001629  -0.0000006523   0.0000027666
        0.0000010847  -0.0000012559   0.0000046357  -0.0000005650  -0.0000016029
        0.0000014419   0.0000006772  -0.0000014046   0.0000025156   0.0000010858
       -0.0000001099   0.0000027473   0.0000007726   0.0000011495   0.0000011905
        0.0000014737   0.0000004221   0.0000033567   0.0000020628   0.0000021280
        0.0000019355   0.0000009576  -0.0000001303   0.0000015430   0.0000006784
        0.0000017106  -0.0000005476   0.0000007104  -0.0000022491  -0.0000019414
       -0.0000005053  -0.0000028775   0.0000017166   0.0000006618  -0.0000021299
        0.0000111607  -0.0000120901  -0.0000017799  -0.0000105334   0.0000014915
       -0.0000090189   0.0000060205   0.0000055123  -0.0000011934   0.0000061450
       -0.0000057562   0.0000059362  -0.0000297828  -0.0000050169   0.0000162324
       -0.0000084011  -0.0000236770  -0.0038636947   0.0008500519  -0.0022945487
        0.0049098064   0.0063368133  -0.0018851876  -0.0161730270   0.0012499266
       -0.0006377226  -0.0205754107  -0.0559928738   0.0533078514   0.0039753282
       -0.0348301141   0.0023062472   0.0020936119  -0.0001267893   0.0058144160
        0.0000477805   0.0089609101   0.0017627502  -0.0000063758  -0.0001756505
       -0.0000951577   0.0000051041  -0.0000149585   0.0000094123   0.0000005951
        0.0000031487  -0.0000017854   0.0000021170  -0.0000000962   0.0000002502
       -0.0000012397   0.0000040817  -0.0000027806  -0.0000003491  -0.0000002232
        0.0000007371  -0.0000013130   0.0000011981  -0.0000006561  -0.0000033391
        0.0000000508   0.0000012575  -0.0000014677   0.0000026365  -0.0000002694
       -0.0000004516   0.0000025312   0.0000000519  -0.0000005286   0.0000031115
        0.0000007510   0.0000007345   0.0000029200   0.0000008576   0.0000001492
        0.0000020723   0.0000021589   0.0000012269   0.0000026797   0.0000022105
        0.0000012934   0.0000020411   0.0000015496   0.0000003404   0.0000005951
       -0.0000000194   0.0000011437  -0.0000006784  -0.0000010828  -0.0000022223
       -0.0000011903  -0.0000011249  -0.0000047196  -0.0000008387  -0.0000012500
       -0.0000022104   0.0000008222  -0.0000055210  -0.0000221241  -0.0000099972
       -0.0000068449  -0.0000059274  -0.0008053496  -0.0002125986   0.0000681626
       -0.0001325405  -0.0000624556  -0.0030925148  -0.0006320611   0.0061381961
       -0.0354638918  -0.1164256785   0.6212678474  -0.0382976074   0.0441290039
       -0.2397262928  -0.0813220998  -0.0026812309   0.0140706467   0.0201996279
        0.0080108287  -0.0410935665  -0.0166711864  -0.0012307324   0.0059722182
        0.0001743164   0.0038873788  -0.0174394769   0.0002348536  -0.0000184094
        0.0000263803   0.0000187477   0.0001430215  -0.0000828636  -0.0000449630
        0.0000322488   0.0000461302  -0.0000176450   0.0000041177   0.0000012547
        0.0000026507  -0.0000020013  -0.0000173795  -0.0000028585   0.0000132488
       -0.0000019709   0.0000213876  -0.0000168808   0.0000281458  -0.0000232968
        0.0000252832   0.0000071247  -0.0000010594  -0.0000063723  -0.0000147996
        0.0000066288  -0.0000095039  -0.0000081993   0.0000057919  -0.0000024015
        0.0000027895  -0.0000129926  -0.0000013870  -0.0000001597   0.0000111864
        0.0000022196   0.0000020266  -0.0000044299  -0.0000060116  -0.0000016941
       -0.0000013161   0.0000023299   0.0000035062  -0.0000011603   0.0000006755
        0.0000011868   0.0000012973   0.0000001911   0.0000041950   0.0000004062
        0.0000015420   0.0000006606   0.0000003226  -0.0000017444  -0.0000005883
        0.0000004818   0.0000016626   0.0000059582  -0.0000005061   0.0000005566
       -0.0000025558  -0.0000023403   0.0000009806   0.0000035999   0.0000020223
        0.0000035653  -0.0000081266   0.0000025912  -0.0000026771   0.0000006239
       -0.0000005508   0.0000085851  -0.0000028942   0.0000009727   0.0000034977
       -0.0000005897   0.0000057601   0.0000020344  -0.0000026377   0.0000150258
       -0.0000376848   0.0000526210   0.0000056577   0.0000413373  -0.0000171757
        0.0000402915  -0.0000203283  -0.0000277301   0.0000061187  -0.0000348139
        0.0000181894  -0.0000122457   0.0001350250   0.0000173561  -0.0000645460
        0.0000150738   0.0001191498   0.0168361450  -0.0024944198   0.0102324856
       -0.0211570449  -0.0017865746   0.0140954985   0.0715174610  -0.0009350764
        0.0032380968   0.0918797632   0.0535928885  -0.2790829351  -0.0120890023
        0.0023214563  -0.0440076982  -0.0090806924   0.0058819038  -0.0241134519
        0.0000475511   0.0017461977   0.0017446690   0.0000133211  -0.0001114286
        0.0002045711  -0.0000400854   0.0000280695  -0.0000410429  -0.0000016500
       -0.0000125751   0.0000065264  -0.0000003380  -0.0000069575  -0.0000010356
        0.0000055637  -0.0000072926   0.0000050893  -0.0000007075   0.0000034700
        0.0000014496   0.0000036691   0.0000006284   0.0000014948  -0.0000007454
       -0.0000005801  -0.0000005316  -0.0000009353   0.0000004962   0.0000021580
        0.0000002605   0.0000008296   0.0000021128   0.0000000223   0.0000010232
        0.0000016243   0.0000009163   0.0000013802  -0.0000005766   0.0000011582
        0.0000012032  -0.0000009771   0.0000006962   0.0000010291  -0.0000016141
        0.0000005751   0.0000010160  -0.0000013216   0.0000015762   0.0000017000
        0.0000026869  -0.0000022602   0.0000032855   0.0000058750   0.0000062207
        0.0000015964   0.0000019163   0.0000129633   0.0000033957   0.0000030960
        0.0000063624   0.0000013034   0.0000157794   0.0000784876  -0.0000415023
        0.0000004073   0.0000237693  -0.0002205180   0.0000911249  -0.0002988029
       -0.0000265233   0.0001552397   0.0134243392   0.0060840254  -0.0257636271
       -0.1317955801   0.0093004038  -0.0382976074   0.6922537454   0.0027852636
       -0.0217439198  -0.3771841633   0.0130345655  -0.0519343195  -0.0596768611
       -0.0126417095   0.0563508339   0.0197741524   0.0008769864  -0.0041817470
       -0.0022426572  -0.0036549897   0.0168423831   0.0000190293  -0.0000275320
        0.0001688980  -0.0000449636  -0.0000473766  -0.0000376219   0.0001045898
       -0.0000506765  -0.0000446521   0.0000047713  -0.0000064424  -0.0000034018
        0.0000062000   0.0000246725   0.0000269026  -0.0000077692  -0.0000167289
        0.0000068715   0.0000139993   0.0000167809  -0.0000420022  -0.0000170504
       -0.0000238028  -0.0000065316   0.0000150790   0.0000020348   0.0000183630
        0.0000094620   0.0000017004  -0.0000017205   0.0000046784   0.0000011939
       -0.0000041327   0.0000131629  -0.0000014012  -0.0000007966  -0.0000215538
        0.0000008698  -0.0000014070   0.0000066432   0.0000110946   0.0000052221
        0.0000022599  -0.0000033354  -0.0000013771   0.0000040619   0.0000025893
       -0.0000009246  -0.0000012791   0.0000004718  -0.0000003153  -0.0000003043
        0.0000003788  -0.0000007478  -0.0000031828   0.0000021910  -0.0000001463
       -0.0000034738  -0.0000019708   0.0000012357  -0.0000002407   0.0000003431
        0.0000005730  -0.0000014867   0.0000000403   0.0000020685   0.0000049878
       -0.0000015662  -0.0000000744   0.0000029228   0.0000035937   0.0000014711
        0.0000083867  -0.0000112582  -0.0000045198   0.0000006511  -0.0000001501
        0.0000029134   0.0000050750  -0.0000011054  -0.0000045055  -0.0000013964
        0.0000184656  -0.0000517246  -0.0000082851  -0.0000267572   0.0000075930
       -0.0000417069   0.0000013346   0.0000207070  -0.0000259468   0.0000284820
       -0.0000121160   0.0000236548  -0.0001058480  -0.0000334862  -0.0000134151
       -0.0000747602  -0.0000067023  -0.0118245247   0.0020795022  -0.0086111525
        0.0117183187   0.0016225166  -0.0072939573  -0.0367962096   0.0024263567
       -0.0097141401   0.0530280057   0.0046111783  -0.0209636881  -0.0165581801
        0.0060284444  -0.0258472249  -0.1239350953  -0.0262652788   0.1153216090
       -0.0164167889   0.0008722116  -0.0034011631   0.0004002830   0.0000099237
        0.0000441038  -0.0000088004  -0.0000644259   0.0000523118  -0.0000100351
        0.0000092377  -0.0000101069  -0.0000028027   0.0000017869   0.0000001293
       -0.0000049467   0.0000035935  -0.0000017262  -0.0000049608   0.0000009150
        0.0000001307  -0.0000052817  -0.0000002127  -0.0000016137  -0.0000022301
        0.0000004208  -0.0000008414  -0.0000012084  -0.0000012516  -0.0000016047
       -0.0000023933  -0.0000005725  -0.0000012252  -0.0000024711   0.0000004019
       -0.0000001970  -0.0000020938   0.0000004006   0.0000006886  -0.0000017697
        0.0000012612   0.0000016587  -0.0000006964   0.0000015247   0.0000018495
       -0.0000021971  -0.0000008915   0.0000011197  -0.0000056193   0.0000007505
        0.0000029778   0.0000003908  -0.0000014790   0.0000035456  -0.0000043500
       -0.0000045751  -0.0000049557  -0.0000102264  -0.0000042501  -0.0000008888
       -0.0000058453  -0.0000101889  -0.0000077426  -0.0000736261   0.0000459940
       -0.0000067790   0.0000456323   0.0000199130  -0.0000938389   0.0001597835
        0.0000024411  -0.0001022433  -0.0008562572  -0.0008016941   0.0035954289
        0.0268436378  -0.0598683432   0.0441290039   0.0027852636   0.1402012356
       -0.1128267543  -0.0030405289  -0.0453866660   0.0116153935  -0.0021605254
        0.0021778211  -0.0052072593  -0.0033311295   0.0050129455   0.0031375480
        0.0000003204   0.0008999957  -0.0024160787  -0.0000774840  -0.0007996606
       -0.0001012794   0.0001571745   0.0000245741   0.0000060950   0.0000072851
        0.0000480146   0.0000001637  -0.0000112904  -0.0000070148  -0.0000026092
       -0.0000138944   0.0000095252  -0.0000055317   0.0000043898   0.0000028119
       -0.0000093812   0.0000115607  -0.0000241755   0.0000412405  -0.0000102285
        0.0000011613   0.0000000241   0.0000086642  -0.0000020691  -0.0000104345
        0.0000077970  -0.0000010258  -0.0000016957   0.0000041549  -0.0000069482
       -0.0000005968  -0.0000122282   0.0000007630  -0.0000032802   0.0000131769
       -0.0000008488  -0.0000000913  -0.0000049665  -0.0000083974  -0.0000028868
        0.0000016152  -0.0000022472   0.0000021069   0.0000000837  -0.0000029161
        0.0000050078   0.0000018699  -0.0000018152   0.0000008859  -0.0000013293
       -0.0000030991   0.0000012685   0.0000012135  -0.0000067767   0.0000014503
        0.0000003949   0.0000021092  -0.0000025027  -0.0000011095  -0.0000051208
       -0.0000030093  -0.0000013889  -0.0000007753  -0.0000018799  -0.0000003022
       -0.0000010387  -0.0000048605  -0.0000014169  -0.0000033400  -0.0000046846
       -0.0000046221   0.0000031085   0.0000011967   0.0000012849  -0.0000009014
        0.0000013202   0.0000065477   0.0000060917   0.0000002329  -0.0000206647
       -0.0000453083   0.0000340646  -0.0000190236   0.0000107326  -0.0000046334
       -0.0000008171  -0.0000049359  -0.0000076283   0.0000030099   0.0000014126
        0.0000041380   0.0000039913   0.0000200423  -0.0000110916  -0.0001579496
        0.0000294978  -0.0000003871   0.0020505121   0.0000381448   0.0013618485
       -0.0023434829  -0.0004445762   0.0014630384   0.0066381090  -0.0056126639
       -0.0008761927  -0.0075398047  -0.0024044939   0.0150556911   0.0006708767
        0.0009300027   0.0009473308  -0.0262439387  -0.0435950566   0.0398818149
        0.0063583603   0.0004160213   0.0010936551   0.0000123318  -0.0001438528
        0.0000418132  -0.0000263545  -0.0000214591  -0.0000084149  -0.0000053558
        0.0000014925  -0.0000048717   0.0000005678  -0.0000051526  -0.0000040743
        0.0000038616  -0.0000015505   0.0000022848   0.0000007658  -0.0000031102
        0.0000007432   0.0000007699  -0.0000034009   0.0000011208  -0.0000029335
       -0.0000048329   0.0000023087   0.0000010915  -0.0000026514   0.0000032275
        0.0000019688  -0.0000034189   0.0000024064   0.0000007051  -0.0000033351
        0.0000005548   0.0000004513  -0.0000029496  -0.0000034405  -0.0000023887
       -0.0000033544  -0.0000045770  -0.0000021770  -0.0000007003  -0.0000043091
       -0.0000019025   0.0000004830  -0.0000028148   0.0000001697   0.0000006745
       -0.0000037401  -0.0000020376   0.0000011621   0.0000005572  -0.0000002858
       -0.0000032186   0.0000035736   0.0000054089   0.0000045383   0.0000039679
        0.0000017451   0.0000073910   0.0000107140   0.0000165880  -0.0000014130
        0.0000041428   0.0000288705   0.0000367803  -0.0000079842  -0.0000204073
       -0.0001582321  -0.0001142360  -0.0005946213   0.0087143140   0.0028012773
       -0.1145580763   0.0444096977  -0.2397262928  -0.0217439198  -0.1128267543
        0.6038130536   0.0183223617   0.0112585141  -0.0922517011   0.0106419345
       -0.0049359285   0.0224105138   0.0142154947   0.0030502496  -0.0076526394
        0.0003247198  -0.0021728544   0.0102608960   0.0000966296  -0.0001325773
       -0.0002644604  -0.0000003259  -0.0000410477   0.0000047515   0.0000224550
       -0.0000616263  -0.0000431872   0.0000193931  -0.0000012836  -0.0000097575
        0.0000284955  -0.0000065963   0.0000188439  -0.0000060019  -0.0000067629
       -0.0000000759   0.0000169693   0.0000228342   0.0000039555   0.0000252786
       -0.0000174667  -0.0000002609  -0.0000255551   0.0000005718  -0.0000022972
       -0.0000071648  -0.0000006049  -0.0000084253  -0.0000026864   0.0000022707
        0.0000132753   0.0000310041  -0.0000023201   0.0000011703  -0.0000269324
        0.0000016099  -0.0000011568   0.0000094984   0.0000121440   0.0000059190
       -0.0000003407  -0.0000050445   0.0000008913   0.0000061230   0.0000021495
        0.0000003312   0.0000002161   0.0000005648   0.0000026851   0.0000034161
       -0.0000008791  -0.0000011509  -0.0000038775   0.0000021924  -0.0000004040
       -0.0000047728  -0.0000047320   0.0000033374   0.0000019933  -0.0000002073
       -0.0000029181  -0.0000044875  -0.0000017958   0.0000024712   0.0000078313
       -0.0000002985  -0.0000085093   0.0000013800   0.0000030078   0.0000000299
        0.0000148819  -0.0000130206  -0.0000099124  -0.0000054729  -0.0000007133
       -0.0000131711  -0.0000103050   0.0000003145   0.0000004315   0.0000040838
       -0.0000010526   0.0000076402  -0.0000024770  -0.0000231832   0.0000019485
       -0.0000028938   0.0000228700   0.0000136848   0.0000016930   0.0000148907
       -0.0000045326  -0.0000488776  -0.0000373756  -0.0000185022   0.0000069658
       -0.0000135270  -0.0000115564  -0.0088308270   0.0013776479  -0.0054319933
        0.0100276672   0.0013960920  -0.0063908242  -0.0284116055  -0.0007376596
       -0.0017924403   0.0319168982   0.0148416151  -0.0642234040  -0.0025146597
        0.0008195248  -0.0024049505   0.1151193401   0.0399423076  -0.2095571486
       -0.0273347081   0.0011884122  -0.0039594404  -0.0000434974   0.0000483944
       -0.0002859097   0.0000210903   0.0000071625   0.0000115119   0.0000014913
        0.0000020956  -0.0000016903  -0.0000089500   0.0000083718  -0.0000024468
       -0.0000070676   0.0000025761  -0.0000022749   0.0000008270   0.0000010440
        0.0000068892   0.0000029870  -0.0000006290  -0.0000020709   0.0000002405
        0.0000004472  -0.0000005975   0.0000014030   0.0000000402   0.0000013866
        0.0000015026  -0.0000012007   0.0000009130   0.0000002451  -0.0000007452
        0.0000005201   0.0000006720  -0.0000004440  -0.0000013450   0.0000006592
       -0.0000000680  -0.0000015530   0.0000007234  -0.0000006500  -0.0000019222
        0.0000003147  -0.0000018779  -0.0000016539   0.0000011675   0.0000004073
        0.0000029799   0.0000015026  -0.0000004328  -0.0000042709  -0.0000043831
       -0.0000032196   0.0000066293  -0.0000088434  -0.0000086190   0.0000042952
        0.0000017508  -0.0000077669  -0.0000042461  -0.0000230386  -0.0000095110
       -0.0000023575  -0.0001309125  -0.0000140077   0.0000885586   0.0000653715
       -0.0001338150   0.0003170660   0.0028039876   0.0027882787  -0.0029031283
       -0.0295491797   0.0188068880  -0.0813220998  -0.3771841633  -0.0030405289
        0.0183223617   0.6981471063  -0.0087079001   0.0293786821  -0.1207602704
       -0.0154586647   0.0675121873  -0.0555666881  -0.0078806602   0.0354635220
       -0.0028485989   0.0046974177  -0.0206320116  -0.0008008895  -0.0002766370
        0.0011001752   0.0000210781  -0.0000890697   0.0001179422  -0.0000682429
        0.0000826538   0.0000255630   0.0000148108  -0.0000547082   0.0000103659
       -0.0000158770  -0.0000329698  -0.0000170210   0.0000266917   0.0000303983
       -0.0000091494   0.0000045386  -0.0000212212  -0.0000200848   0.0000352273
        0.0000177893   0.0000051670   0.0000459156  -0.0000024263   0.0000181756
       -0.0000186016   0.0000236980   0.0000175482  -0.0000062417   0.0000085379
        0.0000074401   0.0000672850  -0.0000007939   0.0000028724  -0.0000754921
        0.0000002277  -0.0000053353   0.0000234498   0.0000313684   0.0000188690
       -0.0000011961  -0.0000130515  -0.0000022622   0.0000083417   0.0000037761
        0.0000000193  -0.0000044652   0.0000017712   0.0000008064   0.0000022596
       -0.0000039114  -0.0000022862  -0.0000101284   0.0000085529   0.0000000688
       -0.0000103833  -0.0000104308  -0.0000013399   0.0000013349   0.0000024606
       -0.0000004900  -0.0000063184  -0.0000036294  -0.0000019588   0.0000075678
       -0.0000041880  -0.0000031650  -0.0000013949   0.0000123825  -0.0000003163
        0.0000250493  -0.0000325277  -0.0000169739  -0.0000097894  -0.0000057940
       -0.0000069789  -0.0000234076  -0.0000232742  -0.0000243876  -0.0000429718
       -0.0000720903  -0.0000485637   0.0000213188   0.0000249006   0.0000013545
        0.0000323440   0.0000239767  -0.0000219364   0.0000472741   0.0000117500
        0.0000180657   0.0000087963   0.0001184667   0.0000574257  -0.0002125999
        0.0002431746  -0.0001038666   0.0114352215  -0.0022892902   0.0096897188
       -0.0114152698  -0.0006865050   0.0032692448   0.0459047491  -0.0026035457
        0.0100120501  -0.0427543714  -0.0057667129   0.0257832264  -0.0002634503
        0.0006293022  -0.0026125752  -0.0205897280  -0.0003527926   0.0015854839
       -0.0943548778   0.0229883967  -0.0989310308   0.0008492117  -0.0003893033
        0.0016488240  -0.0001330086  -0.0000716659  -0.0000250142  -0.0000079651
        0.0000440737   0.0000066591  -0.0000240351   0.0000275093  -0.0000034802
       -0.0000334943   0.0000142762  -0.0000122427   0.0000092942  -0.0000007246
        0.0000049895  -0.0000103242  -0.0000032984  -0.0000050909   0.0000012746
        0.0000032485   0.0000020815   0.0000016046  -0.0000014055   0.0000015248
       -0.0000000821  -0.0000022750   0.0000006921  -0.0000013815  -0.0000009227
       -0.0000002420  -0.0000017687  -0.0000011945  -0.0000012113  -0.0000013124
        0.0000004103  -0.0000019076   0.0000002579   0.0000001366  -0.0000019853
        0.0000004912  -0.0000042291  -0.0000016046  -0.0000103829   0.0000024324
        0.0000051793   0.0000071504   0.0000019597   0.0000006277  -0.0000374207
       -0.0000205036   0.0000023675  -0.0000095238  -0.0000251826   0.0000066406
        0.0000007567  -0.0000328454   0.0000131155  -0.0000015564   0.0000369107
        0.0000148410   0.0001000184  -0.0000121062   0.0000487483   0.0001850883
        0.0002012557  -0.0008671978  -0.0001686551  -0.0001011226   0.0005291830
        0.0066839188   0.0014995402  -0.0026812309   0.0130345655  -0.0453866660
        0.0112585141  -0.0087079001   0.1393379907  -0.1109101500  -0.0229338278
       -0.0607754380   0.0388591972  -0.0058164828   0.0002150496   0.0016267357
        0.0005850746   0.0061455205  -0.0019236257   0.0000619324   0.0001770741
        0.0000320529  -0.0000216733   0.0000239578  -0.0000390546  -0.0000700782
       -0.0000057251  -0.0000068502   0.0000027378   0.0000001647  -0.0000032862
        0.0000020812   0.0000091574   0.0000017885   0.0000052857  -0.0000104957
        0.0000002225   0.0000156825   0.0000126911  -0.0000137045  -0.0000069333
       -0.0000070275  -0.0000038570  -0.0000040044   0.0000068098   0.0000072283
        0.0000105865  -0.0000059419  -0.0000098598   0.0000049906  -0.0000035607
        0.0000045783  -0.0000042002   0.0000044816  -0.0000008608   0.0000062016
        0.0000065371   0.0000034473  -0.0000050712  -0.0000017050  -0.0000012753
        0.0000013454   0.0000000294   0.0000045705   0.0000003818   0.0000021068
        0.0000078540  -0.0000003331   0.0000036559   0.0000036095  -0.0000021703
        0.0000018713   0.0000032242   0.0000016178  -0.0000009425   0.0000032829
       -0.0000018526   0.0000062340  -0.0000020384   0.0000016248   0.0000001176
       -0.0000022881   0.0000006917   0.0000047315  -0.0000015168   0.0000038017
        0.0000023698  -0.0000050306  -0.0000007271   0.0000015985  -0.0000042654
        0.0000026997   0.0000000095  -0.0000004250  -0.0000015177   0.0000025960
       -0.0000007187   0.0000021253   0.0000078308   0.0000001987   0.0000239718
        0.0000153921   0.0000058416  -0.0000104188   0.0000021550  -0.0000036311
        0.0000056055   0.0000010578   0.0000139078   0.0000003261  -0.0000019176
        0.0000036338   0.0000660678   0.0000283402   0.0000185102   0.0000874915
        0.0000039811   0.0000373785   0.0016622024  -0.0004439925   0.0014241752
       -0.0007067819   0.0054946271   0.0031288473   0.0024325104  -0.0010525323
        0.0098613977  -0.0042609307  -0.0037694143   0.0008646596   0.0007434113
        0.0055308420   0.0023463387  -0.0057988181   0.0006188387   0.0002096252
        0.0227366790  -0.0443124861   0.0469167164   0.0004699071  -0.0018239783
       -0.0006787945  -0.0000484707   0.0000587812   0.0000195505  -0.0000000043
        0.0000181571  -0.0000083409   0.0000123772  -0.0000036703  -0.0000064595
        0.0000117870   0.0000037218  -0.0000064121   0.0000002973  -0.0000015397
        0.0000051479   0.0000018363  -0.0000011601   0.0000021202  -0.0000054982
       -0.0000012845   0.0000032133  -0.0000017776   0.0000020648   0.0000058873
       -0.0000009275   0.0000024282   0.0000051745  -0.0000007082   0.0000031730
        0.0000025658   0.0000013733   0.0000037422  -0.0000024665   0.0000002399
        0.0000035722  -0.0000046575   0.0000011746   0.0000049806  -0.0000049340
        0.0000006337   0.0000036862  -0.0000035986   0.0000000063   0.0000043935
       -0.0000022877  -0.0000022860   0.0000033204   0.0000001704   0.0000038098
        0.0000022874  -0.0000020061  -0.0000014747   0.0000057547   0.0000046579
       -0.0000046739   0.0000107222   0.0000007772  -0.0000132028  -0.0000290031
       -0.0000212058   0.0000450783  -0.0013405850  -0.0003553128  -0.0001702969
       -0.0002516741   0.0001704140  -0.0001310896  -0.0000674050  -0.0001570703
       -0.0285426280  -0.0029014426   0.0140706467  -0.0519343195   0.0116153935
       -0.0922517011   0.0293786821  -0.1109101500   0.5953587707   0.0993324845
        0.0386460453  -0.2220052262   0.0269836122   0.0017402154  -0.0068415566
       -0.0031708353  -0.0016982254   0.0141351197   0.0007214879  -0.0000166246
        0.0001912485  -0.0002577030   0.0000343309  -0.0001260486  -0.0000002991
       -0.0000899425  -0.0000537453  -0.0000634755   0.0000475988  -0.0000391543
        0.0000414957   0.0000029396   0.0000202761   0.0000213329  -0.0000206469
        0.0000094176  -0.0000192594   0.0000313393  -0.0000548354  -0.0000117703
       -0.0000136184  -0.0000058476   0.0000186141   0.0000045779   0.0000184418
       -0.0000265363   0.0000256786   0.0000168087  -0.0000082834   0.0000036009
        0.0000099516   0.0000400685  -0.0000047857   0.0000017514  -0.0000394758
        0.0000038230  -0.0000074024   0.0000066189   0.0000093885   0.0000130216
       -0.0000049924  -0.0000056529  -0.0000004206  -0.0000002036   0.0000009335
        0.0000010160  -0.0000038229   0.0000022120   0.0000043347  -0.0000001272
       -0.0000018616  -0.0000001455  -0.0000062512   0.0000040189   0.0000013444
       -0.0000076102  -0.0000050289   0.0000038463  -0.0000006590   0.0000019142
       -0.0000013104  -0.0000070181  -0.0000016895   0.0000021980   0.0000020620
        0.0000014622  -0.0000074221  -0.0000042805   0.0000052258  -0.0000022098
        0.0000135136  -0.0000122692  -0.0000082496  -0.0000092375  -0.0000003841
       -0.0000142528  -0.0000274300  -0.0000132974  -0.0000236227  -0.0000063517
       -0.0000094099  -0.0000360923   0.0000210380  -0.0000146932  -0.0000010532
        0.0000096012   0.0000295665   0.0000196473  -0.0000682390  -0.0000071223
       -0.0000013206  -0.0000565290  -0.0000175418  -0.0000216900  -0.0001854035
       -0.0001560690   0.0000419353  -0.0071918948   0.0013547759  -0.0061642817
        0.0033049117   0.0031103130  -0.0074007305  -0.0110280194   0.0099872645
       -0.0419994531   0.0190734751   0.0008709467  -0.0078775626  -0.0030956432
        0.0023415914  -0.0040512084   0.0253075314   0.0000959401  -0.0002851336
       -0.0976678621   0.0469397014  -0.2353982807  -0.0019919398  -0.0006463454
        0.0010130582   0.0001234904  -0.0001141929   0.0000607979   0.0000113275
        0.0000239584  -0.0000004565  -0.0000164594   0.0000230891  -0.0000060317
       -0.0000307093   0.0000041796  -0.0000097979   0.0000042737  -0.0000087050
        0.0000034151  -0.0000064022  -0.0000040124  -0.0000033131   0.0000026731
        0.0000013045   0.0000036877   0.0000007702   0.0000004483   0.0000044799