97
 energy: -161.598940158036 gnorm: 0.000044124890 xtb: 6.7.1 (edcfbbe)
F           -3.38810423432772       -4.39809142689090       -3.79673640497956
C           -4.45068114897620       -4.67883530614683       -3.01501768463106
F           -5.42320629119591       -5.08743777733196       -3.84693832263317
F           -4.10441190931356       -5.74369359062860       -2.27982300777741
C           -4.86275943066549       -3.49614885392482       -2.18662343112797
C           -4.47934567162811       -3.40206530695532       -0.85549384532426
C           -4.84260710167993       -2.29234759249570       -0.11732129375718
C           -5.58333543329233       -1.27391871768955       -0.71084402106498
N           -5.90853739135677       -0.13004572204852        0.03031249794165
C           -4.98731271467683        0.72653766073114        0.60668424153024
C           -3.54518015243599        0.56229012495297        0.53541124437616
C           -2.88991068901896        0.08458420425273       -0.59847873674788
C           -1.51572759926619       -0.04030443581138       -0.60855713335862
C           -0.75432729260066        0.30652529009631        0.50605718990982
C            0.70576714649658        0.15697909490423        0.49653209695678
C            1.37915671924035       -0.32477244447945        1.61923064977186
C            2.74986467150913       -0.46463638486647        1.61261135327450
C            3.49463056972164       -0.11191812002313        0.48611701653107
C            4.93423722262669       -0.29282490192567        0.52927919945164
N            5.51956834291246       -1.24787822749500        1.20860995593313
C            6.85641431075546       -1.14426638243942        0.97881100405378
C            7.79207081035165       -2.05213699062413        1.62518915492139
C            7.34535184364335       -3.31433412505048        2.01410588198487
C            8.20455298289256       -4.20117832170780        2.63270727350512
C            9.51981583749180       -3.84051029610478        2.87690338016181
C            9.96607419607003       -2.58144092753907        2.51013456117526
C            9.11058167369784       -1.68895806930367        1.89217003429069
C            7.09316308657316       -0.08346272203941        0.11898462093488
C            8.32771337028201        0.43779301721892       -0.45259253621248
C            9.22887273668687       -0.43211151293773       -1.06583488618852
C           10.39774518791152        0.05160405578587       -1.62048449129809
C           10.68291436248848        1.40702785755562       -1.57474331596595
C            9.79541033567441        2.27646631559027       -0.96357218283784
C            8.62471774433746        1.79856903882996       -0.40484593005650
N            5.85632644740748        0.45947787519682       -0.15363795172202
C            5.62001860781067        1.59756762868582       -0.94469103542801
C            4.90213889787975        2.66647273873363       -0.41815403568880
C            4.67778611020284        3.78857742557839       -1.19336274214206
C            5.17409262435077        3.85472058332951       -2.48513392612185
C            5.89247632207589        2.79135790894628       -3.00569467740445
C            6.11598441149496        1.66040312560691       -2.24206582043950
C            2.82402875430247        0.35065344296204       -0.64538568344482
C            1.45052796783003        0.48171136832596       -0.63578856864227
C           -1.41260234194472        0.80801493253015        1.62908917109398
C           -2.78408322256500        0.94136620341430        1.64209429771693
N           -5.56573344295888        1.72798380653069        1.21393150198180
C           -6.90331971013818        1.55509157537903        1.04423570603593
C           -7.95400331245656        2.40684287552144        1.48519105315363
C           -7.68373104729804        3.58928769221408        2.18180580037360
C           -8.70957112636797        4.41599276509766        2.56588869858008
C          -10.02218545121595        4.06914638156000        2.25150968363138
C          -10.29931979388476        2.90579902307306        1.57245615616372
C           -9.27940225570181        2.02887697336815        1.17179508158822
C           -9.54036202926868        0.77324566246478        0.48963751725054
C          -10.84756781308142        0.33102970814463        0.24099416800302
C          -11.10787752659538       -0.87941047208519       -0.35612979094457
C          -10.05927774265729       -1.72020733121426       -0.71500145858950
C           -8.76374354997258       -1.32068619266143       -0.49845826331253
C           -8.47519723350987       -0.07407273059013        0.07571071844992
C           -7.15281019541833        0.39462883095691        0.31572969756424
C           -5.96072689004204       -1.37165868268711       -2.04978041406605
C           -5.60204731825658       -2.48217712560894       -2.78614696753099
H           -3.90661123121868       -4.19477403151434       -0.40027564000206
H           -4.55171519420082       -2.20581647848752        0.91807347847251
H           -3.44837952576601       -0.16907213088380       -1.48728175380815
H           -1.02577860138653       -0.42885139453992       -1.48909208133000
H            0.81570750295261       -0.61169198071558        2.49498306577208
H            3.27292988776063       -0.84996838630545        2.47384289422102
H            6.31713912291786       -3.57837680409455        1.82076659044064
H            7.84955424331015       -5.17867654401430        2.92617757996412
H           10.19334077962635       -4.53487341532608        3.35786303593990
H           10.98714398065109       -2.29051666050846        2.71167849550985
H            9.46200205432058       -0.70277548667638        1.62722697510405
H            9.00149911449328       -1.48755779432142       -1.10173526443972
H           11.08815083634278       -0.63068188617683       -2.09423483332475
H           11.59594843087626        1.78356726129390       -2.01143117362905
H           10.01617989325131        3.33293539108655       -0.91863090144167
H            7.94389395725917        2.48092442587154        0.08385428745878
H            4.52442687360386        2.60815935479534        0.59203954618253
H            4.11872077293339        4.61651903091846       -0.78416801186448
H            5.00094847533957        4.73493627707890       -3.08546818532287
H            6.27942058595667        2.83919733047363       -4.01239642468279
H            6.66945578332340        0.82515215344648       -2.64447296834836
H            3.37213131100580        0.59224199609611       -1.54396393615835
H            0.94790644691902        0.85821959840091       -1.51466959179290
H           -0.83687076387564        1.11368900396092        2.49014547622105
H           -3.29352536698216        1.33972767723503        2.50562696264190
H           -6.65266531764563        3.82496515777944        2.39457956469609
H           -8.50657699498935        5.33091707415407        3.10241534606843
H          -10.83244521279425        4.72101733770593        2.54455848799441
H          -11.33017465671809        2.68138417333769        1.34922759266612
H          -11.68474491692283        0.94460911836235        0.53147103171142
H          -12.12846044708854       -1.18541350167710       -0.53182730305843
H          -10.26142823265739       -2.68444771916657       -1.15689550172793
H           -7.95664236786125       -1.98798654729831       -0.75656892141356
H           -6.53256284669466       -0.57517104364177       -2.50155572073683
H           -5.89090860693377       -2.56660605270363       -3.82244424615028
