$hessian                                                                        
        0.1373459568   0.3703857317  -0.0599502189  -0.1473351485  -0.3491934824
        0.0574876067   0.0093422264  -0.0216968114   0.0024944647  -0.0009202227
        0.0009867558   0.0036476608  -0.0016197928  -0.0013195627  -0.0006879889
        0.0005535618   0.0015870422  -0.0006254735   0.0001618207  -0.0012027600
        0.0005512270  -0.0004536924   0.0008330508   0.0000193340  -0.0000138153
       -0.0000282440  -0.0000015811  -0.0000012283   0.0000765753   0.0000068995
        0.0000349488   0.0000195228   0.0000219704  -0.0000050784  -0.0000064237
       -0.0000021748  -0.0000240321   0.0000104197  -0.0000127095   0.0000420818
       -0.0000550325   0.0000083130  -0.0000002529   0.0000013867   0.0000025792
       -0.0000151689  -0.0000002319   0.0000026758   0.0000148804   0.0000281339
       -0.0000054227   0.0000102728  -0.0000066948  -0.0000004327  -0.0000017647
        0.0000047083  -0.0000038818   0.0000000691  -0.0000006652  -0.0000039804
        0.0000057063   0.0000037052  -0.0000005993   0.0000062910  -0.0000003108
       -0.0000026183  -0.0000059109   0.0000011367   0.0000016815   0.0000080157
        0.0000004295   0.0000005444   0.0000015668  -0.0000017448  -0.0000027955
       -0.0000004185   0.0000063088   0.0000034377   0.0000029049   0.0000020264
       -0.0000027575   0.0000098767   0.0000057612  -0.0000091924  -0.0000117060
       -0.0000226930   0.0000016978   0.0000014741   0.0000157906  -0.0000019317
        0.0000125086   0.0000147419   0.0000056802  -0.0000248991  -0.0000661839
       -0.0000680576   0.0000009246  -0.0000167672   0.0000558312  -0.0001337173
       -0.0006163720   0.0000062058   0.0000956280  -0.0000174701   0.0000368427
        0.0000371224   0.0000107919   0.0000295516  -0.0000485138   0.0000047859
        0.0000069852  -0.0000132118   0.0000076468  -0.0000075151   0.0000074234
       -0.0000096621   0.0000011047   0.0000280183  -0.0000173167  -0.0000066033
       -0.0000054456  -0.0000258294   0.0000007508   0.0000012743   0.0000395506
        0.0000154201   0.0000080504  -0.0000066642   0.0000022212   0.0000107869
       -0.0000088363  -0.0000004987  -0.0000362912  -0.0000221750   0.0000046308
        0.0000253651   0.0000021240  -0.0000468723  -0.0000374418  -0.0000150449
       -0.0000009113   0.0004320144   0.0001986852  -0.0002188093  -0.0009384278
       -0.0010155275  -0.0011069782   0.0029835051   0.0016983896  -0.0019148968
        0.0003538486  -0.0002861957   0.0001010034  -0.0001697941  -0.0003319816
        0.0000109163  -0.0000138571  -0.0000000179   0.0000006508   0.0000161929
       -0.0000136141  -0.0000073553  -0.0000095985  -0.0000247942   0.0000034237
        0.0000313393   0.0000033567  -0.0000022253  -0.0000036487  -0.0000048558
        0.0000001832  -0.0000015240   0.0000011999  -0.0000004155  -0.0000022056
        0.0000010963   0.0000006402  -0.0000005022  -0.0000017644   0.0000002947
       -0.0000018741  -0.0000015859   0.0000020642   0.0000011120  -0.0000029268
        0.0000037155   0.0000036364   0.0000006401   0.0000113129  -0.0000068093
       -0.0000120881   0.0000083903   0.0000014868  -0.0000002006  -0.0000012480
       -0.0000101621   0.0000083086  -0.0000074853   0.0000353839  -0.0000055972
        0.0000396113  -0.0000648038  -0.0000136625  -0.0000405453   0.0000092733
        0.0000090757  -0.0000051885   0.0000002684  -0.0000149862   0.0000012038
       -0.0000069448  -0.0000072747   0.0000038090  -0.0000049222   0.0000089045
       -0.0000026497  -0.0000137699  -0.0000096516   0.0000057363  -0.0000089062
        0.0000028880   0.0000026827   0.0000320986   0.0000087518   0.0000081064
        0.0000143155   0.0000393385   0.0000285057  -0.0000590746  -0.0000305049
       -0.0000183116   0.0003413468   0.0001054472   0.0001227590
        0.3703857317   1.1516571746  -0.1842634438  -0.3492231814  -1.1041069316
        0.1733660987  -0.0216797849  -0.0494870170   0.0111818101  -0.0031347111
        0.0076049941   0.0065684700  -0.0018215366  -0.0032746431   0.0014850421
        0.0014720657   0.0050831472  -0.0007936793  -0.0004804596  -0.0034653554
        0.0009072999  -0.0012131293   0.0025316128  -0.0000123260   0.0000459530
       -0.0000626780  -0.0000203643  -0.0000074763   0.0002178257   0.0000216751
        0.0000742041   0.0000463916   0.0000544005  -0.0000617243  -0.0000051970
       -0.0000200368  -0.0000171275   0.0000025775  -0.0000259557   0.0000475567
       -0.0000411356  -0.0000077094   0.0000302419  -0.0000416264   0.0000096349
       -0.0001122894  -0.0000042596   0.0000027171   0.0001321896   0.0000172414
       -0.0000076310  -0.0000318121   0.0000467749   0.0000242014   0.0000023159
       -0.0000117888  -0.0000186694  -0.0000053120   0.0000051350  -0.0000009314
        0.0000192726   0.0000112727   0.0000025783   0.0000067822  -0.0000049696
       -0.0000055424   0.0000116174   0.0000129234   0.0000127305   0.0000205757
       -0.0000124047  -0.0000102187   0.0000065337   0.0000075105   0.0000034357
        0.0000092139  -0.0000030431   0.0000002113  -0.0000028847  -0.0000071287
       -0.0000072377   0.0000085876   0.0000244208   0.0000141026  -0.0000441345
       -0.0000704017  -0.0000173654   0.0000399853   0.0000449648  -0.0000000549
        0.0000267067   0.0000342188   0.0000190570  -0.0000316848  -0.0001552491
       -0.0000741137   0.0000122660  -0.0001085040   0.0001820663  -0.0004692407
       -0.0016458305   0.0000243421   0.0001662415  -0.0001002946   0.0001426817
        0.0001551620   0.0000651794   0.0000858386  -0.0001492212  -0.0000131490
        0.0000317181  -0.0000313443   0.0000300039  -0.0000230353   0.0000040196
       -0.0000132236   0.0000008917   0.0000855929  -0.0000554874  -0.0000208635
       -0.0000295328  -0.0000624491  -0.0000039326  -0.0000080130   0.0001151707
        0.0000439655   0.0000273077   0.0000217820  -0.0000097001   0.0000092931
        0.0000049003  -0.0000124580  -0.0000498661  -0.0001528120   0.0000690165
       -0.0000092737   0.0000519207  -0.0001396549  -0.0000001150  -0.0000908570
        0.0000143209   0.0012682141   0.0004464126  -0.0006737014  -0.0004962609
       -0.0043916774   0.0005164091   0.0057457804   0.0005023276  -0.0088670420
        0.0001023983   0.0000931316  -0.0001063537  -0.0001696307  -0.0005066433
        0.0000735260  -0.0000387380  -0.0000208363  -0.0000081813   0.0000361949
       -0.0000417016  -0.0000204509  -0.0000519999  -0.0000317435   0.0000089486
        0.0000157886   0.0000027973  -0.0000026582  -0.0000052852   0.0000057935
        0.0000063056  -0.0000049444   0.0000003085  -0.0000034308  -0.0000015051
        0.0000000823  -0.0000029134   0.0000004529  -0.0000047650  -0.0000007247
       -0.0000008932  -0.0000028320   0.0000023128   0.0000038817  -0.0000058164
        0.0000063529   0.0000002802  -0.0000045678   0.0000113007  -0.0000082915
       -0.0000226674  -0.0000015314   0.0000059460  -0.0000125456   0.0000006541
       -0.0000233369   0.0000119770  -0.0000181682   0.0000103216   0.0000199568
        0.0000296114  -0.0000646654   0.0000027465  -0.0001581015   0.0000280150
        0.0000398967  -0.0000166415  -0.0000005128  -0.0000440576   0.0000032041
       -0.0000241452  -0.0000231296   0.0000140327  -0.0000335465   0.0000178751
       -0.0000031035  -0.0000496493  -0.0000248118   0.0000157381  -0.0000623170
        0.0000065780   0.0000046504  -0.0000232844   0.0000417998  -0.0000088946
        0.0001496331  -0.0000503645   0.0001159076  -0.0001863313  -0.0006857559
        0.0001608064  -0.0003071305   0.0000415263   0.0001487543
       -0.0599502189  -0.1842634438   0.0465906321   0.0574949494   0.1733563094
       -0.0626715462   0.0024456731   0.0112031346   0.0157042630   0.0023582734
        0.0004845781  -0.0019803930  -0.0006051141   0.0015147226  -0.0001745392
       -0.0005501469  -0.0006587644   0.0005115690   0.0002753341   0.0005324032
        0.0000206000   0.0001774302  -0.0004214527  -0.0000027657  -0.0000147741
        0.0000253085   0.0000062471   0.0000005563  -0.0000340326   0.0000112020
       -0.0000106031  -0.0000012863  -0.0000013105   0.0000107309   0.0000086515
        0.0000114697  -0.0000007436  -0.0000052798   0.0000026763  -0.0000084964
        0.0000116652   0.0000141655  -0.0000031362   0.0000035731   0.0000011215
        0.0000190210   0.0000032637  -0.0000063731  -0.0000182583   0.0000043971
        0.0000128114   0.0000144599  -0.0000120881  -0.0000112731  -0.0000038186
        0.0000024162   0.0000056285  -0.0000024113   0.0000032657   0.0000016878
       -0.0000022007  -0.0000006041   0.0000003250   0.0000013789  -0.0000034414
        0.0000031425  -0.0000075055  -0.0000100160   0.0000063864  -0.0000014783
        0.0000067754  -0.0000025712  -0.0000024012  -0.0000000522  -0.0000066675
       -0.0000048621   0.0000010848   0.0000059368   0.0000004743  -0.0000049458
       -0.0000003093   0.0000026216  -0.0000051524  -0.0000027451  -0.0000030987
        0.0000021260  -0.0000081277  -0.0000059757  -0.0000025813   0.0000055071
       -0.0000036306  -0.0000022052   0.0000077272  -0.0000173339   0.0000278949
        0.0000026325   0.0000208788   0.0000063928  -0.0000374874   0.0000737352
        0.0002304271   0.0000182193  -0.0000108778   0.0000190551  -0.0000275094
       -0.0000265255  -0.0000075351  -0.0000102340   0.0000215296   0.0000015991
       -0.0000068495   0.0000010925   0.0000001776   0.0000144874   0.0000023368
        0.0000002125  -0.0000035316  -0.0000109601   0.0000065332   0.0000071084
        0.0000057652   0.0000091463   0.0000017920   0.0000012205  -0.0000166640
       -0.0000026972  -0.0000031401  -0.0000012389   0.0000007943  -0.0000025599
       -0.0000059459   0.0000073825   0.0000001391   0.0000287438  -0.0000000520
        0.0000089428  -0.0000010593   0.0000375855  -0.0000054957   0.0000121835
       -0.0000025375  -0.0001997154  -0.0000380970   0.0000935627  -0.0011942011
        0.0004781373   0.0001773575  -0.0005100598  -0.0027223682   0.0012392331
        0.0001790676   0.0003249042   0.0002611377   0.0000766556   0.0003706715
       -0.0000639372   0.0000062299   0.0000116444   0.0000017678  -0.0000088268
        0.0000088831   0.0000080774   0.0000087713   0.0000013071  -0.0000248402
       -0.0000053567  -0.0000017975  -0.0000052998   0.0000024173   0.0000003651
       -0.0000030722  -0.0000011292  -0.0000040161   0.0000042624  -0.0000014659
        0.0000012458   0.0000020281   0.0000033127  -0.0000093554  -0.0000000503
       -0.0000023212   0.0000109990  -0.0000014069   0.0000006162   0.0000021365
       -0.0000024285   0.0000055559   0.0000095001  -0.0000026081  -0.0000005383
        0.0000012076  -0.0000052561   0.0000012194   0.0000009211   0.0000006597
        0.0000054375  -0.0000014359   0.0000033948   0.0000261306  -0.0000196329
       -0.0000097879  -0.0000079875  -0.0000327086   0.0000152414  -0.0000036762
       -0.0000051054   0.0000031708   0.0000015525   0.0000052634  -0.0000036303
        0.0000034074   0.0000034724   0.0000007609   0.0000054710   0.0000025844
        0.0000040581   0.0000085423  -0.0000031293  -0.0000050074   0.0000091291
       -0.0000024639  -0.0000032949   0.0000113282  -0.0000093518  -0.0000114199
       -0.0000204873   0.0000151835  -0.0000497373  -0.0000956049  -0.0001484842
        0.0000177742   0.0000357492  -0.0002987318   0.0003057102
       -0.1473351485  -0.3492231814   0.0574949494   0.2254900874   0.4287602522
       -0.0816775270  -0.0741779672  -0.0600920896   0.0124366828   0.0037448518
       -0.0019270810  -0.0070181273   0.0067871893   0.0027300211   0.0032669587
       -0.0009776981  -0.0027244931   0.0016100332  -0.0012114262   0.0024219006
       -0.0016402006   0.0008766309  -0.0014207993  -0.0000723558   0.0000262293
        0.0000467813   0.0000058421   0.0000000083  -0.0001450706  -0.0000205380
       -0.0000347435  -0.0000255974  -0.0000288705   0.0000143432  -0.0000034144
       -0.0000000116   0.0000233891  -0.0000105457   0.0000151644  -0.0000545391
        0.0000716304  -0.0000078033  -0.0000107873   0.0000049183  -0.0000046584
        0.0000302201   0.0000008499  -0.0000037616  -0.0000290827  -0.0000290004
        0.0000060646  -0.0000056540  -0.0000003289  -0.0000001441  -0.0000022569
       -0.0000032876   0.0000048434  -0.0000001975  -0.0000013098   0.0000040989
       -0.0000079401  -0.0000068248  -0.0000010538  -0.0000051657  -0.0000010797
        0.0000030850   0.0000032018  -0.0000047049  -0.0000030789  -0.0000101968
        0.0000010161   0.0000008182  -0.0000025878  -0.0000027378  -0.0000000005
       -0.0000003453  -0.0000045149  -0.0000043422  -0.0000034885  -0.0000030367
        0.0000018045  -0.0000099435  -0.0000110017   0.0000033728   0.0000159566
        0.0000261848  -0.0000015033  -0.0000086751  -0.0000265895   0.0000036213
       -0.0000224173  -0.0000257199  -0.0000098668   0.0000380645   0.0000849250
        0.0000860084   0.0000174613   0.0000825391  -0.0000654897   0.0002442109
        0.0012195550  -0.0000106604  -0.0002080326   0.0000288670  -0.0000448814
       -0.0000640445  -0.0000330610  -0.0000436842   0.0000865072  -0.0000128086
       -0.0000120983   0.0000207900  -0.0000214824   0.0000127908  -0.0000087777
        0.0000096003  -0.0000013582  -0.0000631461   0.0000317683   0.0000108573
        0.0000161491   0.0000473802  -0.0000025584  -0.0000144535  -0.0000622709
       -0.0000281400  -0.0000133498   0.0000046970  -0.0000025658  -0.0000172848
       -0.0000091918   0.0000090846   0.0000425165   0.0000510450  -0.0000147613
       -0.0000560732  -0.0000445155   0.0000740021   0.0000688149   0.0000211968
        0.0000074491  -0.0007863742  -0.0004697122   0.0003901295   0.0031842298
        0.0005321781   0.0068968538  -0.0124481356  -0.0213634459   0.0105200112
       -0.0018230786   0.0014935936  -0.0009028455   0.0003450630   0.0006499725
        0.0000435721   0.0000228722   0.0000089285   0.0000017483  -0.0000284607
        0.0000235822   0.0000108594   0.0000185652   0.0000199997  -0.0000055683
       -0.0000273336  -0.0000039924   0.0000011829   0.0000045782   0.0000008590
       -0.0000007931   0.0000021772  -0.0000028747   0.0000000825   0.0000027376
       -0.0000025315  -0.0000000396   0.0000004244   0.0000002446  -0.0000001612
        0.0000024984   0.0000012348  -0.0000027769   0.0000001891   0.0000028004
       -0.0000040672  -0.0000025443   0.0000003041  -0.0000094273   0.0000070265
        0.0000132675  -0.0000063901  -0.0000000269   0.0000014518   0.0000011772
        0.0000148957  -0.0000095026   0.0000102557  -0.0000449320  -0.0000069209
       -0.0000470231   0.0000515125  -0.0000116033   0.0000554736  -0.0000206404
       -0.0000124574   0.0000070923  -0.0000003299   0.0000309744  -0.0000041321
        0.0000142269   0.0000169897  -0.0000082293   0.0000176395  -0.0000096219
        0.0000022868   0.0000307583   0.0000228881  -0.0000112603   0.0000359649
        0.0000024313  -0.0000060547  -0.0000285821  -0.0000038721  -0.0000116383
       -0.0000020865  -0.0000109894  -0.0000339079  -0.0000978349  -0.0007026422
        0.0002122380  -0.0016361984   0.0000190770  -0.0014361388
       -0.3491934824  -1.1041069316   0.1733563094   0.4287602522   1.4066916683
       -0.2086307850  -0.0600892665  -0.2401857744   0.0288955290  -0.0015104319
       -0.0509185760  -0.0136572179   0.0048220425   0.0031959281  -0.0074306598
       -0.0026044311  -0.0093011443   0.0011979283   0.0012055455   0.0065435583
       -0.0015096335   0.0021729631  -0.0044965372  -0.0000007185  -0.0001224854
        0.0001572823   0.0000466722   0.0000086635  -0.0003751740  -0.0000267379
       -0.0001181930  -0.0000889974  -0.0000922708   0.0001160412   0.0000014805
        0.0000285612   0.0000221952   0.0000084029   0.0000399723  -0.0000575340
        0.0000449598   0.0000244301  -0.0000545310   0.0000743278  -0.0000183828
        0.0002224428   0.0000106574  -0.0000066475  -0.0002666438  -0.0000300510
        0.0000223500   0.0000717514  -0.0000984481  -0.0000498463  -0.0000126174
        0.0000182785   0.0000366147   0.0000173595  -0.0000146154   0.0000001933
       -0.0000293395  -0.0000242954  -0.0000042889   0.0000002481   0.0000053668
        0.0000122822  -0.0000312986  -0.0000302834  -0.0000195954  -0.0000399124
        0.0000258677   0.0000195643  -0.0000037461  -0.0000144354  -0.0000100051
       -0.0000152101   0.0000048897  -0.0000010527   0.0000115347   0.0000135451
        0.0000128575  -0.0000083097  -0.0000452771  -0.0000265601   0.0000800837
        0.0001322910   0.0000302821  -0.0000712817  -0.0000873336   0.0000049066
       -0.0000370749  -0.0000847567  -0.0000240820   0.0000040602   0.0002368691
        0.0000978461   0.0000095842   0.0001307638  -0.0003515091   0.0009190313
        0.0029448670  -0.0000319104  -0.0003502473   0.0002679694  -0.0002877824
       -0.0002744895  -0.0001101700  -0.0001525059   0.0002731958  -0.0000052741
       -0.0000499342   0.0000406703  -0.0000581118   0.0000497969  -0.0000129783
        0.0000163218  -0.0000002964  -0.0001771529   0.0000909128   0.0000405419
        0.0000541162   0.0001098420   0.0000054280   0.0000197780  -0.0001973296
       -0.0000832194  -0.0000765971  -0.0000277638   0.0000091041  -0.0000337768
       -0.0000358303   0.0000287913   0.0000929175   0.0002381349  -0.0001072061
       -0.0000257656  -0.0000935587   0.0002315276   0.0000735005   0.0001658233
       -0.0000263369  -0.0022706463  -0.0007177330   0.0012061442  -0.0016052856
        0.0095043161   0.0016040955  -0.0216561286  -0.0216438249   0.0256458855
       -0.0001722691   0.0010887389   0.0010709035  -0.0001263790  -0.0003921636
        0.0000886895   0.0000687472   0.0000644883   0.0000280939  -0.0000661449
        0.0000878142   0.0000475237   0.0000793744   0.0000646106  -0.0000300616
       -0.0000354130  -0.0000006797  -0.0000003743   0.0000096855  -0.0000091045
       -0.0000048912   0.0000061443  -0.0000042565   0.0000125222  -0.0000022236
       -0.0000011113   0.0000117011  -0.0000074231   0.0000003365   0.0000029045
       -0.0000072939   0.0000091414  -0.0000032342  -0.0000123141   0.0000085290
       -0.0000146792  -0.0000030450   0.0000107849  -0.0000223334   0.0000084898
        0.0000378008  -0.0000013791  -0.0000149211   0.0000270133  -0.0000010919
        0.0000351741   0.0000021526   0.0000261796   0.0000060250  -0.0000104665
       -0.0000346901   0.0000445937  -0.0000015463   0.0002631398  -0.0000546236
       -0.0000467876   0.0000237305   0.0000033711   0.0000839448  -0.0000069285
        0.0000465586   0.0000450234  -0.0000241188   0.0000708860  -0.0000255109
        0.0000041733   0.0000976236   0.0000461598  -0.0000330614   0.0001171523
       -0.0000111362  -0.0000143489   0.0000281881  -0.0000639872   0.0000004741
       -0.0001956636   0.0000250476  -0.0001751110   0.0001076437   0.0004093924
       -0.0002174046   0.0017189365   0.0007136742  -0.0010447565
        0.0574876067   0.1733660987  -0.0626715462  -0.0816775270  -0.2086307850
        0.1321513559   0.0126220350   0.0288113944  -0.0623516784  -0.0069608120
       -0.0128839726   0.0054200708   0.0034326411  -0.0058873555   0.0009732027
        0.0014535655   0.0009115313  -0.0014348323  -0.0010685098  -0.0008649639
       -0.0003556648  -0.0002600229   0.0008129099  -0.0000860589   0.0000476424
       -0.0000080131  -0.0000011013  -0.0000271908   0.0000698712   0.0000114185
        0.0000270415   0.0000145807   0.0000133569  -0.0000351302  -0.0000106340
       -0.0000094345  -0.0000056868  -0.0000060167  -0.0000141256   0.0000194639
       -0.0000236508  -0.0000163124   0.0000111290  -0.0000179754  -0.0000059940
       -0.0000351125  -0.0000032643   0.0000051216   0.0000433610  -0.0000013164
       -0.0000176413  -0.0000180915   0.0000165172   0.0000112575   0.0000037609
        0.0000021370  -0.0000091480  -0.0000019904   0.0000087786  -0.0000033010
        0.0000044085   0.0000054512  -0.0000040948  -0.0000010422  -0.0000002634
       -0.0000007874   0.0000098242   0.0000000820   0.0000092536  -0.0000010006
       -0.0000021339  -0.0000088596   0.0000043876   0.0000078810  -0.0000007246
        0.0000028425  -0.0000047830   0.0000023898  -0.0000040978  -0.0000013913
        0.0000034360  -0.0000047612   0.0000073615   0.0000040706  -0.0000002716
       -0.0000151535   0.0000052299   0.0000123471   0.0000211438  -0.0000017746
        0.0000110301   0.0000201782   0.0000095131  -0.0000079560  -0.0000316925
       -0.0000126765  -0.0000350594  -0.0000229879   0.0000941520  -0.0001357587
       -0.0003336520   0.0000072292  -0.0000384490  -0.0000672306   0.0000646260
        0.0000585162   0.0000132081   0.0000350695  -0.0000515714  -0.0000086668
        0.0000053851  -0.0000048519   0.0000106628  -0.0000060522  -0.0000015457
        0.0000000411  -0.0000092434   0.0000269083  -0.0000172986  -0.0000096050
       -0.0000090113  -0.0000120373  -0.0000036306  -0.0000127461   0.0000293384
        0.0000101325   0.0000128757   0.0000041784  -0.0000042505   0.0000061612
        0.0000093592  -0.0000091389  -0.0000014188  -0.0000248997   0.0000058841
       -0.0000251277  -0.0000122861  -0.0000001961   0.0000009284  -0.0000373535
        0.0000109999   0.0003520413  -0.0000453922  -0.0002080753   0.0066987687
        0.0001415073  -0.0016625553   0.0101457892   0.0248105708  -0.0078442736
       -0.0013797819  -0.0011139502  -0.0010156362  -0.0002302899  -0.0012241587
        0.0001430014  -0.0000094228  -0.0000171883  -0.0000135261   0.0000139929
       -0.0000267966  -0.0000095066  -0.0000171927  -0.0000092222   0.0000226106
        0.0000076269   0.0000038020   0.0000061421  -0.0000045055   0.0000022501
        0.0000000358  -0.0000027093  -0.0000039633  -0.0000035255  -0.0000002293
        0.0000016787  -0.0000036746   0.0000033281  -0.0000077865  -0.0000005621
        0.0000008162   0.0000051536   0.0000000870   0.0000008508  -0.0000037940
        0.0000031758   0.0000004182  -0.0000028968   0.0000008464  -0.0000013889
       -0.0000054986   0.0000022231   0.0000044467  -0.0000039967   0.0000008049
       -0.0000068980   0.0000041795  -0.0000048383  -0.0000233855   0.0000090587
        0.0000121873   0.0000529137   0.0000008365  -0.0000588493   0.0000099947
        0.0000089914  -0.0000041086   0.0000009874  -0.0000156227  -0.0000052852
       -0.0000066593  -0.0000078616   0.0000039441  -0.0000114296   0.0000065636
        0.0000032787  -0.0000122607  -0.0000092518   0.0000054748  -0.0000149732
        0.0000032919   0.0000040977  -0.0000148727   0.0000169495   0.0000106603
        0.0000531999   0.0000047519   0.0000143599   0.0005157874   0.0011042949
       -0.0002208540  -0.0009986960   0.0011605728  -0.0009829409
        0.0093422264  -0.0216797849   0.0024456731  -0.0741779672  -0.0600892665
        0.0126220350   0.2873861396   0.0812354768  -0.2250455503  -0.0791382958
        0.0265896071   0.0544351581   0.0186941690   0.0183533687  -0.0184685936
       -0.0179734546   0.0133848957   0.0222920911  -0.0006793781  -0.0018368600
       -0.0002258903  -0.0005024846   0.0012105863   0.0000759376   0.0000138464
       -0.0000602478  -0.0000325547   0.0000539285   0.0000518651   0.0000301144
       -0.0000157209   0.0000026822   0.0000069872  -0.0000182605   0.0000313633
        0.0000322528  -0.0000079595  -0.0000042658  -0.0000046249   0.0000116764
       -0.0000146977  -0.0000057221   0.0000083368  -0.0000100413   0.0000004762
       -0.0000329675  -0.0000002275   0.0000007682   0.0000358450   0.0000024419
       -0.0000074975  -0.0000120369   0.0000133918   0.0000076570   0.0000040576
       -0.0000010817  -0.0000043639  -0.0000007845   0.0000020986   0.0000018211
        0.0000025294   0.0000036081   0.0000018569  -0.0000027736  -0.0000014824
       -0.0000013722   0.0000054818   0.0000041774   0.0000029202   0.0000028349
       -0.0000025504  -0.0000036198  -0.0000006874   0.0000042189   0.0000008939
        0.0000010371   0.0000003003  -0.0000028949  -0.0000012443  -0.0000002144
       -0.0000034978   0.0000013507   0.0000067267   0.0000013914  -0.0000064771
       -0.0000139331  -0.0000006404   0.0000071833   0.0000148172  -0.0000005779
        0.0000073929   0.0000200223   0.0000029441   0.0000455127  -0.0000752642
       -0.0000487207  -0.0000208928   0.0000495477   0.0000049322  -0.0001587053
       -0.0006668800  -0.0000718759   0.0000765138   0.0000620534   0.0000853591
        0.0000436970  -0.0000077734   0.0000485469  -0.0000641622   0.0000240438
        0.0000124753  -0.0000172067   0.0000130682  -0.0000079830   0.0000108211
       -0.0000044102   0.0000036974   0.0000478904  -0.0000143701  -0.0000184335
       -0.0000056721  -0.0000302417  -0.0000027642   0.0000457796   0.0001019800
        0.0000509893   0.0000095667   0.0000161887  -0.0000085653   0.0000017816
        0.0000181897  -0.0000204388  -0.0000328556  -0.0001007284   0.0000318192
       -0.0000464232   0.0001218902  -0.0001425758  -0.0000249206  -0.0000496460
        0.0000231634   0.0005951942   0.0001516539  -0.0003793430  -0.0113976987
       -0.0501920250   0.0050736019  -0.1324383088  -0.0111463603   0.1202753373
       -0.0047489559   0.0114939118   0.0121433195   0.0050423245  -0.0030105255
        0.0033392772  -0.0000157305  -0.0000107878   0.0000010219   0.0000174730
       -0.0000158346  -0.0000121285  -0.0000067599  -0.0000097701   0.0000078942
        0.0000044143  -0.0000017812  -0.0000001213  -0.0000022413  -0.0000006053
        0.0000019803  -0.0000015083  -0.0000009549  -0.0000000803  -0.0000006538
       -0.0000010296  -0.0000005129  -0.0000000789  -0.0000007639  -0.0000004284
        0.0000004018  -0.0000004928  -0.0000013710   0.0000012514  -0.0000003135
       -0.0000009643   0.0000008390  -0.0000013774  -0.0000009268   0.0000006028
       -0.0000039711  -0.0000018847   0.0000009632  -0.0000017138   0.0000012481
       -0.0000063916  -0.0000000533  -0.0000030729   0.0000124012   0.0000052245
        0.0000001052   0.0000639388  -0.0001285570  -0.0000606417   0.0000112961
        0.0000091303  -0.0000011568  -0.0000030168  -0.0000201632   0.0000056070
       -0.0000133217  -0.0000116019   0.0000120973  -0.0000191917   0.0000057571
        0.0000017181  -0.0000305081  -0.0000092834   0.0000019719  -0.0000356887
        0.0000019554   0.0000068501  -0.0000386308   0.0000301981  -0.0000106861
       -0.0002404652  -0.0001295401  -0.0000397799   0.0051971979  -0.0030433024
        0.0033043375  -0.0048674157  -0.0006316654   0.0082435278
       -0.0216968114  -0.0494870170   0.0112031346  -0.0600920896  -0.2401857744
        0.0288113944   0.0812354768   0.6312202089   0.0437151941   0.0548948101
       -0.1847843258  -0.1241569730  -0.0132551676  -0.0625989910  -0.0030652202
        0.0129295926   0.0047034353  -0.0167153138  -0.0004582479  -0.0052030680
        0.0018708202  -0.0016497310   0.0032637829   0.0003609328  -0.0000334149
       -0.0001574033  -0.0000823330  -0.0000321958   0.0003247779   0.0000116968
        0.0001011187   0.0001097831   0.0000876025  -0.0000557569  -0.0000575940
       -0.0000348328  -0.0000391196   0.0000263007  -0.0000241448   0.0000395248
       -0.0000678026  -0.0000098665   0.0000295296  -0.0000205512   0.0000021478
       -0.0001163628   0.0000084009   0.0000011224   0.0001262766   0.0000228670
       -0.0000159783  -0.0000335863   0.0000447580   0.0000240701   0.0000074797
       -0.0000048967  -0.0000184376  -0.0000098609   0.0000087488   0.0000004534
        0.0000117802   0.0000122152   0.0000019468  -0.0000023227  -0.0000035591
       -0.0000056428   0.0000146642   0.0000136503   0.0000114484   0.0000193334
       -0.0000117105  -0.0000112581  -0.0000002629   0.0000074351   0.0000028211
        0.0000063988  -0.0000016510   0.0000005106  -0.0000077807  -0.0000061402
       -0.0000060401   0.0000054516   0.0000214683   0.0000091575  -0.0000380722
       -0.0000662254  -0.0000129603   0.0000237988   0.0000488280  -0.0000034202
        0.0000134485   0.0000538229   0.0000132722  -0.0000275700  -0.0001024826
       -0.0000472538   0.0001872112  -0.0001757152   0.0000750139  -0.0005901962
       -0.0019686048  -0.0001014073   0.0003258144   0.0000176339   0.0002002051
        0.0001540242   0.0000577353   0.0001633296  -0.0001753651   0.0000356614
        0.0000354371  -0.0000317575   0.0000443938  -0.0000368565   0.0000140786
        0.0000020359  -0.0000024702   0.0001073481  -0.0000472805  -0.0000390822
        0.0000033784  -0.0000682065  -0.0000050820  -0.0000305295   0.0001600626
        0.0000532066   0.0000801607   0.0000317564  -0.0000133887   0.0000686484
        0.0000225387  -0.0000297008   0.0000383956  -0.0000690409   0.0000515739
       -0.0000705410  -0.0000247675  -0.0000567879   0.0000952354  -0.0001590632
        0.0000270151   0.0014966919   0.0006236950  -0.0012052090  -0.0189251779
       -0.0070644927   0.0261009310  -0.0392678075  -0.0862212225   0.0457583256
       -0.0003832269   0.0036932137   0.0019228465  -0.0031211535  -0.0048342586
        0.0004942113  -0.0000570552   0.0000334566   0.0000229628   0.0000464882
       -0.0000512212   0.0000009447  -0.0000011848  -0.0000153601   0.0000200305
        0.0000229185   0.0000020364   0.0000007110  -0.0000059261   0.0000008618
        0.0000013328  -0.0000039112  -0.0000000148  -0.0000058409   0.0000008294
       -0.0000002545  -0.0000056913   0.0000050452  -0.0000020730  -0.0000011149
        0.0000041268  -0.0000027599   0.0000005123   0.0000064048  -0.0000037459
        0.0000062805   0.0000036301  -0.0000033478   0.0000092898  -0.0000009503
       -0.0000162432   0.0000014665   0.0000057350  -0.0000114892   0.0000013086
       -0.0000238189  -0.0000016970  -0.0000146385   0.0000776440   0.0000420890
        0.0000450994   0.0000046524  -0.0001322648   0.0001142769   0.0000317795