$hessian                                                                        
        0.1302157508   0.3623877869  -0.0410775874  -0.1406122802  -0.3417083777
        0.0396652557   0.0097528304  -0.0211813512   0.0014209021  -0.0008473250
        0.0007414154   0.0036180640  -0.0016041417  -0.0012605099  -0.0007477406
        0.0005142059   0.0015604730  -0.0005456882   0.0001783051  -0.0011805073
        0.0004837246  -0.0004485597   0.0007932841   0.0000585028  -0.0000129834
       -0.0000280580  -0.0000029559  -0.0000011603   0.0000741777   0.0000082350
        0.0000344869   0.0000191543   0.0000224578  -0.0000037927  -0.0000048573
       -0.0000007407  -0.0000233444   0.0000099632  -0.0000125417   0.0000406682
       -0.0000526822   0.0000105555   0.0000000752   0.0000019544   0.0000027649
       -0.0000148041   0.0000002390   0.0000021275   0.0000149009   0.0000281069
       -0.0000042098   0.0000106877  -0.0000065615  -0.0000009493  -0.0000018846
        0.0000040250  -0.0000028264  -0.0000002963  -0.0000008853  -0.0000029279
        0.0000059975   0.0000036943   0.0000003600   0.0000063325  -0.0000002379
       -0.0000023298  -0.0000060717   0.0000015926   0.0000016133   0.0000081436
        0.0000012710   0.0000002086   0.0000013046  -0.0000006746  -0.0000037758
       -0.0000008590   0.0000081895   0.0000022998   0.0000027773   0.0000029461
       -0.0000046051   0.0000102804   0.0000063911  -0.0000095906  -0.0000129703
       -0.0000219245   0.0000004202   0.0000014111   0.0000155315  -0.0000012512
        0.0000123118   0.0000144945   0.0000065016  -0.0000246621  -0.0000656292
       -0.0000685854   0.0000023234  -0.0000140623   0.0000539623  -0.0001157129
       -0.0005998240  -0.0000228214   0.0000895175  -0.0000148807   0.0000356565
        0.0000361508   0.0000082172   0.0000302145  -0.0000465186   0.0000033181
        0.0000084342  -0.0000134388   0.0000079038  -0.0000043515   0.0000078382
       -0.0000099654   0.0000023779   0.0000272688  -0.0000167739  -0.0000053013
       -0.0000051795  -0.0000251682   0.0000001906   0.0000005491   0.0000364389
        0.0000169126   0.0000074549  -0.0000078685   0.0000025279   0.0000105979
       -0.0000096510  -0.0000006755  -0.0000361692  -0.0000220809   0.0000019408
        0.0000262651   0.0000051608  -0.0000437158  -0.0000383482  -0.0000143923
       -0.0000019851   0.0004197092   0.0002087519  -0.0001967902  -0.0009483624
       -0.0009230247  -0.0011466759   0.0028959327   0.0017799570  -0.0017741162
        0.0003592590  -0.0002839315   0.0000869248  -0.0001644017  -0.0003266329
       -0.0000047260  -0.0000134533   0.0000001343   0.0000025982   0.0000158295
       -0.0000131697  -0.0000060805  -0.0000091712  -0.0000234602  -0.0000005922
        0.0000298651   0.0000033104  -0.0000043024  -0.0000031571  -0.0000046955
        0.0000008345  -0.0000011770   0.0000006367   0.0000010798  -0.0000022517
        0.0000007196   0.0000015842  -0.0000003235  -0.0000014344   0.0000003076
       -0.0000021946  -0.0000005113   0.0000015556   0.0000010144  -0.0000010519
        0.0000021386   0.0000041839   0.0000028144   0.0000095583  -0.0000067362
       -0.0000110115   0.0000066130   0.0000015715   0.0000002501  -0.0000005908
       -0.0000096468   0.0000083757  -0.0000064547   0.0000369227  -0.0000072254
        0.0000370616  -0.0000668404  -0.0000131480  -0.0000404843   0.0000102086
        0.0000086744  -0.0000024901   0.0000007202  -0.0000147292   0.0000027107
       -0.0000066027  -0.0000067718   0.0000049822  -0.0000042161   0.0000082678
       -0.0000010166  -0.0000129010  -0.0000107300   0.0000052581  -0.0000082085
        0.0000015408   0.0000021675   0.0000319098   0.0000069935   0.0000074730
        0.0000131196   0.0000371465   0.0000263963  -0.0000579415  -0.0000243905
       -0.0000214661   0.0003494062   0.0001095399   0.0001174873
        0.3623877869   1.1737850014  -0.1316517225  -0.3417308471  -1.1249449752
        0.1236960513  -0.0211666729  -0.0507938668   0.0081447671  -0.0032515518
        0.0071997239   0.0070615800  -0.0017535314  -0.0034444840   0.0013389196
        0.0014449136   0.0051439804  -0.0005932862  -0.0004693299  -0.0035055613
        0.0007421481  -0.0012479455   0.0025151036   0.0001095656   0.0000512992
       -0.0000642524  -0.0000253239  -0.0000079306   0.0002163140   0.0000249456
        0.0000750652   0.0000445503   0.0000567495  -0.0000616772  -0.0000036960
       -0.0000179499  -0.0000169296   0.0000025256  -0.0000261874   0.0000477845
       -0.0000429331  -0.0000084004   0.0000306167  -0.0000419494   0.0000087734
       -0.0001138999  -0.0000040334   0.0000041465   0.0001337070   0.0000158602
       -0.0000093304  -0.0000317676   0.0000466759   0.0000255219   0.0000018647
       -0.0000148291  -0.0000159443  -0.0000054676   0.0000020735   0.0000022065
        0.0000198266   0.0000088469   0.0000048889   0.0000064543  -0.0000066587
       -0.0000042415   0.0000120091   0.0000129689   0.0000126702   0.0000208770
       -0.0000122765  -0.0000117000   0.0000068482   0.0000090578   0.0000013835
        0.0000088349  -0.0000001866  -0.0000040850  -0.0000029632  -0.0000043549
       -0.0000116980   0.0000093778   0.0000265902   0.0000120283  -0.0000455180
       -0.0000690122  -0.0000179023   0.0000405613   0.0000449696   0.0000008439
        0.0000269498   0.0000350240   0.0000207341  -0.0000267615  -0.0001601357
       -0.0000779369   0.0000106878  -0.0001018781   0.0001860913  -0.0004345807
       -0.0016573926  -0.0000543921   0.0001503235  -0.0000978305   0.0001398942
        0.0001577547   0.0000618392   0.0000943940  -0.0001503497  -0.0000176090
        0.0000368146  -0.0000303065   0.0000316947  -0.0000152290   0.0000034950
       -0.0000117680   0.0000075933   0.0000867495  -0.0000523356  -0.0000184962
       -0.0000307350  -0.0000614247  -0.0000038091  -0.0000097170   0.0001112582
        0.0000489063   0.0000260324   0.0000219140  -0.0000062062   0.0000096435
        0.0000054897  -0.0000134365  -0.0000498985  -0.0001600445   0.0000571829
       -0.0000081723   0.0000630219  -0.0001348037  -0.0000019200  -0.0000897283
        0.0000095986   0.0012814702   0.0004900814  -0.0006378977  -0.0004070220
       -0.0044336271   0.0002890723   0.0057030956   0.0011247460  -0.0089507351
        0.0000890966   0.0000681762  -0.0001171293  -0.0001686301  -0.0005311058
        0.0000514200  -0.0000392097  -0.0000218905  -0.0000030339   0.0000367180
       -0.0000430731  -0.0000182589  -0.0000515907  -0.0000314013   0.0000070287
        0.0000158309   0.0000024025  -0.0000064969  -0.0000053762   0.0000035546
        0.0000090328  -0.0000050740  -0.0000037915   0.0000010992  -0.0000018433
       -0.0000034350   0.0000003495  -0.0000000230  -0.0000055533   0.0000001166
       -0.0000007978  -0.0000025458  -0.0000000271   0.0000042154  -0.0000027040
        0.0000015681   0.0000007531  -0.0000009122   0.0000059145  -0.0000081919
       -0.0000206126  -0.0000046476   0.0000060187  -0.0000118456   0.0000032271
       -0.0000236633   0.0000127512  -0.0000150522   0.0000090736   0.0000220914
        0.0000274998  -0.0000680155   0.0000129151  -0.0001633353   0.0000280718
        0.0000421693  -0.0000078896  -0.0000002904  -0.0000426908   0.0000098219
       -0.0000242478  -0.0000226378   0.0000189490  -0.0000336362   0.0000173877
        0.0000005856  -0.0000498471  -0.0000255258   0.0000157663  -0.0000627152
        0.0000043591   0.0000031598  -0.0000242099   0.0000395571  -0.0000094954
        0.0001543111  -0.0000573961   0.0001097628  -0.0001758722  -0.0006796453
        0.0001239864  -0.0002993884   0.0000589346   0.0001293208
       -0.0410775874  -0.1316517225   0.0322565260   0.0396759846   0.1237313771
       -0.0492349190   0.0013782006   0.0081631280   0.0166080137   0.0021842032
        0.0009461362  -0.0016668240  -0.0006957167   0.0013565314  -0.0000289276
       -0.0004720635  -0.0004450488   0.0004562778   0.0002545130   0.0003542987
        0.0000824974   0.0001187670  -0.0003217940  -0.0000243944  -0.0000131253
        0.0000229833   0.0000040360   0.0000000914  -0.0000235352   0.0000154400
       -0.0000086642  -0.0000009199   0.0000062062   0.0000074503   0.0000095769
        0.0000082858  -0.0000011952  -0.0000022738   0.0000074740  -0.0000073552
        0.0000103249   0.0000094532  -0.0000019108   0.0000007140   0.0000008162
        0.0000137240   0.0000031455  -0.0000080931  -0.0000105958   0.0000058661
        0.0000122687   0.0000116731  -0.0000128587  -0.0000030306  -0.0000039134
       -0.0000000974   0.0000069032  -0.0000024658   0.0000039576   0.0000022508
        0.0000001702  -0.0000001952   0.0000001701   0.0000016929  -0.0000046335
        0.0000054388  -0.0000067751  -0.0000110757   0.0000094302   0.0000014643
        0.0000087773  -0.0000063441  -0.0000014898   0.0000007246  -0.0000076930
       -0.0000054517   0.0000043999   0.0000006616   0.0000004918  -0.0000030951
       -0.0000066105   0.0000031767  -0.0000057858  -0.0000000162  -0.0000066387
        0.0000025927  -0.0000129734  -0.0000044077  -0.0000017437   0.0000067165
       -0.0000012493  -0.0000013462   0.0000076480  -0.0000170660   0.0000213303
        0.0000077702   0.0000224650   0.0000015265  -0.0000323891   0.0000490762
        0.0001593201   0.0000298797   0.0000022589   0.0000191910  -0.0000213428
       -0.0000250187  -0.0000062651  -0.0000092151   0.0000157823   0.0000031749
        0.0000100196   0.0000024434   0.0000008970   0.0000153957   0.0000006822
        0.0000012128   0.0000052993  -0.0000058004   0.0000064658   0.0000042866
        0.0000038762   0.0000038267   0.0000067649  -0.0000000154  -0.0000164211
       -0.0000133395  -0.0000041080  -0.0000026717   0.0000056322   0.0000009740
       -0.0000037299   0.0000051941  -0.0000026664   0.0000259916   0.0000127974
        0.0000079364  -0.0000009389   0.0000345439  -0.0000016091   0.0000123981
        0.0000032564  -0.0001374094  -0.0000275715   0.0000544070  -0.0012085646
        0.0002465071   0.0002351310  -0.0002248286  -0.0027423092   0.0006896404
        0.0001857528   0.0003028335   0.0002716616   0.0000693060   0.0003701964
       -0.0000437579   0.0000042024   0.0000092544   0.0000032053  -0.0000065756
        0.0000065175   0.0000073658   0.0000059290   0.0000007342  -0.0000249728
       -0.0000050441  -0.0000017817  -0.0000085303   0.0000014640  -0.0000010759
       -0.0000008623  -0.0000008157  -0.0000102389   0.0000083928  -0.0000017732
       -0.0000012261   0.0000040182   0.0000013613  -0.0000103356   0.0000020527
       -0.0000015590   0.0000098914  -0.0000035272   0.0000010378   0.0000035400
       -0.0000043545   0.0000055624   0.0000130287  -0.0000069747  -0.0000010225
        0.0000018621  -0.0000071636   0.0000015592   0.0000014753   0.0000020936
        0.0000038577  -0.0000006237   0.0000051989   0.0000254338  -0.0000167044
       -0.0000176322  -0.0000139072  -0.0000311958   0.0000058069  -0.0000032747
       -0.0000041992   0.0000065379  -0.0000002142   0.0000057755   0.0000087197
        0.0000016998   0.0000030010   0.0000048823   0.0000034869  -0.0000019857
        0.0000006673   0.0000053677   0.0000019055  -0.0000003540   0.0000061984
       -0.0000026961  -0.0000037980   0.0000103018  -0.0000132909  -0.0000239037
       -0.0000159790   0.0000134234  -0.0000434422  -0.0001095493  -0.0001680955
        0.0000048977   0.0000177883  -0.0003203323   0.0003033525
       -0.1406122802  -0.3417308471   0.0396759846   0.2170738157   0.4199965433
       -0.0599046516  -0.0729344404  -0.0589066488   0.0095135312   0.0036498858
       -0.0012519821  -0.0069096919   0.0067883659   0.0025491471   0.0034000481
       -0.0008990410  -0.0027044159   0.0014701181  -0.0012591972   0.0024055895
       -0.0015062365   0.0008684824  -0.0013467556  -0.0001377705   0.0000239060
        0.0000471036   0.0000089285  -0.0000006362  -0.0001401195  -0.0000210573
       -0.0000340113  -0.0000250305  -0.0000283119   0.0000124083  -0.0000048136
       -0.0000018704   0.0000224230  -0.0000103435   0.0000149643  -0.0000521456
        0.0000697872  -0.0000095224  -0.0000109205   0.0000038160  -0.0000057640
        0.0000291100   0.0000000664  -0.0000031876  -0.0000277632  -0.0000289197
        0.0000051498  -0.0000065300  -0.0000008056   0.0000014362  -0.0000020849
       -0.0000039140   0.0000050066  -0.0000005684  -0.0000020410   0.0000045724
       -0.0000078990  -0.0000077894  -0.0000001890  -0.0000051747  -0.0000018052
        0.0000036749   0.0000037998  -0.0000054772  -0.0000027879  -0.0000103220
        0.0000001342   0.0000009953  -0.0000020290  -0.0000029824  -0.0000001594
        0.0000000290  -0.0000049601  -0.0000047615  -0.0000033657  -0.0000027319
        0.0000015859  -0.0000101877  -0.0000106049   0.0000035276   0.0000167435
        0.0000250627  -0.0000009189  -0.0000085354  -0.0000256598   0.0000038467
       -0.0000218589  -0.0000249477  -0.0000091834   0.0000369998   0.0000853743
        0.0000866831   0.0000147709   0.0000799968  -0.0000639577   0.0002128956
        0.0011911826   0.0000479093  -0.0001995651   0.0000222569  -0.0000414119
       -0.0000624335  -0.0000298733  -0.0000445000   0.0000835919  -0.0000095056
       -0.0000102456   0.0000185067  -0.0000195576   0.0000124494  -0.0000088577
        0.0000100135  -0.0000007323  -0.0000619907   0.0000297816   0.0000115085
        0.0000157113   0.0000466354  -0.0000001185  -0.0000139744  -0.0000573420
       -0.0000301590  -0.0000123363   0.0000061121  -0.0000028807  -0.0000170636
       -0.0000087284   0.0000079001   0.0000425214   0.0000504197  -0.0000115461
       -0.0000572335  -0.0000502415   0.0000643668   0.0000700554   0.0000188284
        0.0000091530  -0.0007639726  -0.0004917543   0.0003483994   0.0033227143
        0.0001451133   0.0068505279  -0.0119182141  -0.0215543567   0.0093068908
       -0.0019000585   0.0016552948  -0.0008866285   0.0003374932   0.0006413280
        0.0000710966   0.0000222041   0.0000077568   0.0000007356  -0.0000280036
        0.0000218518   0.0000112210   0.0000179338   0.0000184166  -0.0000024466
       -0.0000260416  -0.0000043572   0.0000022246   0.0000043357  -0.0000000273
        0.0000000887   0.0000020354  -0.0000043695   0.0000011263   0.0000024090
       -0.0000041644   0.0000008824   0.0000004567  -0.0000010952   0.0000004363
        0.0000025296   0.0000000363  -0.0000023278   0.0000002413   0.0000021060
       -0.0000041131  -0.0000026389  -0.0000003284  -0.0000097393   0.0000070067
        0.0000128831  -0.0000065112  -0.0000002670   0.0000010643   0.0000019493
        0.0000142605  -0.0000091726   0.0000105253  -0.0000465799  -0.0000048693
       -0.0000460390   0.0000555565  -0.0000156355   0.0000537295  -0.0000194847
       -0.0000123295   0.0000066493  -0.0000013436   0.0000308287  -0.0000011772
        0.0000128612   0.0000186351  -0.0000060088   0.0000167119  -0.0000082461
        0.0000021632   0.0000297193   0.0000241247  -0.0000093444   0.0000352049
        0.0000044323  -0.0000060738  -0.0000292783  -0.0000016760  -0.0000130499
       -0.0000003047  -0.0000098810  -0.0000302139  -0.0000881788  -0.0007066962
        0.0001787437  -0.0017008842   0.0000260799  -0.0014254404
       -0.3417083777  -1.1249449752   0.1237313771   0.4199965433   1.4325132092
       -0.1488290321  -0.0589106328  -0.2434518860   0.0209188655  -0.0008715530
       -0.0494382044  -0.0163030540   0.0045974655   0.0039026841  -0.0072997199
       -0.0025767341  -0.0093884706   0.0008616795   0.0012023784   0.0066058861
       -0.0011883557   0.0022293955  -0.0044735056  -0.0002177195  -0.0001332361
        0.0001580350   0.0000553947   0.0000111879  -0.0003724463  -0.0000370044
       -0.0001192866  -0.0000860334  -0.0000994703   0.0001167405  -0.0000018490
        0.0000220654   0.0000221967   0.0000095444   0.0000408315  -0.0000584989
        0.0000496227   0.0000256819  -0.0000558467   0.0000753447  -0.0000159446
        0.0002255047   0.0000098843  -0.0000115158  -0.0002691429  -0.0000271139
        0.0000236929   0.0000710036  -0.0000978189  -0.0000539737  -0.0000124129
        0.0000262429   0.0000259960   0.0000171074  -0.0000048496  -0.0000137866
       -0.0000300440  -0.0000157468  -0.0000161967   0.0000006819   0.0000109859
        0.0000047595  -0.0000319327  -0.0000286190  -0.0000234729  -0.0000391631
        0.0000251928   0.0000209302  -0.0000039504  -0.0000195113  -0.0000059656
       -0.0000145399  -0.0000028219   0.0000070503   0.0000123251   0.0000051912
        0.0000221442  -0.0000090916  -0.0000528838  -0.0000196822   0.0000821384
        0.0001297674   0.0000298374  -0.0000724977  -0.0000891562  -0.0000011733
       -0.0000375240  -0.0000877323  -0.0000327128  -0.0000023024   0.0002434777
        0.0001083466   0.0000141092   0.0001192427  -0.0003603799   0.0008584698
        0.0029618850   0.0001042082  -0.0003184100   0.0002675902  -0.0002815450
       -0.0002813934  -0.0001065481  -0.0001733794   0.0002770512   0.0000012690
       -0.0000621239   0.0000392670  -0.0000639757   0.0000264870  -0.0000122188
        0.0000115171  -0.0000167520  -0.0001792170   0.0000839839   0.0000304251
        0.0000561207   0.0001062352   0.0000040943   0.0000228171  -0.0001917851
       -0.0000949005  -0.0000759145  -0.0000286246   0.0000076864  -0.0000337430
       -0.0000360216   0.0000337985   0.0000927317   0.0002516418  -0.0000796439
       -0.0000271549  -0.0001110648   0.0002255577   0.0000782029   0.0001672295
       -0.0000130239  -0.0022915390  -0.0007922742   0.0011462832  -0.0019534180
        0.0093699115   0.0022150899  -0.0218352551  -0.0244728661   0.0251743076
        0.0000610735   0.0002642218   0.0014479847  -0.0001099905  -0.0003233015
        0.0000750456   0.0000688358   0.0000671660   0.0000154266  -0.0000670530
        0.0000926158   0.0000382869   0.0000782196   0.0000646797  -0.0000223288
       -0.0000352090   0.0000009590   0.0000085376   0.0000097607  -0.0000014576
       -0.0000158242   0.0000065325   0.0000082830  -0.0000043739  -0.0000020754
        0.0000097339  -0.0000027646  -0.0000076602   0.0000050252  -0.0000029527
       -0.0000069687   0.0000052269   0.0000005275  -0.0000124981  -0.0000015957
       -0.0000024365  -0.0000036235  -0.0000016268  -0.0000083319   0.0000088354
        0.0000306692   0.0000067839  -0.0000150779   0.0000249854  -0.0000120324
        0.0000358826  -0.0000006053   0.0000147939   0.0000072395  -0.0000156512
       -0.0000301424   0.0000458882  -0.0000207131   0.0002768120  -0.0000542555
       -0.0000529867   0.0000024090   0.0000024678   0.0000797025  -0.0000253552
        0.0000466576   0.0000424514  -0.0000408089   0.0000713931  -0.0000281354
       -0.0000068471   0.0000977836   0.0000500408  -0.0000304558   0.0001179644
       -0.0000055441  -0.0000053165   0.0000289443  -0.0000589530   0.0000085573
       -0.0002047789   0.0000351988  -0.0001563286   0.0000776094   0.0003490953
       -0.0001781380   0.0016956955   0.0006617262  -0.0009667898
        0.0396652557   0.1236960513  -0.0492349190  -0.0599046516  -0.1488290321
        0.1157383451   0.0096675245   0.0208514919  -0.0598351324  -0.0068560685
       -0.0156044023   0.0042411550   0.0036600351  -0.0057329690   0.0002821999
        0.0013182328   0.0005666549  -0.0013692865  -0.0010031126  -0.0005584336
       -0.0004282257  -0.0001702944   0.0005769309  -0.0000613270   0.0000436162
       -0.0000019184  -0.0000048309  -0.0000240897   0.0000509544   0.0000076406
        0.0000199529   0.0000112178   0.0000100014  -0.0000294570  -0.0000101352
       -0.0000107097  -0.0000069894  -0.0000029100  -0.0000083684   0.0000172685
       -0.0000237583  -0.0000137076   0.0000075864  -0.0000144393  -0.0000039349
       -0.0000247396  -0.0000030234   0.0000038356   0.0000314829  -0.0000009453
       -0.0000156077  -0.0000140329   0.0000104833   0.0000125691   0.0000025417
        0.0000046425  -0.0000100457  -0.0000010350   0.0000135662  -0.0000088433
        0.0000047083   0.0000090420  -0.0000093857  -0.0000006178   0.0000014357
       -0.0000005836   0.0000077122  -0.0000017843   0.0000095910  -0.0000005140
       -0.0000000944  -0.0000081765   0.0000044065   0.0000045553   0.0000019220
        0.0000007150  -0.0000061785   0.0000052627  -0.0000034380  -0.0000044105
        0.0000061804  -0.0000046322   0.0000001594   0.0000094566   0.0000006354
       -0.0000090698   0.0000051097   0.0000081542   0.0000152730  -0.0000038869
        0.0000101591   0.0000151507   0.0000040634  -0.0000033501  -0.0000250564
       -0.0000046040  -0.0000343607  -0.0000117228   0.0000794371  -0.0000901112
       -0.0001933161  -0.0000071067  -0.0000520404  -0.0000545922   0.0000407157
        0.0000414402   0.0000040958   0.0000192873  -0.0000379963  -0.0000098418
        0.0000040597  -0.0000009030   0.0000057997  -0.0000143488  -0.0000037869
        0.0000002987  -0.0000135022   0.0000199538  -0.0000108040  -0.0000178563
       -0.0000071155  -0.0000092751  -0.0000054521  -0.0000129987   0.0000147607
       -0.0000054374   0.0000074529   0.0000020868   0.0000001481   0.0000075959
        0.0000114447  -0.0000058364   0.0000012266  -0.0000081277   0.0000109910
       -0.0000236942  -0.0000139337   0.0000155967   0.0000051449  -0.0000256414
        0.0000119132   0.0002510483  -0.0000769511  -0.0001554280   0.0065726580
        0.0007307891  -0.0016687448   0.0089385450   0.0243073251  -0.0056031967
       -0.0013972891  -0.0007792032  -0.0009450497  -0.0002240206  -0.0012319188
        0.0000923234  -0.0000062822  -0.0000122094  -0.0000165907   0.0000110103
       -0.0000203103  -0.0000130889  -0.0000127394  -0.0000064834   0.0000235291
        0.0000071769   0.0000044359   0.0000080512  -0.0000041479   0.0000047311
       -0.0000039479  -0.0000017825  -0.0000021733  -0.0000072997  -0.0000004314
        0.0000055042  -0.0000076774   0.0000015388  -0.0000062781  -0.0000000991
        0.0000009271   0.0000025474   0.0000022746   0.0000003754  -0.0000079781
        0.0000097017   0.0000001230  -0.0000064560   0.0000062150  -0.0000014521
       -0.0000078752   0.0000067658   0.0000035906  -0.0000031135  -0.0000035176
       -0.0000057912   0.0000034790  -0.0000074163  -0.0000241209   0.0000057733
        0.0000098404   0.0000511142   0.0000005345  -0.0000441238   0.0000064171
        0.0000045382  -0.0000102547  -0.0000005068  -0.0000120866  -0.0000117966
       -0.0000052908  -0.0000077820  -0.0000084649  -0.0000087807  -0.0000004274
       -0.0000069367  -0.0000086250  -0.0000023691   0.0000039164  -0.0000098192
        0.0000037589   0.0000060641  -0.0000124204   0.0000103911   0.0000095184
        0.0000423336   0.0000081948   0.0000112766   0.0005016686   0.0011549092
       -0.0001891511  -0.0009077986   0.0012364240  -0.0009050582
        0.0097528304  -0.0211666729   0.0013782006  -0.0729344404  -0.0589106328
        0.0096675245   0.2818661222   0.0893303332  -0.2196778715  -0.0787618885
        0.0240606938   0.0557812799   0.0182242634   0.0194420913  -0.0174564665
       -0.0178034793   0.0119669901   0.0228008712  -0.0006624657  -0.0017473461
       -0.0003161827  -0.0004918170   0.0011530982   0.0001263698   0.0000141463
       -0.0000615227  -0.0000334202   0.0000516611   0.0000492237   0.0000299110
       -0.0000149527   0.0000023157   0.0000066947  -0.0000185380   0.0000297143
        0.0000332068  -0.0000077942  -0.0000041371  -0.0000052824   0.0000115340
       -0.0000144067  -0.0000049028   0.0000079984  -0.0000098602   0.0000005050
       -0.0000323146  -0.0000004139   0.0000011372   0.0000350813   0.0000018428
       -0.0000074267  -0.0000115699   0.0000132575   0.0000072728   0.0000038890
       -0.0000012015  -0.0000044612  -0.0000008938   0.0000024611   0.0000014241
        0.0000026936   0.0000039233   0.0000016560  -0.0000027311  -0.0000013930
       -0.0000013400   0.0000054985   0.0000041531   0.0000026434   0.0000026470
       -0.0000027897  -0.0000033228  -0.0000005618   0.0000040804   0.0000010577
        0.0000007984   0.0000000636  -0.0000023732  -0.0000013322  -0.0000006389
       -0.0000030109   0.0000014622   0.0000062394   0.0000020064  -0.0000066229
       -0.0000136936  -0.0000003547   0.0000069984   0.0000143522  -0.0000009524
        0.0000071503   0.0000194687   0.0000028178   0.0000439219  -0.0000731013
       -0.0000474653  -0.0000189539   0.0000522285  -0.0000008594  -0.0001364991
       -0.0006392927  -0.0001038634   0.0000630814   0.0000591110   0.0000857737
        0.0000443584  -0.0000100889   0.0000458690  -0.0000626184   0.0000205777
        0.0000120924  -0.0000166893   0.0000129421  -0.0000078315   0.0000102270
       -0.0000043234   0.0000024805   0.0000464757  -0.0000127782  -0.0000183890
       -0.0000063494  -0.0000282120  -0.0000049596   0.0000424431   0.0000954303
        0.0000549043   0.0000085714   0.0000160750  -0.0000071605   0.0000014714
        0.0000198008  -0.0000189709  -0.0000324696  -0.0001016790   0.0000245558
       -0.0000471302   0.0001332692  -0.0001308541  -0.0000266187  -0.0000481057
        0.0000190115   0.0005811455   0.0001675831  -0.0003512211  -0.0106666269
       -0.0497590584   0.0026192953  -0.1298470633  -0.0171205977   0.1184611372
       -0.0046289169   0.0106838976   0.0125324765   0.0051565483  -0.0030773864
        0.0031743912  -0.0000150110  -0.0000096166   0.0000010248   0.0000169487
       -0.0000147525  -0.0000127438  -0.0000064290  -0.0000096055   0.0000078484
        0.0000042229  -0.0000017107   0.0000000638  -0.0000019934  -0.0000001928
        0.0000015653  -0.0000013849  -0.0000005984  -0.0000003865  -0.0000007523
       -0.0000008395  -0.0000008133  -0.0000000190  -0.0000007760  -0.0000004949
        0.0000001937  -0.0000008529  -0.0000008971   0.0000011006  -0.0000007830
       -0.0000004133   0.0000008846  -0.0000019495  -0.0000004333   0.0000005486
       -0.0000043349  -0.0000018552   0.0000008967  -0.0000017898   0.0000008185
       -0.0000061944  -0.0000000263  -0.0000034124   0.0000112656   0.0000050204
       -0.0000006630   0.0001148208  -0.0001674926  -0.0000054571   0.0000114885
        0.0000087983  -0.0000011757  -0.0000028324  -0.0000200355   0.0000031235
       -0.0000131345  -0.0000116772   0.0000097691  -0.0000185650   0.0000051798
        0.0000010198  -0.0000294597  -0.0000094729   0.0000009599  -0.0000348186
        0.0000011338   0.0000064804  -0.0000383407   0.0000297395  -0.0000082061
       -0.0002691586  -0.0001642011  -0.0000328978   0.0053042324  -0.0031107233
        0.0031447732  -0.0047801908  -0.0010743257   0.0082247791
       -0.0211813512  -0.0507938668   0.0081631280  -0.0589066488  -0.2434518860
        0.0208514919   0.0893303332   0.6282415253   0.0488649090   0.0515335767
       -0.1743161748  -0.1244996163  -0.0112325310  -0.0599167291  -0.0073064113
        0.0115740848   0.0063176672  -0.0141997628  -0.0004499439  -0.0052896879
        0.0015775276  -0.0016946969   0.0032294040   0.0005141857  -0.0000327279
       -0.0001489954  -0.0000926775  -0.0000243458   0.0003209943   0.0000182751
        0.0000969891   0.0001061385   0.0000884093  -0.0000565457  -0.0000473651
       -0.0000284413  -0.0000390681   0.0000257479  -0.0000241507   0.0000392320
       -0.0000674099  -0.0000080696   0.0000296001  -0.0000207693   0.0000024755
       -0.0001170135   0.0000083297   0.0000025039   0.0001267761   0.0000213006
       -0.0000169458  -0.0000330864   0.0000449638   0.0000246869   0.0000074768
       -0.0000065491  -0.0000168109  -0.0000097021   0.0000075953   0.0000020838
        0.0000124312   0.0000115275   0.0000033342  -0.0000025121  -0.0000042585
       -0.0000044980   0.0000149465   0.0000138340   0.0000115033   0.0000193668
       -0.0000119213  -0.0000114410  -0.0000000387   0.0000081233   0.0000026781
        0.0000059852  -0.0000003320  -0.0000007174  -0.0000078094  -0.0000052504
       -0.0000074454   0.0000058710   0.0000222439   0.0000090363  -0.0000393640
       -0.0000654802  -0.0000124390   0.0000245986   0.0000486462  -0.0000031089
        0.0000135382   0.0000547466   0.0000138648  -0.0000208446  -0.0001091645
       -0.0000516359   0.0001823353  -0.0001594265   0.0000687997  -0.0005350514
       -0.0019832882  -0.0002047351   0.0002974128   0.0000323715   0.0002008439
        0.0001581077   0.0000476607   0.0001693463  -0.0001780648   0.0000307081
        0.0000382124  -0.0000314254   0.0000458729  -0.0000330007   0.0000139171
        0.0000029067   0.0000004231   0.0001096474  -0.0000426101  -0.0000399205
        0.0000013130  -0.0000663744  -0.0000079793  -0.0000276630   0.0001608814
        0.0000634141   0.0000771674   0.0000343164  -0.0000107823   0.0000676773
        0.0000257588  -0.0000287492   0.0000362424  -0.0000801433   0.0000458859
       -0.0000751016  -0.0000103775  -0.0000727994   0.0000886524  -0.0001569400
        0.0000189857   0.0015210734   0.0006933794  -0.0011621754  -0.0193438368
       -0.0122522236   0.0256147468  -0.0444475938  -0.0894504307   0.0530234908
       -0.0008448744   0.0044240092   0.0030116145  -0.0031912070  -0.0049163990
        0.0001643572  -0.0000579668   0.0000311235   0.0000255998   0.0000471037
       -0.0000517627   0.0000002416  -0.0000017515  -0.0000166123   0.0000175634
        0.0000227853   0.0000014697  -0.0000011211  -0.0000060886   0.0000000620
        0.0000024103  -0.0000039929  -0.0000016899  -0.0000037084   0.0000005296
       -0.0000017901  -0.0000040785   0.0000047663  -0.0000023648  -0.0000004783
        0.0000040146  -0.0000030209   0.0000000287   0.0000065445  -0.0000026073
        0.0000048020   0.0000039508  -0.0000019606   0.0000075393  -0.0000009164
       -0.0000158236   0.0000000736   0.0000056417  -0.0000113251   0.0000023283
       -0.0000240158  -0.0000017514  -0.0000132670   0.0000787070   0.0000403568
        0.0000425510  -0.0000238620  -0.0001068219   0.0000436847   0.0000320201