98
 energy: -161.482338758650 gnorm: 0.000096018245 xtb: 6.7.1 (edcfbbe)
N           11.52403916035362        2.15206701917091        0.01628338189830
C           10.40584292191527        1.90138139345253        0.07231342667036
C            9.03633520756964        1.57136700777219        0.13602351521478
C            8.63652330783765        0.24161766284327        0.00226768319063
C            7.29054964197884       -0.10658309161236        0.06212998064195
N            6.86978305604696       -1.36464235441176       -0.02612336378492
C            5.58442788792170       -1.69445418497055        0.03126909254702
C            5.24639930519003       -3.11853704291108        0.03879854320563
C            5.96191795578924       -3.99219172937629       -0.77910675005335
C            5.67162419949948       -5.34305203072658       -0.77798363154602
C            4.67378688145559       -5.84110042063551        0.04367033301201
C            3.97767672524348       -4.98191974742595        0.87950759496813
C            4.26147921338817       -3.63021493531741        0.88331995593548
C            4.61747948104269       -0.67340956256336        0.11926178701807
C            3.18155119834061       -0.92432061775144        0.03683360559036
C            2.65241278058788       -1.82299713020934       -0.89102765355841
C            1.29052634235616       -2.02134411520803       -0.97112092122611
C            0.43195768179758       -1.31797601302323       -0.12986577646311
N           -0.95263510945170       -1.54135062571350       -0.19165021483773
C           -1.51974227229509       -2.74928019951023        0.16486219702105
C           -0.88602051862780       -3.95930135607373        0.40118978329664
C           -1.65993171911988       -5.01945754755032        0.83019620095776
C           -3.02356339098764       -4.85911598480446        1.05810973735502
C           -3.65322266732653       -3.64999094924950        0.84082539615665
C           -2.91157078554439       -2.57739582974308        0.35145812838253
C           -3.18765732196010       -1.19624631733322        0.05876823749193
C           -4.33825013195849       -0.39338248964301        0.02213680256779
C           -4.25013177354459        1.01903071051805       -0.07414957426208
C           -5.60150506800438        1.51314117361631       -0.07186898715462
C           -6.19719503548767        2.75956681936658       -0.25106726555162
C           -7.57398984816627        2.85557708341194       -0.24815024844772
C           -8.37969031838873        1.73026126761699       -0.10268653731918
C           -7.82062281704921        0.47475867947166        0.02827042292274
C           -6.43777922368637        0.37774025306439        0.04821436541974
N           -5.65954350716419       -0.76147345397617        0.10607627102541
C           -6.18951853051280       -2.04777818710066       -0.09528387792805
C           -5.79805948481968       -2.79179506552840       -1.20407676196866
C           -6.33930356521701       -4.04573952437806       -1.41558217433448
C           -7.27811974212660       -4.55802750556522       -0.53507887856865
C           -7.67407231345307       -3.81399503204903        0.56401482211132
C           -7.13308211498647       -2.56067723414418        0.78876934602301
C           -2.98036256381894        1.59511280487041       -0.24186471661343
C           -1.84186900325370        0.78744203663832       -0.49062572050782
C           -0.78567214187441        1.68067760818648       -0.88194424433745
C            0.49362183872904        1.52091385110652       -1.40940448203196
C            1.26542460362796        2.64048575513663       -1.64470210866790
C            0.78734018090509        3.91864869727658       -1.36992029703829
C           -0.50356292395523        4.11107199905335       -0.91781302323986
C           -1.29493650744664        2.99049160293668       -0.71678479036625
N           -2.61982470903903        2.92042792643201       -0.33035399707232
C           -3.32813468479896        4.01778249528619        0.18562068570529
C           -3.48824810949751        5.17228216274271       -0.57435511489918
C           -4.15774772845681        6.25832693096906       -0.03940831621502
C           -4.67099313547790        6.19895237987132        1.24575390991128
C           -4.51427756603086        5.04788841474242        2.00060370800122
C           -3.84033239443985        3.96009468391598        1.47873773675369
C           -1.94196704433255       -0.58873940997041       -0.23729715967575
C            0.95224936798836       -0.41412597684738        0.79255778356374
C            2.31377684721138       -0.21260259241987        0.86604898535245
N            5.01706147292394        0.58892481764125        0.25707342837373
C            6.29929122721435        0.93405624012613        0.25073762984147
C            6.72130898642959        2.25390868748008        0.39090492944774
C            8.07590940064751        2.57916416387832        0.33708180301230
C            8.47847462533216        3.92328490005383        0.48105372032290
N            8.78527762007918        5.02221607015773        0.60096714148998
H            9.37107956134021       -0.53573869331112       -0.13826770707448
H            6.73892786028261       -3.59691717644513       -1.41581697252416
H            6.22723644734699       -6.01056577793982       -1.41995301572258
H            4.44580274584239       -6.89650667970492        0.04117361080268
H            3.21383945068658       -5.36896080779328        1.53804257449833
H            3.73063877744741       -2.96980342124785        1.55310689120498
H            3.31044195116068       -2.35060482570897       -1.56467757817393
H            0.88004493420364       -2.69985231280471       -1.70400645264844
H            0.18073993831177       -4.06395923112064        0.27266087140831
H           -1.19678669240863       -5.97682219167261        1.01557435610421
H           -3.59956963738950       -5.69384246588063        1.42849563215178
H           -4.69768291593882       -3.54648425918043        1.07789477252613
H           -5.60749802045183        3.64404791024147       -0.41329044022565
H           -8.03477985310357        3.82335893106491       -0.37776085638951
H           -9.45386566139849        1.83682496144521       -0.11463820837615
H           -8.44202388034507       -0.40518558717482        0.09233248970800
H           -5.06957096601038       -2.38252833734597       -1.88754697376206
H           -6.03088022596044       -4.62298106545812       -2.27400019000935
H           -7.70057601369766       -5.53672591618976       -0.70441652522707
H           -8.40258142119043       -4.21285067436843        1.25413274651424
H           -7.41993453189664       -1.98477579751113        1.65615890390305
H            0.87677071787508        0.54678360996545       -1.66081077720740
H            2.26062456535328        2.52128048347867       -2.04531981061205
H            1.42536186611803        4.77347812020751       -1.53515170147888
H           -0.88160240986264        5.10390816068725       -0.72904852020208
H           -3.11143224721695        5.20223290599097       -1.58570160226452
H           -4.28527086002273        7.15154938030963       -0.63255142486502
H           -5.19485253943387        7.04812436529742        1.65729479364083
H           -4.91373938308376        4.99892614210764        3.00224493811025
H           -3.71124956109740        3.05981116654006        2.06055348143577
H            0.28279825868917        0.12808237008912        1.44285517189614
H            2.72270439391358        0.49156693213344        1.57376687623400
H            5.98058391191875        3.02530628768241        0.53231574621263
