 Entering Gaussian System
 *********************************************
 Gaussian 98:
 frequency output generated by the xtb code
 *********************************************
                         Standard orientation:
 --------------------------------------------------------------------
  Center     Atomic     Atomic              Coordinates (Angstroms)
  Number     Number      Type              X           Y           Z
 --------------------------------------------------------------------
    1          6             0      -10.026802    0.028748    1.248514
    2          6             0       -9.136626    0.020867   -0.008316
    3          6             0      -10.007164    0.025515   -1.278890
    4          6             0       -8.279009    1.269096    0.004764
    5          6             0       -8.891089    2.515116    0.014431
    6          6             0       -8.164831    3.689275    0.081835
    7          6             0       -6.784906    3.626178    0.176754
    8          6             0       -6.151550    2.403438    0.167430
    9          6             0       -6.879452    1.212272    0.045375
   10          7             0       -6.209680    0.000088    0.010667
   11          6             0       -4.797299   -0.009058    0.014080
   12          6             0       -4.090826   -0.573734    1.094269
   13          6             0       -2.728225   -0.575263    1.109386
   14          6             0       -1.982447   -0.026138    0.019160
   15          6             0       -0.619009   -0.032601    0.020009
   16          6             0        0.618891   -0.035000    0.017627
   17          6             0        1.982311   -0.032011    0.011519
   18          6             0        2.730962   -0.580992    1.099870
   19          6             0        4.093507   -0.579709    1.081141
   20          6             0        4.797205   -0.016082   -0.001443
   21          7             0        6.209516   -0.003660   -0.006844
   22          6             0        6.898911   -1.204658   -0.045586
   23          6             0        6.189689   -2.408261   -0.154626
   24          6             0        6.843371   -3.620229   -0.168193
   25          6             0        8.225239   -3.659852   -0.090445
   26          6             0        8.932417   -2.473458   -0.035683
   27          6             0        8.299651   -1.237849   -0.022173
   28          6             0        9.136445    0.024531   -0.025146
   29          6             0       10.008108    0.027264   -1.294943
   30          6             0       10.025470    0.038833    1.232455
   31          6             0        8.275639    1.270602   -0.016644
   32          6             0        8.884614    2.518173   -0.010974
   33          6             0        8.155468    3.690745    0.052709
   34          6             0        6.775739    3.624482    0.148167
   35          6             0        6.145448    2.400139    0.142881
   36          6             0        6.876230    1.210381    0.024252
   37          6             0        4.077177    0.537517   -1.078542
   38          6             0        2.714774    0.522891   -1.084981
   39          6             0       -2.717733    0.531937   -1.073806
   40          6             0       -4.080127    0.547138   -1.063541
   41          6             0       -6.895967   -1.202593   -0.031590
   42          6             0       -6.183690   -2.404099   -0.143749
   43          6             0       -6.834312   -3.617659   -0.161218
   44          6             0       -8.216107   -3.660994   -0.084319
   45          6             0       -8.926271   -2.476546   -0.026263
   46          6             0       -8.296622   -1.239391   -0.008748
   47          1             0      -10.659991    0.911201    1.270445
   48          1             0       -9.405243    0.030004    2.142021
   49          1             0      -10.665938   -0.849283    1.276265
   50          1             0      -10.633461    0.912410   -1.316250
   51          1             0      -10.652073   -0.848101   -1.311023
   52          1             0       -9.371804    0.015773   -2.162593
   53          1             0       -9.967948    2.577378   -0.027359
   54          1             0       -8.672528    4.641653    0.080579
   55          1             0       -6.200386    4.529490    0.265487
   56          1             0       -5.078681    2.362117    0.266990
   57          1             0       -4.651316   -0.983290    1.923217
   58          1             0       -2.185810   -0.983262    1.949197
   59          1             0        2.190740   -0.987922    1.941611
   60          1             0        4.656103   -0.988234    1.909168
   61          1             0        5.115128   -2.385257   -0.240935
   62          1             0        6.273100   -4.533519   -0.246951
   63          1             0        8.748888   -4.603551   -0.092897
   64          1             0       10.010619   -2.517499   -0.007500
   65          1             0       10.631807    0.915871   -1.334895
   66          1             0        9.373599    0.012492   -2.179186
   67          1             0       10.655670   -0.844512   -1.323378
   68          1             0       10.666192   -0.837909    1.264125
   69          1             0       10.656986    0.922553    1.251574
   70          1             0        9.403105    0.042345    2.125399
   71          1             0        9.961313    2.582981   -0.052946
   72          1             0        8.660773    4.644381    0.048283
   73          1             0        6.188937    4.526570    0.234242
   74          1             0        5.072738    2.356614    0.243017
   75          1             0        4.627609    0.952264   -1.911632
   76          1             0        2.162105    0.922848   -1.921955
   77          1             0       -2.167241    0.933554   -1.911421
   78          1             0       -4.632710    0.963952   -1.894170
   79          1             0       -5.109155   -2.378250   -0.229428
   80          1             0       -6.261669   -4.529251   -0.242397
   81          1             0       -8.737376   -4.605995   -0.089919
   82          1             0      -10.004371   -2.523374    0.001292
 --------------------------------------------------------------------
     1 basis functions        1 primitive gaussians
     1 alpha electrons        1 beta electrons
 
 Harmonic frequencies (cm**-1), IR intensities (km*mol⁻¹),
 Raman scattering activities (A**4/amu), Raman depolarization ratios,
 reduced masses (AMU), force constants (mDyne/A) and normal coordinates:
                      1                      2                      3
                        a                      a                      a 
 Frequencies --     7.9783                10.8335                11.0465
 Red. masses --    10.9190                10.5324                10.7682
 Frc consts  --     0.0000                 0.0000                 0.0000
 IR Inten    --     0.1252                 0.1769                 1.8130
 Raman Activ --     0.0000                 0.0000                 0.0000
 Depolar     --     0.0000                 0.0000                 0.0000
 Atom AN      X      Y      Z        X      Y      Z        X      Y      Z
   1   6     0.03   0.15   0.06     0.10  -0.05   0.23     0.00  -0.10   0.01
   2   6     0.00   0.11   0.05    -0.00  -0.04   0.16    -0.00  -0.00   0.00
   3   6    -0.02   0.15   0.06    -0.11  -0.05   0.23    -0.00   0.09   0.01
   4   6     0.06   0.07   0.03    -0.02  -0.02   0.09    -0.00  -0.00   0.10
   5   6     0.11   0.10   0.04    -0.04  -0.03   0.12    -0.00  -0.00   0.19
   6   6     0.17   0.07   0.03    -0.06  -0.02   0.06    -0.00  -0.01   0.27
   7   6     0.16   0.01   0.00    -0.05   0.00  -0.04     0.00  -0.01   0.25
   8   6     0.11  -0.02  -0.01    -0.03   0.01  -0.07     0.00  -0.01   0.16
   9   6     0.06   0.01   0.00    -0.02   0.00  -0.01    -0.00  -0.00   0.08
  10   7     0.00  -0.02  -0.01    -0.00   0.01  -0.05    -0.00  -0.00  -0.00
  11   6     0.00  -0.08  -0.03    -0.00   0.02  -0.10    -0.00   0.00  -0.00
  12   6    -0.00  -0.11  -0.04     0.04   0.03  -0.12    -0.00  -0.04  -0.02
  13   6    -0.00  -0.15  -0.06     0.04   0.04  -0.16    -0.00  -0.03  -0.02
  14   6     0.00  -0.17  -0.07    -0.00   0.05  -0.18    -0.00   0.00  -0.00
  15   6     0.00  -0.19  -0.07    -0.00   0.06  -0.21    -0.00   0.00  -0.01
  16   6     0.00  -0.19  -0.07    -0.00   0.06  -0.21    -0.00   0.00  -0.01
  17   6    -0.00  -0.17  -0.07     0.00   0.05  -0.18    -0.00   0.00  -0.00
  18   6     0.00  -0.15  -0.06    -0.04   0.04  -0.16    -0.00   0.04   0.01
  19   6     0.01  -0.11  -0.05    -0.04   0.03  -0.12    -0.00   0.04   0.02
  20   6    -0.00  -0.08  -0.03     0.00   0.02  -0.10    -0.00   0.00  -0.00
  21   7    -0.00  -0.02  -0.01     0.00   0.01  -0.05    -0.00   0.00  -0.00
  22   6     0.05   0.01   0.00    -0.02  -0.00  -0.01    -0.00  -0.00   0.08
  23   6     0.11  -0.02  -0.01    -0.03   0.01  -0.07     0.00  -0.01   0.15
  24   6     0.16   0.01   0.00    -0.05   0.00  -0.03     0.00  -0.01   0.25
  25   6     0.16   0.07   0.03    -0.05  -0.02   0.07     0.00  -0.01   0.27
  26   6     0.11   0.10   0.04    -0.04  -0.03   0.12    -0.00  -0.00   0.19
  27   6     0.05   0.07   0.03    -0.02  -0.02   0.09    -0.00  -0.00   0.09
  28   6    -0.00   0.11   0.05     0.00  -0.04   0.16    -0.00  -0.00   0.00
  29   6     0.02   0.15   0.07     0.11  -0.05   0.23     0.00  -0.10   0.01
  30   6    -0.03   0.15   0.07    -0.10  -0.05   0.23    -0.00   0.09   0.01
  31   6    -0.06   0.07   0.03     0.02  -0.02   0.09     0.00  -0.00  -0.09
  32   6    -0.11   0.10   0.04     0.04  -0.03   0.13     0.00  -0.00  -0.18
  33   6    -0.17   0.07   0.03     0.06  -0.02   0.08     0.00   0.00  -0.27
  34   6    -0.16   0.01  -0.00     0.05   0.00  -0.02     0.00   0.01  -0.25
  35   6    -0.11  -0.02  -0.01     0.03   0.01  -0.06     0.00   0.01  -0.16
  36   6    -0.06   0.01   0.00     0.02   0.00  -0.01     0.00   0.00  -0.08
  37   6    -0.01  -0.11  -0.05     0.04   0.03  -0.12    -0.00  -0.04  -0.02
  38   6    -0.00  -0.15  -0.06     0.04   0.04  -0.16    -0.00  -0.03  -0.02
  39   6     0.01  -0.15  -0.06    -0.04   0.04  -0.16    -0.00   0.04   0.01
  40   6     0.01  -0.11  -0.05    -0.04   0.03  -0.12    -0.00   0.04   0.02
  41   6    -0.05   0.01   0.00     0.02  -0.00  -0.00     0.00   0.00  -0.08
  42   6    -0.11  -0.02  -0.01     0.03   0.01  -0.06     0.00   0.01  -0.16
  43   6    -0.16   0.01   0.00     0.05   0.00  -0.02     0.00   0.01  -0.25
  44   6    -0.16   0.07   0.03     0.05  -0.02   0.08     0.00   0.01  -0.27
  45   6    -0.11   0.10   0.04     0.04  -0.03   0.13     0.00   0.00  -0.18
  46   6    -0.05   0.07   0.03     0.02  -0.02   0.09     0.00  -0.00  -0.09
  47   1     0.02   0.05   0.02     0.03  -0.02   0.08    -0.00  -0.03   0.02
  48   1     0.01   0.04   0.02     0.05  -0.01   0.05     0.00  -0.05   0.00
  49   1    -0.00   0.05   0.02     0.03  -0.02   0.08     0.00  -0.03  -0.02
  50   1     0.00   0.05   0.02    -0.04  -0.02   0.08    -0.00   0.03   0.02
  51   1    -0.02   0.05   0.02    -0.03  -0.02   0.08    -0.00   0.03  -0.02
  52   1    -0.01   0.04   0.01    -0.05  -0.01   0.05    -0.00   0.05   0.00
  53   1     0.03   0.04   0.02    -0.01  -0.02   0.06    -0.00   0.00   0.06
  54   1     0.06   0.03   0.01    -0.02  -0.01   0.03    -0.00  -0.00   0.10
  55   1     0.06  -0.01  -0.00    -0.02   0.00  -0.02     0.00  -0.01   0.09
  56   1     0.03  -0.02  -0.01    -0.01   0.01  -0.04     0.00  -0.01   0.04
  57   1    -0.00  -0.03  -0.01     0.02   0.01  -0.03    -0.00  -0.02  -0.01
  58   1    -0.00  -0.05  -0.02     0.02   0.01  -0.05     0.00  -0.02  -0.01
  59   1     0.00  -0.05  -0.02    -0.02   0.01  -0.05    -0.00   0.02   0.01
  60   1     0.00  -0.03  -0.01    -0.02   0.01  -0.03    -0.00   0.02   0.01
  61   1     0.03  -0.02  -0.01    -0.01   0.01  -0.04     0.00  -0.00   0.04
  62   1     0.06  -0.00  -0.00    -0.02   0.00  -0.02     0.00  -0.00   0.09
  63   1     0.06   0.03   0.01    -0.02  -0.01   0.03     0.00  -0.00   0.10
  64   1     0.03   0.04   0.02    -0.01  -0.02   0.06    -0.00   0.00   0.06
  65   1    -0.00   0.05   0.02     0.04  -0.02   0.08     0.00  -0.03  -0.02
  66   1     0.01   0.04   0.02     0.05  -0.01   0.05     0.00  -0.05   0.00
  67   1     0.02   0.05   0.02     0.03  -0.02   0.08     0.00  -0.03   0.02
  68   1     0.00   0.05   0.02    -0.03  -0.02   0.08    -0.00   0.03   0.02
  69   1    -0.02   0.05   0.02    -0.03  -0.02   0.08    -0.00   0.03  -0.02
  70   1    -0.01   0.04   0.02    -0.05  -0.01   0.05    -0.00   0.05   0.00
  71   1    -0.03   0.04   0.02     0.01  -0.01   0.06     0.00  -0.00  -0.06
  72   1    -0.06   0.03   0.01     0.02  -0.01   0.03     0.00   0.00  -0.10
  73   1    -0.06  -0.01  -0.00     0.02   0.00  -0.02     0.00   0.01  -0.09
  74   1    -0.03  -0.02  -0.01     0.01   0.01  -0.04     0.00   0.01  -0.04
  75   1    -0.00  -0.03  -0.01     0.02   0.01  -0.03    -0.00  -0.02  -0.01
  76   1    -0.00  -0.05  -0.02     0.02   0.01  -0.05     0.00  -0.02  -0.01
  77   1     0.00  -0.05  -0.02    -0.02   0.01  -0.05    -0.00   0.02   0.01
  78   1     0.00  -0.03  -0.01    -0.02   0.01  -0.03    -0.00   0.02   0.01
  79   1    -0.03  -0.02  -0.01     0.01   0.01  -0.04     0.00   0.01  -0.04
  80   1    -0.06  -0.00  -0.00     0.02   0.00  -0.02     0.00   0.01  -0.09
  81   1    -0.06   0.03   0.01     0.02  -0.01   0.03     0.00   0.00  -0.10
  82   1    -0.03   0.04   0.02     0.01  -0.02   0.06     0.00  -0.00  -0.06
                      4                      5                      6
                        a                      a                      a 
 Frequencies --    19.2816                23.9735                28.7568
 Red. masses --    10.0303                11.0310                10.5143
 Frc consts  --     0.0000                 0.0000                 0.0000
 IR Inten    --     0.0283                 0.0089                 0.0033
 Raman Activ --     0.0000                 0.0000                 0.0000
 Depolar     --     0.0000                 0.0000                 0.0000
 Atom AN      X      Y      Z        X      Y      Z        X      Y      Z
   1   6     0.16  -0.02   0.25    -0.01  -0.09  -0.02     0.15  -0.00   0.17
   2   6    -0.00  -0.01   0.13    -0.00  -0.04  -0.01     0.00   0.00   0.06
   3   6    -0.17  -0.02   0.24     0.01  -0.08  -0.02    -0.15   0.00   0.16
   4   6    -0.01   0.00   0.02    -0.06   0.00  -0.01    -0.00   0.01  -0.03
   5   6    -0.03  -0.01   0.06    -0.12  -0.03  -0.02    -0.01   0.00  -0.04
   6   6    -0.04   0.00  -0.03    -0.18   0.01  -0.02    -0.02   0.01  -0.11
   7   6    -0.03   0.02  -0.15    -0.18   0.08  -0.00    -0.01   0.02  -0.17
   8   6    -0.01   0.03  -0.18    -0.12   0.11   0.01    -0.01   0.03  -0.15
   9   6    -0.01   0.02  -0.09    -0.06   0.07   0.01    -0.00   0.02  -0.08
  10   7     0.00   0.03  -0.13     0.00   0.11   0.03     0.00   0.02  -0.06
  11   6     0.00   0.02  -0.11     0.00   0.16   0.05     0.00   0.00   0.01
  12   6    -0.02   0.01  -0.10    -0.00   0.17   0.06    -0.07  -0.01   0.05
  13   6    -0.02   0.00  -0.08    -0.00   0.15   0.06    -0.07  -0.04   0.14
  14   6     0.00   0.00  -0.06     0.00   0.12   0.04     0.00  -0.05   0.18
  15   6     0.00   0.00  -0.02     0.00   0.05   0.01     0.00  -0.07   0.24
  16   6     0.00  -0.00   0.02     0.00  -0.05  -0.01     0.00  -0.07   0.24
  17   6     0.00  -0.00   0.06     0.00  -0.12  -0.04     0.00  -0.05   0.18
  18   6    -0.02  -0.00   0.07    -0.00  -0.15  -0.06     0.07  -0.04   0.14
  19   6    -0.02  -0.01   0.10    -0.00  -0.17  -0.06     0.07  -0.01   0.05
  20   6     0.00  -0.02   0.11     0.00  -0.16  -0.05    -0.00   0.00   0.01
  21   7     0.00  -0.03   0.13    -0.00  -0.11  -0.03    -0.00   0.02  -0.06
  22   6     0.01  -0.02   0.09     0.06  -0.07  -0.01    -0.01   0.02  -0.08
  23   6     0.02  -0.03   0.18     0.12  -0.11  -0.01    -0.01   0.03  -0.15
  24   6     0.03  -0.02   0.15     0.18  -0.07  -0.00    -0.02   0.02  -0.17
  25   6     0.04  -0.00   0.03     0.18  -0.00   0.01    -0.02   0.01  -0.11
  26   6     0.03   0.01  -0.05     0.12   0.03   0.02    -0.02   0.00  -0.04
  27   6     0.01  -0.00  -0.02     0.06  -0.00   0.01    -0.01   0.01  -0.03
  28   6    -0.00   0.01  -0.13    -0.00   0.04   0.02    -0.00   0.00   0.06
  29   6    -0.17   0.02  -0.24     0.01   0.09   0.02     0.15   0.00   0.16
  30   6     0.16   0.02  -0.24    -0.01   0.09   0.02    -0.15  -0.00   0.17
  31   6    -0.01  -0.00  -0.02    -0.06  -0.00   0.01     0.00   0.01  -0.03
  32   6    -0.03   0.01  -0.05    -0.13   0.03   0.02     0.01   0.00  -0.04
  33   6    -0.04  -0.00   0.03    -0.18  -0.01   0.02     0.02   0.01  -0.11
  34   6    -0.03  -0.02   0.15    -0.18  -0.08   0.00     0.02   0.02  -0.17
  35   6    -0.01  -0.03   0.18    -0.12  -0.11  -0.01     0.01   0.03  -0.15
  36   6    -0.01  -0.02   0.09    -0.06  -0.07  -0.01     0.00   0.02  -0.08
  37   6     0.02  -0.01   0.10     0.00  -0.17  -0.06    -0.07  -0.01   0.05
  38   6     0.02  -0.00   0.07     0.00  -0.15  -0.06    -0.07  -0.04   0.14
  39   6     0.02   0.00  -0.07     0.00   0.15   0.06     0.07  -0.04   0.14
  40   6     0.02   0.01  -0.10     0.00   0.17   0.06     0.07  -0.02   0.05
  41   6     0.01   0.02  -0.09     0.06   0.07   0.01     0.00   0.02  -0.08
  42   6     0.01   0.03  -0.18     0.12   0.11   0.01     0.01   0.03  -0.15
  43   6     0.03   0.02  -0.15     0.18   0.07  -0.00     0.02   0.02  -0.17
  44   6     0.04   0.00  -0.03     0.18   0.00  -0.02     0.02   0.01  -0.11
  45   6     0.02  -0.01   0.05     0.12  -0.03  -0.02     0.01   0.00  -0.04
  46   6     0.01   0.00   0.02     0.06   0.00  -0.01     0.01   0.01  -0.03
  47   1     0.05  -0.01   0.10    -0.02  -0.03  -0.01     0.04  -0.00   0.07
  48   1     0.08  -0.00   0.05    -0.01  -0.02  -0.00     0.07   0.00   0.03
  49   1     0.05  -0.01   0.09     0.01  -0.03  -0.01     0.05  -0.00   0.07
  50   1    -0.05  -0.01   0.09    -0.01  -0.03  -0.01    -0.05  -0.00   0.07
  51   1    -0.05  -0.01   0.09     0.02  -0.03  -0.01    -0.04  -0.00   0.07
  52   1    -0.08  -0.00   0.05     0.01  -0.02  -0.00    -0.07   0.00   0.03
  53   1    -0.01  -0.01   0.04    -0.04  -0.02  -0.01    -0.00  -0.00   0.00
  54   1    -0.01  -0.00  -0.00    -0.07  -0.01  -0.01    -0.01   0.00  -0.04
  55   1    -0.01   0.01  -0.06    -0.07   0.03  -0.00    -0.00   0.01  -0.07
  56   1    -0.00   0.01  -0.08    -0.03   0.05   0.01    -0.00   0.01  -0.06
  57   1    -0.01   0.00  -0.03    -0.00   0.05   0.02    -0.04  -0.00   0.00
  58   1    -0.01  -0.00  -0.02    -0.00   0.04   0.02    -0.04  -0.01   0.05
  59   1    -0.01   0.00   0.02    -0.00  -0.04  -0.02     0.04  -0.01   0.05
  60   1    -0.01  -0.00   0.03    -0.00  -0.05  -0.02     0.04  -0.00   0.00
  61   1     0.00  -0.01   0.08     0.03  -0.05  -0.01    -0.00   0.01  -0.06
  62   1     0.01  -0.01   0.07     0.07  -0.03  -0.00    -0.01   0.01  -0.07
  63   1     0.01   0.00   0.00     0.07   0.01   0.01    -0.01   0.00  -0.04
  64   1     0.01   0.01  -0.04     0.04   0.02   0.01    -0.01  -0.00   0.00
  65   1    -0.05   0.01  -0.09    -0.01   0.03   0.01     0.05  -0.00   0.07
  66   1    -0.08   0.00  -0.05     0.01   0.02   0.01     0.07   0.00   0.03
  67   1    -0.05   0.01  -0.09     0.02   0.03   0.01     0.04  -0.00   0.07
  68   1     0.05   0.01  -0.09     0.01   0.03   0.01    -0.05  -0.00   0.07
  69   1     0.05   0.01  -0.09    -0.02   0.03   0.01    -0.04  -0.00   0.07
  70   1     0.08   0.00  -0.05    -0.01   0.02   0.01    -0.07   0.00   0.03
  71   1    -0.01   0.01  -0.04    -0.04   0.02   0.01     0.00  -0.00   0.00
  72   1    -0.01   0.00   0.00    -0.07   0.01   0.01     0.01   0.00  -0.03
  73   1    -0.01  -0.01   0.06    -0.07  -0.03  -0.00     0.01   0.01  -0.07
  74   1    -0.00  -0.01   0.08    -0.03  -0.05  -0.01     0.00   0.01  -0.06
  75   1     0.01  -0.00   0.03     0.00  -0.05  -0.02    -0.04  -0.00   0.00
  76   1     0.01   0.00   0.02     0.00  -0.04  -0.02    -0.04  -0.02   0.05
  77   1     0.01  -0.00  -0.02     0.00   0.04   0.02     0.04  -0.02   0.05
  78   1     0.01   0.00  -0.03     0.00   0.05   0.02     0.04  -0.00   0.00
  79   1     0.00   0.01  -0.08     0.03   0.05   0.01     0.00   0.01  -0.06
  80   1     0.01   0.01  -0.07     0.07   0.03  -0.00     0.01   0.01  -0.07
  81   1     0.01  -0.00  -0.00     0.07  -0.01  -0.01     0.01   0.00  -0.04
  82   1     0.01  -0.01   0.04     0.04  -0.02  -0.01     0.00  -0.00   0.00
                      7                      8                      9
                        a                      a                      a 
 Frequencies --    56.8327                56.9126                66.5035
 Red. masses --     9.9360                10.5509                10.9950
 Frc consts  --     0.0000                 0.0000                 0.0000
 IR Inten    --     0.0492                 0.0082                 0.1315
 Raman Activ --     0.0000                 0.0000                 0.0000
 Depolar     --     0.0000                 0.0000                 0.0000
 Atom AN      X      Y      Z        X      Y      Z        X      Y      Z
   1   6    -0.04  -0.08  -0.04    -0.12   0.02  -0.10     0.10   0.03   0.08
   2   6     0.01  -0.00  -0.01    -0.01  -0.00  -0.01    -0.00  -0.00   0.00
   3   6     0.07   0.07  -0.04     0.11  -0.05  -0.10    -0.10   0.03   0.07
   4   6     0.01   0.00   0.07    -0.02   0.00   0.02     0.04  -0.03  -0.04
   5   6     0.00  -0.00   0.20    -0.03  -0.01   0.10     0.08  -0.01  -0.10
   6   6     0.01  -0.00   0.20    -0.04  -0.00   0.14     0.12  -0.03  -0.10
   7   6     0.02   0.00   0.03    -0.03   0.01   0.10     0.11  -0.08  -0.01
   8   6     0.02   0.00  -0.09    -0.02   0.01  -0.01     0.07  -0.10   0.06
   9   6     0.01   0.01  -0.03    -0.01   0.01  -0.05     0.03  -0.08   0.03
  10   7     0.01   0.01  -0.07    -0.00   0.02  -0.16    -0.00  -0.11   0.06
  11   6     0.01   0.01  -0.07    -0.00   0.02  -0.16    -0.00  -0.09   0.02
  12   6    -0.00   0.22   0.04    -0.01  -0.07  -0.20     0.05  -0.02   0.01
  13   6    -0.00   0.23   0.05    -0.02  -0.08  -0.19     0.06   0.13   0.01
  14   6     0.00   0.01  -0.06     0.00   0.02  -0.12    -0.00   0.22   0.01
  15   6     0.00   0.01  -0.03     0.00   0.02  -0.07     0.00   0.34   0.02
  16   6     0.00  -0.01   0.03     0.00  -0.02   0.07     0.00   0.34   0.02
  17   6     0.00  -0.01   0.05     0.00  -0.02   0.12     0.00   0.22   0.01
  18   6    -0.01   0.21   0.17    -0.01  -0.12   0.08    -0.06   0.13   0.01
  19   6    -0.01   0.20   0.18    -0.01  -0.11   0.10    -0.05  -0.02   0.01
  20   6    -0.01  -0.01   0.07     0.01  -0.02   0.16     0.00  -0.09   0.01
  21   7    -0.01  -0.01   0.07     0.00  -0.02   0.16     0.00  -0.11   0.06
  22   6    -0.01  -0.01   0.03     0.01  -0.01   0.05     0.04  -0.08   0.02
  23   6    -0.02  -0.00   0.09     0.02  -0.01   0.01     0.07  -0.10   0.05
  24   6    -0.02  -0.00  -0.03     0.03  -0.01  -0.10     0.12  -0.08  -0.01
  25   6    -0.01   0.00  -0.20     0.04   0.00  -0.14     0.12  -0.03  -0.10
  26   6    -0.01  -0.00  -0.20     0.03   0.01  -0.10     0.09  -0.01  -0.10
  27   6    -0.01  -0.00  -0.07     0.01  -0.00  -0.02     0.04  -0.03  -0.04
  28   6    -0.01   0.00   0.01     0.01   0.00   0.01     0.00  -0.00   0.00
  29   6     0.04   0.08   0.04     0.13  -0.02   0.10     0.10   0.03   0.07
  30   6    -0.06  -0.07   0.04    -0.11   0.04   0.10    -0.09   0.03   0.07
  31   6    -0.02   0.00   0.03    -0.01  -0.00  -0.07    -0.04  -0.03  -0.04
  32   6    -0.02   0.00   0.06    -0.02   0.00  -0.21    -0.08  -0.01  -0.09
  33   6    -0.03  -0.00   0.03    -0.02   0.00  -0.24    -0.12  -0.03  -0.10
  34   6    -0.04  -0.00  -0.05    -0.01  -0.00  -0.08    -0.11  -0.08  -0.01
  35   6    -0.03  -0.01  -0.06     0.00  -0.01   0.07    -0.07  -0.10   0.05
  36   6    -0.02  -0.01   0.01    -0.00  -0.01   0.06    -0.03  -0.08   0.03
  37   6     0.00  -0.22  -0.04     0.01   0.07   0.20     0.06  -0.02   0.01
  38   6     0.00  -0.23  -0.05     0.02   0.08   0.18     0.06   0.13   0.01
  39   6     0.01  -0.21  -0.18     0.01   0.12  -0.08    -0.06   0.13   0.01
  40   6     0.01  -0.20  -0.18     0.01   0.12  -0.10    -0.06  -0.02   0.01
  41   6     0.02   0.01  -0.01     0.00   0.01  -0.06    -0.04  -0.08   0.03
  42   6     0.03   0.01   0.06    -0.00   0.01  -0.08    -0.07  -0.10   0.05
  43   6     0.04   0.00   0.06     0.01   0.00   0.08    -0.12  -0.08  -0.01
  44   6     0.03   0.00  -0.03     0.01  -0.00   0.24    -0.12  -0.03  -0.10
  45   6     0.02  -0.00  -0.06     0.01  -0.00   0.21    -0.09  -0.01  -0.10
  46   6     0.02  -0.00  -0.03     0.00   0.00   0.07    -0.04  -0.03  -0.04
  47   1    -0.02  -0.03  -0.01    -0.04   0.01  -0.05     0.04   0.02   0.04
  48   1    -0.02  -0.03  -0.01    -0.06   0.01  -0.01     0.05   0.00   0.01
  49   1    -0.01  -0.03  -0.03    -0.04   0.01  -0.04     0.02   0.01   0.04
  50   1     0.02   0.02  -0.01     0.03  -0.02  -0.05    -0.02   0.01   0.04
  51   1     0.02   0.02  -0.03     0.04  -0.02  -0.04    -0.04   0.02   0.04
  52   1     0.03   0.03  -0.00     0.06  -0.02  -0.01    -0.05   0.00   0.01
  53   1    -0.00   0.00   0.09    -0.01  -0.00   0.03     0.02   0.01  -0.04
  54   1     0.00  -0.00   0.09    -0.01  -0.00   0.06     0.04  -0.00  -0.04
  55   1     0.01  -0.00  -0.00    -0.01   0.00   0.04     0.04  -0.03   0.00
  56   1     0.01  -0.00  -0.07    -0.00   0.01  -0.01     0.02  -0.04   0.04
  57   1    -0.00   0.11   0.03    -0.01  -0.04  -0.07     0.03  -0.02   0.00
  58   1    -0.00   0.12   0.04    -0.01  -0.04  -0.06     0.03   0.05   0.00
  59   1    -0.00   0.11   0.07    -0.01  -0.06   0.01    -0.03   0.05   0.00
  60   1    -0.00   0.10   0.07    -0.01  -0.05   0.02    -0.03  -0.02   0.00
  61   1    -0.01   0.00   0.07     0.01  -0.01   0.01     0.02  -0.04   0.04
  62   1    -0.01   0.00   0.00     0.01  -0.00  -0.04     0.04  -0.03   0.00
  63   1    -0.00   0.00  -0.09     0.01   0.00  -0.06     0.05  -0.00  -0.04
  64   1    -0.00  -0.00  -0.09     0.01   0.00  -0.03     0.03   0.01  -0.04
  65   1     0.01   0.03   0.03     0.04  -0.01   0.04     0.02   0.01   0.03
  66   1     0.02   0.03   0.00     0.06  -0.01   0.01     0.05   0.00   0.01
  67   1     0.02   0.03   0.01     0.04  -0.00   0.05     0.04   0.02   0.04
  68   1    -0.02  -0.02   0.01    -0.03   0.01   0.05    -0.02   0.01   0.03
  69   1    -0.02  -0.02   0.03    -0.04   0.02   0.04    -0.04   0.02   0.04
  70   1    -0.03  -0.03   0.01    -0.06   0.02   0.01    -0.05   0.00   0.01
  71   1    -0.01   0.00   0.03    -0.01   0.00  -0.09    -0.02   0.01  -0.04
  72   1    -0.01   0.00   0.01    -0.01   0.00  -0.11    -0.04  -0.00  -0.04
  73   1    -0.01  -0.00  -0.03    -0.00  -0.00  -0.02    -0.04  -0.03   0.00
  74   1    -0.01  -0.00  -0.03     0.00  -0.00   0.06    -0.02  -0.04   0.04
  75   1     0.00  -0.11  -0.03     0.01   0.04   0.07     0.03  -0.02   0.00
  76   1     0.00  -0.12  -0.04     0.01   0.04   0.06     0.03   0.05   0.00
  77   1     0.00  -0.11  -0.07     0.01   0.06  -0.01    -0.03   0.05   0.00
  78   1     0.00  -0.10  -0.07     0.01   0.05  -0.02    -0.03  -0.02   0.00
  79   1     0.01   0.00   0.03    -0.00   0.00  -0.06    -0.02  -0.04   0.04
  80   1     0.01   0.00   0.03     0.00   0.00   0.02    -0.04  -0.03   0.00
  81   1     0.01  -0.00  -0.02     0.01  -0.00   0.11    -0.05  -0.00  -0.05
  82   1     0.01  -0.00  -0.03     0.00  -0.00   0.09    -0.03   0.01  -0.04
                     10                     11                     12
                        a                      a                      a 
 Frequencies --    69.8899                77.0637                86.4127
 Red. masses --    10.9394                 9.6475                11.1285
 Frc consts  --     0.0000                 0.0000                 0.0000
 IR Inten    --     0.1004                 1.9997                 0.8162
 Raman Activ --     0.0000                 0.0000                 0.0000
 Depolar     --     0.0000                 0.0000                 0.0000
 Atom AN      X      Y      Z        X      Y      Z        X      Y      Z
   1   6    -0.09   0.01  -0.07    -0.00  -0.10  -0.00     0.16   0.03   0.00
   2   6    -0.00  -0.00  -0.01    -0.00   0.00   0.00     0.15  -0.00   0.00
   3   6     0.08   0.01  -0.07    -0.00   0.10  -0.00     0.16  -0.03  -0.00
   4   6     0.01  -0.01   0.03    -0.00   0.00   0.06     0.15   0.01  -0.02
   5   6     0.03  -0.01   0.16    -0.01  -0.00   0.16     0.16   0.02  -0.05
   6   6     0.04  -0.02   0.18    -0.00  -0.00   0.10     0.18   0.01  -0.03
   7   6     0.05  -0.04   0.03     0.01   0.00  -0.10     0.18  -0.01   0.04
   8   6     0.04  -0.04  -0.12     0.01   0.01  -0.16     0.16  -0.02   0.07
   9   6     0.02  -0.03  -0.11    -0.00   0.00  -0.04     0.14   0.00   0.02
  10   7    -0.00  -0.04  -0.23    -0.01  -0.00  -0.00     0.12  -0.00  -0.00
  11   6    -0.00  -0.05  -0.15    -0.00  -0.00  -0.00     0.10  -0.00  -0.00
  12   6    -0.07  -0.02  -0.09    -0.01   0.21   0.11     0.07  -0.00   0.01
  13   6    -0.07   0.06   0.04    -0.00   0.20   0.10     0.06   0.00   0.02
  14   6     0.00   0.11   0.11    -0.01   0.00   0.00     0.02   0.01  -0.00
  15   6     0.00   0.18   0.21    -0.00   0.00   0.00     0.00   0.01  -0.00
  16   6     0.00   0.18   0.21    -0.00   0.00   0.00    -0.01   0.01  -0.00
  17   6     0.00   0.11   0.11    -0.01   0.00   0.00    -0.02   0.01  -0.00
  18   6     0.07   0.06   0.04    -0.00  -0.20  -0.10    -0.06  -0.00   0.01
  19   6     0.07  -0.02  -0.09    -0.00  -0.21  -0.11    -0.07  -0.01   0.01
  20   6     0.00  -0.05  -0.15    -0.00  -0.00  -0.00    -0.10  -0.00  -0.00
  21   7     0.00  -0.04  -0.23    -0.00  -0.00  -0.00    -0.12  -0.00  -0.00
  22   6     0.02  -0.03  -0.11     0.00   0.00  -0.04    -0.14  -0.01  -0.02
  23   6     0.04  -0.04  -0.12     0.01   0.00  -0.16    -0.16   0.01  -0.07
  24   6     0.05  -0.03   0.03     0.01   0.00  -0.10    -0.18   0.00  -0.04
  25   6     0.05  -0.02   0.18     0.00  -0.00   0.10    -0.18  -0.01   0.03
  26   6     0.03  -0.01   0.16    -0.00  -0.00   0.16    -0.16  -0.02   0.06
  27   6     0.02  -0.01   0.03    -0.00   0.00   0.06    -0.14  -0.01   0.02
  28   6     0.00  -0.00  -0.01     0.00  -0.00  -0.00    -0.15  -0.00   0.00
  29   6    -0.08   0.01  -0.07     0.00  -0.10   0.00    -0.16  -0.04  -0.00
  30   6     0.09   0.01  -0.07    -0.00   0.10  -0.00    -0.16   0.03   0.00
  31   6    -0.01  -0.01   0.03    -0.00  -0.00  -0.06    -0.14   0.01  -0.02
  32   6    -0.03  -0.01   0.16    -0.00   0.00  -0.16    -0.16   0.02  -0.06
  33   6    -0.04  -0.02   0.18    -0.00  -0.00  -0.10    -0.18   0.01  -0.03
  34   6    -0.05  -0.04   0.03     0.01  -0.00   0.10    -0.18  -0.01   0.05
  35   6    -0.04  -0.04  -0.12     0.02  -0.01   0.16    -0.16  -0.01   0.07
  36   6    -0.02  -0.03  -0.11     0.00  -0.00   0.04    -0.14   0.00   0.02
  37   6    -0.07  -0.02  -0.09    -0.01   0.21   0.11    -0.06   0.01  -0.02
  38   6    -0.07   0.06   0.04    -0.00   0.21   0.10    -0.06   0.01  -0.02
  39   6     0.07   0.06   0.04    -0.01  -0.20  -0.10     0.06   0.01  -0.02
  40   6     0.07  -0.02  -0.09    -0.01  -0.21  -0.11     0.06   0.01  -0.02
  41   6    -0.02  -0.03  -0.11    -0.00  -0.00   0.04     0.14  -0.01  -0.02
  42   6    -0.04  -0.04  -0.12     0.01  -0.01   0.16     0.16   0.01  -0.07
  43   6    -0.05  -0.03   0.03     0.01  -0.01   0.10     0.17   0.00  -0.04
  44   6    -0.05  -0.02   0.18    -0.00   0.00  -0.10     0.18  -0.01   0.03
  45   6    -0.03  -0.01   0.16    -0.00   0.00  -0.16     0.16  -0.02   0.06
  46   6    -0.02  -0.01   0.03    -0.00  -0.00  -0.06     0.14  -0.01   0.02
  47   1    -0.02   0.00  -0.03    -0.00  -0.03   0.02     0.05   0.01  -0.00
  48   1    -0.04   0.00  -0.01    -0.00  -0.04   0.00     0.05   0.01  -0.00
  49   1    -0.03   0.01  -0.03     0.00  -0.03  -0.02     0.05   0.01   0.01
  50   1     0.03   0.01  -0.03     0.00   0.03   0.02     0.05  -0.01  -0.01
  51   1     0.02   0.00  -0.03    -0.00   0.03  -0.02     0.05  -0.01   0.00
  52   1     0.04  -0.00  -0.01    -0.00   0.04  -0.00     0.05  -0.01   0.00
  53   1     0.01   0.00   0.07    -0.00  -0.00   0.08     0.05   0.01  -0.03
  54   1     0.01  -0.00   0.09    -0.00  -0.00   0.05     0.06   0.00  -0.02
  55   1     0.02  -0.01   0.01     0.01   0.00  -0.06     0.05  -0.00   0.02
  56   1     0.01  -0.01  -0.07     0.01   0.00  -0.09     0.05  -0.01   0.03
  57   1    -0.04  -0.01  -0.04    -0.00   0.11   0.05     0.01  -0.00  -0.00
  58   1    -0.04   0.03   0.03    -0.00   0.11   0.05     0.02   0.00   0.00
  59   1     0.04   0.03   0.03    -0.00  -0.11  -0.05    -0.02   0.00   0.00
  60   1     0.04  -0.01  -0.04    -0.00  -0.11  -0.05    -0.01  -0.00  -0.00
  61   1     0.01  -0.01  -0.07     0.01   0.00  -0.09    -0.04   0.01  -0.03
  62   1     0.02  -0.01   0.01     0.01   0.00  -0.06    -0.05   0.00  -0.02
  63   1     0.02  -0.00   0.08     0.00  -0.00   0.05    -0.06  -0.00   0.02
  64   1     0.01   0.00   0.07    -0.00  -0.00   0.08    -0.05  -0.01   0.03
  65   1    -0.03   0.01  -0.03     0.01  -0.03  -0.02    -0.04  -0.01  -0.01
  66   1    -0.04   0.00  -0.01     0.00  -0.04   0.00    -0.05  -0.02   0.00
  67   1    -0.02   0.00  -0.03    -0.00  -0.03   0.02    -0.05  -0.01   0.00
  68   1     0.03   0.01  -0.03     0.00   0.03   0.02    -0.05   0.01   0.01
  69   1     0.02   0.00  -0.03    -0.01   0.03  -0.02    -0.05   0.01  -0.00
  70   1     0.04   0.00  -0.01    -0.00   0.04  -0.00    -0.05   0.01  -0.00
  71   1    -0.01   0.00   0.07    -0.00   0.00  -0.08    -0.05   0.01  -0.03
  72   1    -0.01  -0.00   0.09    -0.00   0.00  -0.05    -0.06   0.00  -0.02
  73   1    -0.02  -0.01   0.01     0.01  -0.00   0.06    -0.05  -0.00   0.02
  74   1    -0.01  -0.01  -0.07     0.01  -0.00   0.09    -0.04  -0.01   0.04
  75   1    -0.04  -0.02  -0.04    -0.00   0.11   0.05    -0.01   0.00  -0.00
  76   1    -0.04   0.02   0.03    -0.00   0.11   0.05    -0.02   0.00  -0.00
  77   1     0.04   0.03   0.03    -0.00  -0.11  -0.05     0.02   0.00  -0.00
  78   1     0.04  -0.02  -0.04    -0.00  -0.11  -0.05     0.01  -0.00  -0.00
  79   1    -0.01  -0.01  -0.07     0.01  -0.00   0.09     0.04   0.01  -0.03
  80   1    -0.02  -0.01   0.01     0.01  -0.00   0.06     0.05   0.00  -0.02
  81   1    -0.02  -0.00   0.09    -0.00   0.00  -0.05     0.06  -0.00   0.02
  82   1    -0.01   0.00   0.07    -0.00   0.00  -0.08     0.05  -0.01   0.03
                     13                     14                     15
                        a                      a                      a 
 Frequencies --    96.2199               106.1468               109.8520
 Red. masses --    10.2233                10.0185                 9.6153
 Frc consts  --     0.0000                 0.0000                 0.0000
 IR Inten    --     0.0074                 0.5797                 0.0029
 Raman Activ --     0.0000                 0.0000                 0.0000
 Depolar     --     0.0000                 0.0000                 0.0000
 Atom AN      X      Y      Z        X      Y      Z        X      Y      Z
   1   6     0.16  -0.00   0.06    -0.20   0.00  -0.03    -0.05   0.14  -0.00
   2   6     0.00  -0.00  -0.06    -0.00  -0.00   0.12    -0.04   0.00  -0.00
   3   6    -0.17   0.00   0.05     0.20  -0.00  -0.03    -0.05  -0.14   0.00
   4   6     0.00  -0.01  -0.10     0.00  -0.01   0.16    -0.04  -0.00  -0.08
   5   6     0.02  -0.00  -0.13     0.01  -0.01   0.09    -0.03   0.01  -0.17
   6   6     0.02  -0.01  -0.00     0.02   0.00  -0.11    -0.02  -0.00  -0.05
   7   6     0.01  -0.03   0.17     0.02   0.01  -0.24    -0.04  -0.02   0.20
   8   6    -0.00  -0.04   0.16     0.02   0.01  -0.10    -0.04  -0.02   0.22
   9   6    -0.00  -0.02   0.01     0.01  -0.01   0.08    -0.04  -0.01   0.06
  10   7    -0.00  -0.02  -0.01    -0.00  -0.02   0.15    -0.04   0.00   0.00
  11   6     0.00   0.02  -0.07    -0.00  -0.03   0.08    -0.03   0.00   0.00
  12   6     0.06   0.06  -0.09     0.04  -0.03   0.05    -0.02   0.12   0.05
  13   6     0.06   0.10  -0.14     0.05   0.00   0.00    -0.02   0.14   0.06
  14   6     0.00   0.12  -0.17    -0.00   0.04  -0.01    -0.01  -0.00  -0.01
  15   6     0.00   0.10  -0.16    -0.00   0.08  -0.04    -0.00  -0.00  -0.00
  16   6     0.00  -0.10   0.16    -0.00   0.08  -0.03     0.00  -0.00   0.01
  17   6     0.00  -0.12   0.17     0.00   0.04  -0.01     0.01  -0.00   0.01
  18   6     0.06  -0.11   0.14    -0.05   0.00   0.00     0.02   0.14   0.07
  19   6     0.06  -0.06   0.08    -0.04  -0.03   0.05     0.03   0.11   0.05
  20   6     0.00  -0.02   0.07     0.00  -0.03   0.08     0.03   0.00  -0.00
  21   7    -0.00   0.02   0.01     0.00  -0.02   0.15     0.04  -0.00  -0.01
  22   6    -0.00   0.02  -0.01     0.01  -0.01   0.08     0.04   0.01  -0.06
  23   6    -0.00   0.04  -0.16     0.02   0.01  -0.11     0.04   0.02  -0.21
  24   6    -0.01   0.03  -0.17     0.02   0.01  -0.24     0.03   0.02  -0.19
  25   6    -0.02   0.01   0.00     0.01   0.00  -0.11     0.02   0.00   0.05
  26   6    -0.02   0.00   0.13     0.01  -0.01   0.10     0.03  -0.01   0.17
  27   6    -0.00   0.01   0.11     0.01  -0.01   0.16     0.04   0.00   0.07
  28   6     0.00   0.00   0.07     0.00  -0.00   0.12     0.04   0.00  -0.00
  29   6    -0.17  -0.00  -0.05    -0.20  -0.00  -0.03     0.06  -0.14   0.00
  30   6     0.17   0.00  -0.06     0.20   0.00  -0.03     0.04   0.14  -0.00
  31   6     0.00   0.01   0.10    -0.00  -0.01   0.16     0.04  -0.00  -0.08
  32   6     0.02   0.00   0.13    -0.01  -0.01   0.09     0.02   0.01  -0.17
  33   6     0.02   0.01   0.00    -0.02   0.00  -0.11     0.02  -0.01  -0.04
  34   6     0.01   0.03  -0.17    -0.02   0.01  -0.23     0.03  -0.02   0.20
  35   6    -0.00   0.04  -0.16    -0.02   0.01  -0.10     0.04  -0.03   0.21
  36   6    -0.00   0.02  -0.01    -0.01  -0.01   0.08     0.04  -0.01   0.05
  37   6    -0.06  -0.06   0.09     0.05  -0.03   0.05     0.02  -0.11  -0.05
  38   6    -0.05  -0.11   0.14     0.05  -0.00   0.00     0.02  -0.13  -0.06
  39   6    -0.05   0.11  -0.14    -0.05  -0.00   0.00    -0.02  -0.15  -0.07
  40   6    -0.06   0.06  -0.08    -0.05  -0.04   0.05    -0.03  -0.12  -0.06
  41   6    -0.00  -0.02   0.01    -0.01  -0.01   0.08    -0.04   0.01  -0.05
  42   6    -0.00  -0.04   0.16    -0.02   0.01  -0.11    -0.04   0.03  -0.21
  43   6    -0.01  -0.03   0.17    -0.02   0.01  -0.24    -0.03   0.02  -0.20
  44   6    -0.02  -0.01  -0.00    -0.01   0.00  -0.11    -0.02   0.01   0.04
  45   6    -0.02  -0.00  -0.13    -0.01  -0.01   0.10    -0.03  -0.01   0.17
  46   6    -0.00  -0.01  -0.11    -0.01  -0.01   0.16    -0.04   0.00   0.07
  47   1     0.05   0.00   0.04    -0.06   0.00  -0.04    -0.03   0.03  -0.04
  48   1     0.08  -0.00  -0.01    -0.10   0.00   0.02    -0.01   0.09  -0.00
  49   1     0.05  -0.00   0.04    -0.06   0.00  -0.04     0.00   0.03   0.04
  50   1    -0.05   0.00   0.04     0.06   0.00  -0.04     0.00  -0.03  -0.04
  51   1    -0.05   0.00   0.04     0.06  -0.00  -0.04    -0.03  -0.03   0.04
  52   1    -0.08  -0.00  -0.01     0.10  -0.00   0.02    -0.02  -0.09  -0.00
  53   1     0.01   0.00  -0.07     0.00  -0.00   0.05    -0.01   0.01  -0.10
  54   1     0.01  -0.00  -0.01     0.01   0.00  -0.06    -0.00   0.00  -0.03
  55   1     0.00  -0.01   0.09     0.01   0.01  -0.12    -0.01  -0.01   0.10
  56   1    -0.00  -0.02   0.08     0.01   0.01  -0.05    -0.02  -0.02   0.10
  57   1     0.03   0.02  -0.02     0.02  -0.02   0.02    -0.01   0.05   0.03
  58   1     0.03   0.04  -0.05     0.02   0.00  -0.01    -0.01   0.07   0.03
  59   1     0.03  -0.04   0.05    -0.02   0.00  -0.01     0.01   0.07   0.04
  60   1     0.03  -0.02   0.02    -0.02  -0.02   0.02     0.01   0.05   0.02
  61   1     0.00   0.02  -0.08     0.01   0.01  -0.05     0.01   0.02  -0.10
  62   1    -0.00   0.01  -0.09     0.01   0.01  -0.13     0.01   0.01  -0.09
  63   1    -0.01   0.00   0.01     0.00   0.00  -0.06     0.00  -0.00   0.03
  64   1    -0.01  -0.00   0.07     0.00  -0.00   0.05     0.01  -0.01   0.09
  65   1    -0.05  -0.00  -0.04    -0.06   0.00  -0.04     0.00  -0.03  -0.04
  66   1    -0.08   0.00   0.01    -0.10  -0.00   0.02     0.02  -0.09  -0.00
  67   1    -0.05  -0.00  -0.04    -0.06  -0.00  -0.04     0.03  -0.03   0.04
  68   1     0.05   0.00  -0.04     0.06   0.00  -0.04    -0.00   0.03   0.04
  69   1     0.05  -0.00  -0.04     0.06   0.00  -0.04     0.03   0.03  -0.04
  70   1     0.08   0.00   0.01     0.10   0.00   0.02     0.01   0.09  -0.00
  71   1     0.01  -0.00   0.07    -0.00  -0.00   0.05     0.01   0.01  -0.09
  72   1     0.01   0.00   0.00    -0.01   0.00  -0.06     0.00   0.00  -0.03
  73   1     0.00   0.01  -0.09    -0.01   0.01  -0.12     0.01  -0.01   0.10
  74   1    -0.00   0.02  -0.08    -0.01   0.01  -0.05     0.02  -0.02   0.10
  75   1    -0.03  -0.02   0.02     0.02  -0.02   0.02     0.00  -0.05  -0.03
  76   1    -0.03  -0.04   0.05     0.02  -0.00  -0.01     0.01  -0.07  -0.03
  77   1    -0.03   0.04  -0.05    -0.03  -0.00  -0.01    -0.01  -0.07  -0.04
  78   1    -0.03   0.02  -0.02    -0.02  -0.02   0.02    -0.01  -0.05  -0.03
  79   1     0.00  -0.02   0.08    -0.01   0.01  -0.05    -0.01   0.02  -0.10
  80   1    -0.00  -0.01   0.09    -0.01   0.01  -0.13    -0.01   0.01  -0.10
  81   1    -0.01  -0.00  -0.01    -0.00   0.00  -0.06    -0.00  -0.00   0.03
  82   1    -0.01   0.00  -0.07    -0.00  -0.00   0.05    -0.01  -0.01   0.09
                     16                     17                     18
                        a                      a                      a 
 Frequencies --   111.2396               113.7129               121.9082
 Red. masses --    10.9211                 9.5246                10.9254
 Frc consts  --     0.0000                 0.0000                 0.0000
 IR Inten    --     0.0037                 1.7969                 0.0195
 Raman Activ --     0.0000                 0.0000                 0.0000
 Depolar     --     0.0000                 0.0000                 0.0000
 Atom AN      X      Y      Z        X      Y      Z        X      Y      Z
   1   6     0.11   0.01  -0.00     0.00  -0.12   0.00    -0.08   0.00   0.00
   2   6    -0.00  -0.00  -0.09    -0.00   0.00  -0.00    -0.00  -0.02   0.06
   3   6    -0.11   0.00  -0.00     0.00   0.12  -0.00     0.08   0.01   0.00
   4   6     0.01  -0.01  -0.11    -0.00  -0.00   0.06     0.03  -0.04   0.07
   5   6     0.02  -0.00  -0.00    -0.02  -0.01   0.14     0.06  -0.02   0.06
   6   6     0.03  -0.02   0.13    -0.04   0.00   0.03     0.09  -0.03  -0.05
   7   6     0.03  -0.04   0.13    -0.03   0.02  -0.17     0.09  -0.06  -0.11
   8   6     0.02  -0.04  -0.02    -0.01   0.03  -0.18     0.06  -0.08  -0.06
   9   6     0.01  -0.02  -0.13     0.00   0.01  -0.05     0.02  -0.07   0.01
  10   7    -0.00  -0.03  -0.21     0.02   0.00  -0.00    -0.00  -0.09   0.00
  11   6    -0.00  -0.02  -0.06     0.01  -0.00   0.00    -0.00  -0.04  -0.02
  12   6    -0.09   0.04   0.04     0.02  -0.17  -0.09     0.04   0.09   0.01
  13   6    -0.09   0.08   0.18     0.02  -0.18  -0.09     0.04   0.27   0.05
  14   6     0.00   0.05   0.23     0.03  -0.00   0.00     0.00   0.28   0.02
  15   6    -0.00  -0.03   0.21     0.03  -0.00   0.00     0.00   0.17  -0.03
  16   6    -0.00   0.03  -0.21     0.03   0.00  -0.00     0.00  -0.17   0.03
  17   6    -0.00  -0.05  -0.23     0.03   0.00  -0.00     0.00  -0.28  -0.02
  18   6    -0.09  -0.08  -0.18     0.02   0.19   0.09     0.04  -0.27  -0.05
  19   6    -0.09  -0.03  -0.03     0.02   0.17   0.09     0.04  -0.09  -0.01
  20   6     0.00   0.02   0.06     0.01   0.00   0.00     0.00   0.04   0.02
  21   7     0.00   0.03   0.21     0.02  -0.00   0.00    -0.00   0.09  -0.00
  22   6    -0.01   0.02   0.13     0.01   0.00  -0.05    -0.03   0.07  -0.01
  23   6    -0.02   0.04   0.03    -0.01   0.03  -0.19    -0.06   0.08   0.05
  24   6    -0.03   0.03  -0.13    -0.03   0.02  -0.18    -0.09   0.06   0.11
  25   6    -0.03   0.02  -0.14    -0.04  -0.00   0.03    -0.09   0.03   0.05
  26   6    -0.02   0.00   0.00    -0.02  -0.02   0.15    -0.06   0.02  -0.05
  27   6    -0.01   0.01   0.11     0.00  -0.00   0.07    -0.03   0.04  -0.07
  28   6     0.00   0.00   0.09     0.00  -0.00   0.00     0.00   0.02  -0.06
  29   6    -0.11  -0.01   0.00     0.00  -0.13   0.00     0.08  -0.01  -0.00
  30   6     0.12  -0.00   0.00     0.00   0.13  -0.00    -0.08  -0.00  -0.00
  31   6     0.01   0.01   0.11     0.00   0.00  -0.06     0.03   0.04  -0.08
  32   6     0.02   0.00  -0.00    -0.02   0.01  -0.15     0.06   0.02  -0.06
  33   6     0.03   0.02  -0.14    -0.04  -0.00  -0.03     0.09   0.03   0.05
  34   6     0.03   0.03  -0.12    -0.02  -0.02   0.17     0.09   0.06   0.12
  35   6     0.02   0.04   0.03    -0.01  -0.03   0.19     0.06   0.08   0.06
  36   6     0.01   0.02   0.13     0.01  -0.01   0.05     0.03   0.07  -0.01
  37   6     0.10  -0.03  -0.03     0.03  -0.17  -0.09    -0.04  -0.09  -0.01
  38   6     0.09  -0.08  -0.18     0.03  -0.18  -0.10    -0.04  -0.27  -0.05
  39   6     0.09   0.07   0.18     0.03   0.18   0.10    -0.04   0.27   0.05
  40   6     0.09   0.03   0.03     0.03   0.17   0.09    -0.04   0.09   0.01
  41   6    -0.01  -0.02  -0.13     0.00  -0.00   0.04    -0.03  -0.07   0.01
  42   6    -0.02  -0.04  -0.04    -0.01  -0.03   0.18    -0.06  -0.08  -0.05
  43   6    -0.03  -0.03   0.12    -0.03  -0.02   0.17    -0.09  -0.06  -0.11
  44   6    -0.03  -0.02   0.14    -0.04   0.00  -0.03    -0.09  -0.03  -0.05
  45   6    -0.02  -0.00   0.01    -0.02   0.02  -0.14    -0.06  -0.02   0.05
  46   6    -0.01  -0.01  -0.11     0.00   0.00  -0.07    -0.03  -0.04   0.07
  47   1     0.03   0.00   0.02     0.02  -0.02   0.04    -0.02   0.01  -0.01
  48   1     0.06   0.00  -0.02     0.00  -0.09   0.00    -0.04  -0.01   0.01
  49   1     0.03   0.00   0.02    -0.02  -0.02  -0.04    -0.04   0.01  -0.01
  50   1    -0.03   0.00   0.01    -0.02   0.02   0.04     0.03   0.01  -0.01
  51   1    -0.04   0.00   0.02     0.02   0.02  -0.04     0.02   0.01  -0.01
  52   1    -0.06  -0.00  -0.02     0.00   0.09  -0.00     0.04  -0.01   0.01
  53   1     0.01   0.00   0.00    -0.01  -0.01   0.08     0.02   0.00   0.03
  54   1     0.01  -0.00   0.07    -0.02  -0.00   0.02     0.03  -0.01  -0.03
  55   1     0.01  -0.01   0.07    -0.01   0.01  -0.08     0.03  -0.02  -0.06
  56   1     0.01  -0.01  -0.01    -0.00   0.02  -0.08     0.02  -0.03  -0.02
  57   1    -0.05   0.01  -0.00     0.01  -0.08  -0.04     0.02   0.01   0.00
  58   1    -0.05   0.04   0.07     0.00  -0.09  -0.05     0.02   0.10   0.02
  59   1    -0.05  -0.03  -0.07     0.01   0.10   0.05     0.02  -0.10  -0.02
  60   1    -0.05  -0.01   0.00     0.01   0.09   0.04     0.02  -0.01  -0.00
  61   1    -0.01   0.01   0.01    -0.00   0.02  -0.08    -0.02   0.03   0.02
  62   1    -0.01   0.01  -0.07    -0.01   0.01  -0.09    -0.03   0.02   0.06
  63   1    -0.01   0.00  -0.07    -0.02  -0.00   0.02    -0.03   0.01   0.03
  64   1    -0.01  -0.00  -0.00    -0.01  -0.01   0.08    -0.02  -0.00  -0.03
  65   1    -0.03  -0.00  -0.02    -0.02  -0.02  -0.04     0.03  -0.01   0.01
  66   1    -0.06  -0.00   0.02     0.00  -0.10   0.00     0.04   0.00  -0.01
  67   1    -0.04  -0.01  -0.02     0.02  -0.02   0.04     0.02  -0.01   0.01
  68   1     0.03  -0.00  -0.02    -0.02   0.02   0.04    -0.04  -0.01   0.02
  69   1     0.04  -0.00  -0.02     0.02   0.02  -0.04    -0.01  -0.01   0.01
  70   1     0.06   0.00   0.02     0.00   0.10  -0.00    -0.04   0.01  -0.01
  71   1     0.01  -0.00  -0.00    -0.01   0.01  -0.08     0.02  -0.00  -0.03
  72   1     0.01   0.00  -0.07    -0.02   0.00  -0.02     0.03   0.01   0.03
  73   1     0.01   0.01  -0.07    -0.01  -0.01   0.09     0.04   0.02   0.06
  74   1     0.01   0.01   0.01     0.00  -0.02   0.08     0.02   0.03   0.02
  75   1     0.05  -0.01   0.00     0.01  -0.09  -0.04    -0.02  -0.01  -0.00
  76   1     0.05  -0.03  -0.07     0.01  -0.10  -0.05    -0.02  -0.11  -0.02
  77   1     0.05   0.03   0.07     0.01   0.09   0.05    -0.02   0.10   0.02
  78   1     0.05   0.01  -0.01     0.01   0.08   0.04    -0.02   0.01   0.00
  79   1    -0.01  -0.01  -0.02    -0.00  -0.02   0.08    -0.02  -0.03  -0.02
  80   1    -0.01  -0.01   0.06    -0.01  -0.01   0.09    -0.04  -0.02  -0.06
  81   1    -0.01  -0.00   0.07    -0.02   0.00  -0.02    -0.03  -0.01  -0.03
  82   1    -0.01   0.00   0.01    -0.01   0.01  -0.08    -0.02   0.00   0.03
                     19                     20                     21
                        a                      a                      a 
 Frequencies --   129.0343               129.2335               185.0262
 Red. masses --     2.7251                 2.7038                10.3288
 Frc consts  --     0.0000                 0.0000                 0.0000
 IR Inten    --    17.8900                 0.8629                 0.3312
 Raman Activ --     0.0000                 0.0000                 0.0000
 Depolar     --     0.0000                 0.0000                 0.0000
 Atom AN      X      Y      Z        X      Y      Z        X      Y      Z
   1   6    -0.01  -0.15  -0.00    -0.01  -0.06  -0.00     0.01   0.02  -0.00
   2   6    -0.01   0.00  -0.00    -0.01   0.00   0.00     0.00   0.02  -0.01
   3   6    -0.01   0.15   0.00    -0.01   0.06   0.00    -0.01   0.02  -0.00
   4   6    -0.01   0.00   0.05    -0.01  -0.00   0.02    -0.01   0.03  -0.00
   5   6     0.01   0.01  -0.09    -0.01   0.00  -0.03    -0.04   0.01  -0.03
   6   6     0.02   0.00  -0.12    -0.00   0.00  -0.05    -0.07   0.03  -0.00
   7   6     0.01  -0.01   0.01    -0.01  -0.00   0.00    -0.07   0.05   0.03
   8   6    -0.00  -0.01   0.10    -0.01  -0.00   0.04    -0.04   0.06   0.03
   9   6    -0.01  -0.00   0.07    -0.01  -0.00   0.02    -0.01   0.05   0.03
  10   7    -0.01   0.00  -0.00    -0.01  -0.00  -0.00     0.00   0.05   0.07
  11   6    -0.01   0.00   0.00    -0.00   0.00   0.00     0.00  -0.03   0.01
  12   6    -0.01   0.03   0.02    -0.00   0.01   0.00     0.01  -0.19  -0.08
  13   6    -0.01   0.04   0.02    -0.00   0.01   0.00     0.01  -0.21  -0.09
  14   6    -0.01  -0.00  -0.00     0.00   0.00   0.00     0.00  -0.03  -0.00
  15   6    -0.01  -0.00   0.00     0.01  -0.00   0.00     0.00   0.36   0.19
  16   6    -0.01   0.00  -0.00     0.01  -0.00  -0.00     0.00   0.36   0.19
  17   6    -0.01   0.00   0.00     0.01  -0.00  -0.00     0.00  -0.03  -0.00
  18   6    -0.00  -0.02  -0.01     0.01   0.04   0.02    -0.00  -0.21  -0.09
  19   6    -0.00  -0.02  -0.01     0.01   0.03   0.02    -0.01  -0.19  -0.07
  20   6    -0.00  -0.00  -0.00     0.01   0.00   0.00     0.00  -0.03   0.01
  21   7    -0.00  -0.00   0.00     0.01   0.00  -0.00     0.00   0.05   0.07
  22   6     0.00  -0.00   0.03     0.01   0.00  -0.07    -0.01   0.05   0.04
  23   6     0.01  -0.01   0.04     0.00   0.01  -0.10    -0.04   0.06   0.03
  24   6     0.01  -0.00   0.00    -0.01   0.01  -0.01    -0.07   0.05   0.03
  25   6     0.01   0.00  -0.05    -0.01  -0.00   0.12    -0.07   0.03  -0.00
  26   6     0.01   0.00  -0.03    -0.00  -0.01   0.09    -0.04   0.01  -0.03
  27   6     0.00   0.00   0.02     0.01   0.00  -0.05    -0.01   0.03  -0.00
  28   6     0.00  -0.00   0.00     0.01   0.00  -0.00    -0.00   0.02  -0.01
  29   6     0.00  -0.06   0.00     0.01   0.15   0.00     0.01   0.02  -0.00
  30   6     0.00   0.06  -0.00     0.02  -0.15  -0.00    -0.01   0.02  -0.00
  31   6     0.00  -0.00  -0.02     0.01   0.00   0.05     0.01   0.03  -0.00
  32   6     0.01  -0.00   0.03    -0.00   0.01  -0.09     0.04   0.01  -0.03
  33   6     0.01  -0.00   0.05    -0.01   0.00  -0.12     0.07   0.03  -0.00
  34   6     0.01   0.00  -0.00    -0.01  -0.01   0.01     0.07   0.05   0.03
  35   6     0.00   0.00  -0.04     0.01  -0.01   0.10     0.04   0.06   0.03
  36   6     0.00   0.00  -0.03     0.01  -0.00   0.07     0.01   0.05   0.04
  37   6    -0.00   0.02   0.01     0.01  -0.03  -0.02     0.01  -0.19  -0.08
  38   6    -0.00   0.02   0.01     0.01  -0.04  -0.02     0.01  -0.21  -0.09
  39   6    -0.01  -0.04  -0.02    -0.00  -0.01  -0.00    -0.01  -0.21  -0.09
  40   6    -0.01  -0.04  -0.02    -0.00  -0.00  -0.00    -0.01  -0.19  -0.08
  41   6    -0.01   0.00  -0.07    -0.01   0.00  -0.03     0.01   0.05   0.04
  42   6     0.00   0.01  -0.10    -0.01   0.00  -0.04     0.04   0.06   0.03
  43   6     0.01   0.01  -0.01    -0.01   0.00  -0.00     0.07   0.05   0.03
  44   6     0.02  -0.00   0.13    -0.00  -0.00   0.05     0.07   0.03  -0.00
  45   6     0.01  -0.01   0.09    -0.01  -0.00   0.03     0.04   0.01  -0.03
  46   6    -0.01  -0.00  -0.05    -0.01   0.00  -0.02     0.01   0.03  -0.00
  47   1     0.22   0.12   0.19     0.08   0.04   0.07    -0.05  -0.03  -0.04
  48   1    -0.00  -0.40   0.00    -0.00  -0.15   0.00     0.00   0.09  -0.00
  49   1    -0.23   0.12  -0.20    -0.09   0.04  -0.07     0.06  -0.03   0.04
  50   1    -0.23  -0.11   0.19    -0.09  -0.04   0.07    -0.06  -0.03   0.04
  51   1     0.22  -0.12  -0.19     0.08  -0.04  -0.07     0.05  -0.03  -0.04
  52   1     0.00   0.39  -0.00    -0.00   0.15  -0.00    -0.00   0.09  -0.00
  53   1     0.00   0.01  -0.05    -0.00   0.00  -0.02    -0.01  -0.00  -0.02
  54   1     0.01   0.00  -0.07     0.00   0.00  -0.03    -0.02   0.01  -0.00
  55   1     0.00  -0.00   0.01    -0.00  -0.00   0.00    -0.03   0.02   0.01
  56   1    -0.00  -0.01   0.05    -0.00  -0.00   0.02    -0.01   0.02   0.01
  57   1    -0.00   0.02   0.01     0.00   0.00   0.00     0.00  -0.08  -0.03
  58   1    -0.00   0.02   0.01    -0.00   0.00   0.00     0.00  -0.09  -0.04
  59   1    -0.00  -0.01  -0.00     0.00   0.02   0.01    -0.00  -0.09  -0.04
  60   1    -0.00  -0.01  -0.00     0.00   0.02   0.01    -0.00  -0.08  -0.03
  61   1     0.00  -0.00   0.02     0.00   0.01  -0.05    -0.01   0.02   0.01
  62   1     0.00  -0.00   0.00    -0.00   0.00  -0.01    -0.03   0.02   0.01
  63   1     0.01   0.00  -0.03    -0.01  -0.00   0.07    -0.02   0.00  -0.00
  64   1     0.00   0.00  -0.02    -0.00  -0.01   0.05    -0.01  -0.00  -0.02
  65   1    -0.09   0.04  -0.07     0.23  -0.11   0.19     0.06  -0.03   0.04
  66   1     0.00  -0.15   0.00    -0.00   0.39  -0.00     0.00   0.09  -0.00
  67   1     0.09   0.04   0.07    -0.22  -0.12  -0.19    -0.05  -0.03  -0.04
  68   1    -0.08  -0.04   0.07     0.23   0.11  -0.20    -0.06  -0.03   0.04
  69   1     0.09  -0.04  -0.07    -0.22   0.12   0.19     0.05  -0.03  -0.04
  70   1     0.00   0.15  -0.00     0.01  -0.40   0.00    -0.00   0.09  -0.00
  71   1     0.00  -0.00   0.02    -0.00   0.01  -0.05     0.01  -0.00  -0.02
  72   1     0.01  -0.00   0.03    -0.01   0.00  -0.07     0.02   0.01  -0.00
  73   1     0.00   0.00  -0.00    -0.00  -0.00   0.01     0.02   0.02   0.01
  74   1     0.00   0.00  -0.02     0.00  -0.01   0.05     0.01   0.02   0.01
  75   1    -0.00   0.01   0.00     0.00  -0.02  -0.01     0.01  -0.08  -0.03
  76   1    -0.00   0.01   0.00     0.00  -0.02  -0.01     0.00  -0.09  -0.04
  77   1    -0.00  -0.02  -0.01    -0.00  -0.00  -0.00    -0.00  -0.09  -0.04
  78   1    -0.00  -0.02  -0.01     0.00  -0.00  -0.00    -0.00  -0.08  -0.03
  79   1    -0.00   0.01  -0.05    -0.00   0.00  -0.02     0.01   0.02   0.01
  80   1     0.00   0.00  -0.00    -0.00   0.00  -0.00     0.03   0.02   0.01
  81   1     0.01  -0.00   0.07    -0.00  -0.00   0.03     0.02   0.01  -0.00
  82   1     0.00  -0.01   0.05    -0.00  -0.00   0.02     0.01  -0.00  -0.02
                     22                     23                     24
                        a                      a                      a 
 Frequencies --   190.5453               190.9823               196.7444
 Red. masses --     1.1917                 1.9682                10.6946
 Frc consts  --     0.0000                 0.0000                 0.0000
 IR Inten    --     0.0020                 0.0258                14.6159
 Raman Activ --     0.0000                 0.0000                 0.0000
 Depolar     --     0.0000                 0.0000                 0.0000
 Atom AN      X      Y      Z        X      Y      Z        X      Y      Z
   1   6     0.00   0.06  -0.00    -0.00  -0.05   0.00    -0.03   0.07   0.00
   2   6     0.00   0.00  -0.00    -0.00   0.00   0.00    -0.03   0.00   0.00
   3   6    -0.00   0.06  -0.00    -0.00  -0.05   0.00    -0.03  -0.07  -0.00
   4   6     0.00  -0.00  -0.00    -0.01   0.01   0.00    -0.01  -0.04  -0.05
   5   6    -0.00  -0.01   0.00    -0.01   0.01  -0.01    -0.09  -0.08  -0.05
   6   6    -0.00  -0.01   0.00    -0.02   0.02  -0.00    -0.18  -0.04   0.06
   7   6    -0.00  -0.01  -0.00    -0.02   0.03   0.01    -0.18   0.01   0.06
   8   6     0.00  -0.01  -0.00    -0.01   0.03   0.01    -0.09   0.05  -0.04
   9   6     0.00  -0.01  -0.00    -0.01   0.02   0.01     0.00  -0.01  -0.04
  10   7    -0.00  -0.01   0.00     0.00   0.03   0.02     0.08  -0.00   0.00
  11   6    -0.00  -0.01   0.00     0.00   0.00  -0.00     0.10  -0.00   0.00
  12   6     0.00  -0.01   0.00    -0.00  -0.05  -0.03     0.16   0.03  -0.01
  13   6     0.00   0.01   0.00    -0.00  -0.06  -0.03     0.17   0.04  -0.00
  14   6    -0.00   0.01   0.00     0.00  -0.01  -0.00     0.20  -0.00   0.00
  15   6    -0.00   0.01  -0.00     0.00   0.10   0.06     0.21  -0.00  -0.00
  16   6    -0.00  -0.01   0.00     0.00   0.10   0.06     0.21  -0.00  -0.00
  17   6    -0.00  -0.01  -0.00     0.00  -0.01  -0.00     0.20   0.00  -0.00
  18   6     0.00  -0.00  -0.00     0.00  -0.06  -0.03     0.17  -0.04   0.00
  19   6     0.00   0.01  -0.00     0.00  -0.05  -0.03     0.16  -0.03   0.01
  20   6    -0.00   0.01  -0.00     0.00   0.01  -0.00     0.10   0.00  -0.00
  21   7    -0.00   0.01  -0.00     0.00   0.03   0.02     0.08   0.00  -0.00
  22   6    -0.00   0.01   0.00    -0.01   0.02   0.01     0.00  -0.01  -0.04
  23   6    -0.00   0.01   0.00    -0.01   0.03   0.01    -0.09   0.04  -0.04
  24   6     0.00   0.01   0.00    -0.02   0.03   0.01    -0.18   0.01   0.07
  25   6     0.00   0.01  -0.00    -0.02   0.02  -0.01    -0.18  -0.04   0.06
  26   6     0.00   0.01  -0.00    -0.01   0.01  -0.01    -0.09  -0.08  -0.05
  27   6    -0.00   0.00   0.00    -0.01   0.01   0.00    -0.01  -0.04  -0.05
  28   6     0.00  -0.00   0.00    -0.00   0.00   0.00    -0.03  -0.00   0.00
  29   6     0.00  -0.05   0.00     0.00  -0.05   0.00    -0.03   0.06   0.00
  30   6     0.00  -0.05   0.00     0.00  -0.05   0.00    -0.03  -0.06  -0.00
  31   6     0.00   0.00   0.00     0.01   0.01   0.00    -0.01   0.04   0.05
  32   6    -0.00   0.01  -0.00     0.01   0.01  -0.01    -0.09   0.08   0.05
  33   6    -0.00   0.01  -0.00     0.02   0.02  -0.01    -0.18   0.04  -0.06
  34   6    -0.00   0.01   0.00     0.02   0.03   0.01    -0.18  -0.01  -0.06
  35   6     0.00   0.01   0.00     0.01   0.03   0.01    -0.09  -0.05   0.04
  36   6     0.00   0.01   0.00     0.01   0.02   0.01     0.00   0.01   0.04
  37   6    -0.00   0.01  -0.00    -0.00  -0.05  -0.03     0.16   0.04  -0.01
  38   6    -0.00  -0.00  -0.00    -0.00  -0.06  -0.03     0.17   0.05  -0.00
  39   6    -0.00   0.01   0.00     0.00  -0.06  -0.03     0.17  -0.04   0.00
  40   6    -0.00  -0.01   0.00     0.00  -0.05  -0.03     0.16  -0.03   0.01
  41   6    -0.00  -0.01  -0.00     0.01   0.02   0.01     0.00   0.01   0.04
  42   6    -0.00  -0.01  -0.00     0.01   0.03   0.01    -0.09  -0.05   0.04
  43   6     0.00  -0.01  -0.00     0.02   0.03   0.01    -0.18  -0.01  -0.07
  44   6     0.00  -0.01   0.00     0.02   0.02  -0.01    -0.18   0.04  -0.06
  45   6     0.00  -0.01   0.00     0.01   0.01  -0.01    -0.09   0.08   0.05
  46   6    -0.00  -0.01  -0.00     0.01   0.01   0.00    -0.01   0.03   0.05
  47   1    -0.20  -0.12  -0.16     0.18   0.11   0.14     0.02   0.04   0.01
  48   1     0.00   0.31  -0.00    -0.00  -0.29   0.00    -0.01  -0.02   0.00
  49   1     0.20  -0.12   0.16    -0.18   0.11  -0.14    -0.04   0.04  -0.01
  50   1    -0.20  -0.12   0.15     0.19   0.11  -0.14    -0.05  -0.05   0.01
  51   1     0.20  -0.12  -0.15    -0.18   0.12   0.14     0.03  -0.04  -0.01
  52   1     0.00   0.31  -0.00    -0.00  -0.29   0.00    -0.01   0.02  -0.00
  53   1    -0.00  -0.01   0.00    -0.00   0.00  -0.01    -0.03  -0.05  -0.03
  54   1     0.00  -0.00   0.00    -0.01   0.00  -0.00    -0.07  -0.02   0.03
  55   1    -0.00  -0.00  -0.00    -0.01   0.01   0.00    -0.06   0.01   0.04
  56   1     0.00  -0.00  -0.00    -0.00   0.01   0.00    -0.02   0.03  -0.02
  57   1     0.00  -0.00   0.00    -0.00  -0.02  -0.01     0.06   0.01   0.01
  58   1     0.00   0.00   0.00    -0.00  -0.03  -0.01     0.04   0.02   0.01
  59   1     0.00  -0.00  -0.00     0.00  -0.03  -0.01     0.04  -0.02  -0.01
  60   1     0.00   0.00  -0.00     0.00  -0.02  -0.01     0.06  -0.01  -0.01
  61   1    -0.00   0.00   0.00    -0.00   0.01   0.00    -0.03   0.03  -0.02
  62   1     0.00   0.00   0.00    -0.01   0.01   0.00    -0.06   0.01   0.04
  63   1     0.00   0.00  -0.00    -0.01   0.00  -0.00    -0.07  -0.02   0.03
  64   1     0.00   0.01  -0.00    -0.00   0.00  -0.01    -0.03  -0.05  -0.03
  65   1    -0.19   0.11  -0.15    -0.19   0.11  -0.15    -0.05   0.04  -0.01
  66   1     0.00  -0.30   0.00     0.00  -0.30   0.00    -0.01  -0.02   0.00
  67   1     0.19   0.12   0.15     0.19   0.12   0.15     0.03   0.04   0.01
  68   1     0.19   0.12  -0.15     0.19   0.12  -0.15    -0.05  -0.05   0.01
  69   1    -0.19   0.12   0.15    -0.19   0.12   0.15     0.03  -0.04  -0.02
  70   1     0.00  -0.30   0.00     0.00  -0.30   0.00    -0.01   0.02  -0.00
  71   1    -0.00   0.01  -0.00     0.00   0.01  -0.01    -0.03   0.05   0.03
  72   1     0.00   0.00  -0.00     0.01   0.00  -0.00    -0.07   0.02  -0.03
  73   1    -0.00   0.00   0.00     0.01   0.01   0.00    -0.07  -0.01  -0.04
  74   1     0.00   0.00   0.00     0.00   0.01   0.00    -0.02  -0.03   0.02
  75   1    -0.00   0.00  -0.00    -0.00  -0.02  -0.01     0.05   0.01   0.01
  76   1    -0.00  -0.00  -0.00    -0.00  -0.03  -0.01     0.04   0.02   0.01
  77   1    -0.00   0.00   0.00     0.00  -0.03  -0.01     0.04  -0.02  -0.01
  78   1    -0.00  -0.00   0.00     0.00  -0.02  -0.01     0.06  -0.01  -0.01
  79   1    -0.00  -0.00  -0.00     0.00   0.01   0.00    -0.03  -0.03   0.02
  80   1     0.00  -0.00  -0.00     0.01   0.01   0.00    -0.06  -0.01  -0.04
  81   1    -0.00  -0.00   0.00     0.01   0.00  -0.00    -0.07   0.02  -0.04
  82   1     0.00  -0.01   0.00     0.00   0.00  -0.01    -0.03   0.05   0.03
                     25                     26                     27
                        a                      a                      a 
 Frequencies --   209.3731               214.3693               216.2426
 Red. masses --    10.4715                10.4861                 8.8412
 Frc consts  --     0.0000                 0.0000                 0.0000
 IR Inten    --     0.0077                 0.0141                 0.1205
 Raman Activ --     0.0000                 0.0000                 0.0000
 Depolar     --     0.0000                 0.0000                 0.0000
 Atom AN      X      Y      Z        X      Y      Z        X      Y      Z
   1   6    -0.10  -0.03   0.07     0.09   0.02  -0.06    -0.12  -0.16  -0.03
   2   6    -0.00  -0.01   0.13     0.00   0.01  -0.13    -0.06   0.00   0.00
   3   6     0.09  -0.03   0.07    -0.09   0.03  -0.07    -0.11   0.16   0.03
   4   6    -0.02  -0.00   0.12     0.02   0.00  -0.11    -0.04   0.00   0.13
   5   6     0.00   0.00  -0.04     0.00  -0.00   0.04     0.03   0.04   0.07
   6   6     0.02   0.00  -0.18    -0.02  -0.00   0.17     0.10   0.02  -0.17
   7   6     0.01  -0.01   0.03    -0.01   0.01  -0.04     0.09  -0.02  -0.10
   8   6    -0.01  -0.02   0.18     0.01   0.02  -0.17     0.02  -0.06   0.16
   9   6    -0.02  -0.00   0.08     0.02   0.00  -0.07    -0.04  -0.02   0.13
  10   7     0.00   0.02  -0.16    -0.00  -0.02   0.17    -0.05   0.00  -0.00
  11   6     0.00   0.05  -0.22    -0.00  -0.04   0.21    -0.03   0.00  -0.00
  12   6    -0.09   0.06  -0.16     0.10  -0.05   0.14    -0.03   0.00  -0.00
  13   6    -0.10   0.02  -0.03     0.11  -0.00  -0.01    -0.03   0.01  -0.00
  14   6     0.00  -0.02   0.03    -0.00   0.04  -0.07    -0.01  -0.00   0.00
  15   6    -0.00  -0.07   0.13     0.00   0.08  -0.15    -0.00  -0.00   0.00
  16   6    -0.00  -0.07   0.13     0.00  -0.08   0.15     0.00   0.00   0.00
  17   6    -0.00  -0.02   0.03     0.00  -0.04   0.07     0.01  -0.00  -0.00
  18   6     0.10   0.02  -0.03     0.11   0.00   0.01     0.02   0.01  -0.00
  19   6     0.09   0.06  -0.16     0.10   0.05  -0.15     0.03   0.00  -0.00
  20   6    -0.00   0.05  -0.22    -0.00   0.04  -0.22     0.03   0.00   0.00
  21   7    -0.00   0.02  -0.15    -0.00   0.02  -0.18     0.05   0.00   0.00
  22   6    -0.01  -0.00   0.08    -0.01  -0.00   0.07     0.04   0.02  -0.14
  23   6    -0.01  -0.02   0.18    -0.01  -0.02   0.18    -0.02   0.06  -0.16
  24   6     0.01  -0.01   0.03     0.01  -0.01   0.04    -0.09   0.02   0.10
  25   6     0.02   0.00  -0.18     0.02   0.00  -0.18    -0.10  -0.02   0.17
  26   6    -0.00   0.00  -0.04    -0.00   0.00  -0.04    -0.03  -0.04  -0.07
  27   6    -0.01  -0.00   0.12    -0.02  -0.00   0.12     0.04  -0.00  -0.13
  28   6     0.00  -0.01   0.13     0.00  -0.01   0.13     0.07   0.00  -0.00
  29   6    -0.09  -0.03   0.07    -0.09  -0.03   0.07     0.12   0.17   0.03
  30   6     0.10  -0.02   0.07     0.09  -0.03   0.07     0.12  -0.17  -0.03
  31   6     0.02  -0.00   0.12     0.02  -0.00   0.12     0.05   0.00   0.13
  32   6     0.00   0.00  -0.04     0.00   0.01  -0.04    -0.03   0.04   0.07
  33   6    -0.02  -0.00  -0.18    -0.02   0.00  -0.18    -0.10   0.02  -0.17
  34   6    -0.01  -0.01   0.03    -0.01  -0.01   0.04    -0.09  -0.02  -0.10
  35   6     0.01  -0.02   0.18     0.01  -0.02   0.18    -0.02  -0.06   0.16
  36   6     0.02  -0.00   0.08     0.02  -0.00   0.07     0.04  -0.02   0.14
  37   6    -0.09   0.05  -0.16    -0.11   0.05  -0.15     0.03  -0.00   0.00
  38   6    -0.10   0.02  -0.03    -0.11  -0.00   0.01     0.02  -0.01   0.00
  39   6     0.10   0.02  -0.03    -0.11  -0.00  -0.01    -0.02  -0.01   0.00
  40   6     0.09   0.06  -0.16    -0.11  -0.05   0.14    -0.03  -0.00   0.00
  41   6     0.01  -0.00   0.08    -0.01   0.00  -0.07    -0.04   0.02  -0.13
  42   6     0.01  -0.02   0.19    -0.01   0.02  -0.18     0.02   0.06  -0.16
  43   6    -0.01  -0.01   0.03     0.01   0.01  -0.03     0.09   0.02   0.10
  44   6    -0.02   0.00  -0.19     0.02  -0.00   0.18     0.10  -0.02   0.17
  45   6     0.00   0.00  -0.04    -0.00  -0.01   0.04     0.03  -0.04  -0.07
  46   6     0.01  -0.00   0.12    -0.02   0.00  -0.12    -0.04  -0.00  -0.12
  47   1    -0.04  -0.01  -0.00     0.03   0.01   0.00    -0.12  -0.10  -0.05
  48   1    -0.05   0.00   0.03     0.05  -0.00  -0.03    -0.05   0.04   0.00
  49   1    -0.02  -0.01   0.01     0.02   0.01  -0.01     0.05  -0.10   0.01
  50   1     0.02  -0.01   0.01    -0.02   0.01  -0.01     0.05   0.10  -0.01
  51   1     0.04  -0.01  -0.00    -0.04   0.01   0.00    -0.11   0.11   0.05
  52   1     0.05   0.00   0.04    -0.05  -0.00  -0.03    -0.05  -0.04  -0.00
  53   1     0.00   0.00  -0.03    -0.00  -0.00   0.03     0.01   0.03   0.04
  54   1     0.01   0.00  -0.12    -0.01  -0.00   0.11     0.04   0.01  -0.10
  55   1     0.00  -0.00   0.01    -0.00   0.00  -0.02     0.04  -0.01  -0.07
  56   1    -0.01  -0.01   0.08     0.01   0.01  -0.08     0.00  -0.03   0.07
  57   1    -0.05   0.03  -0.06     0.06  -0.03   0.05    -0.01  -0.00  -0.00
  58   1    -0.05   0.01   0.01     0.06  -0.00  -0.02    -0.01   0.00   0.00
  59   1     0.05   0.01   0.01     0.06   0.00   0.02     0.01   0.00   0.00
  60   1     0.05   0.03  -0.06     0.06   0.03  -0.05     0.01  -0.00  -0.00
  61   1    -0.00  -0.01   0.08    -0.00  -0.01   0.08    -0.00   0.03  -0.07
  62   1     0.00  -0.00   0.01     0.00  -0.00   0.02    -0.04   0.01   0.07
  63   1     0.01   0.00  -0.11     0.01   0.00  -0.11    -0.04  -0.01   0.11
  64   1     0.00   0.00  -0.03    -0.00   0.00  -0.03    -0.01  -0.03  -0.04
  65   1    -0.02  -0.01   0.01    -0.02  -0.01   0.01    -0.05   0.11  -0.01
  66   1    -0.05   0.00   0.03    -0.05   0.00   0.03     0.05  -0.04  -0.00
  67   1    -0.04  -0.01  -0.00    -0.03  -0.01   0.00     0.12   0.11   0.05
  68   1     0.02  -0.01   0.01     0.02  -0.01   0.01    -0.05  -0.11   0.01
  69   1     0.04  -0.01  -0.00     0.03  -0.01  -0.00     0.12  -0.11  -0.05
  70   1     0.05   0.00   0.03     0.05   0.00   0.03     0.05   0.04   0.00
  71   1    -0.00   0.00  -0.03    -0.00   0.00  -0.03    -0.01   0.03   0.04
  72   1    -0.01   0.00  -0.11    -0.01   0.00  -0.11    -0.04   0.01  -0.11
  73   1    -0.00  -0.00   0.01    -0.00  -0.00   0.02    -0.04  -0.01  -0.07
  74   1     0.01  -0.01   0.08     0.01  -0.01   0.08    -0.00  -0.03   0.07
  75   1    -0.05   0.03  -0.06    -0.06   0.03  -0.05     0.01   0.00   0.00
  76   1    -0.05   0.01   0.01    -0.06   0.00   0.02     0.01  -0.00  -0.00
  77   1     0.05   0.01   0.01    -0.06  -0.00  -0.02    -0.01  -0.00  -0.00
  78   1     0.05   0.03  -0.06    -0.06  -0.03   0.05    -0.01   0.00   0.00
  79   1     0.00  -0.01   0.08    -0.00   0.01  -0.08     0.00   0.03  -0.07
  80   1    -0.00  -0.00   0.01     0.00   0.00  -0.01     0.04   0.01   0.07
  81   1    -0.01   0.00  -0.12     0.01  -0.00   0.11     0.04  -0.01   0.10
  82   1    -0.00   0.00  -0.03    -0.00  -0.00   0.02     0.01  -0.03  -0.04
                     28                     29                     30
                        a                      a                      a 
 Frequencies --   222.4998               237.0379               240.4471
 Red. masses --     9.0550                 9.4424                 9.3475
 Frc consts  --     0.0000                 0.0000                 0.0000
 IR Inten    --     1.2438                 6.2978                11.5109
 Raman Activ --     0.0000                 0.0000                 0.0000
 Depolar     --     0.0000                 0.0000                 0.0000
 Atom AN      X      Y      Z        X      Y      Z        X      Y      Z
   1   6     0.11   0.17   0.03     0.23  -0.10   0.08    -0.31   0.07  -0.11
   2   6     0.06  -0.00  -0.00     0.10  -0.00   0.00    -0.13   0.00  -0.00
   3   6     0.10  -0.17  -0.03     0.23   0.10  -0.08    -0.31  -0.06   0.11
   4   6     0.03   0.02  -0.13     0.05  -0.01   0.07    -0.06  -0.01  -0.04
   5   6     0.02   0.02  -0.06    -0.07  -0.07   0.01     0.05   0.05  -0.00
   6   6     0.01   0.01   0.18    -0.16  -0.02  -0.10     0.13   0.00   0.06
   7   6     0.02   0.01   0.09    -0.16   0.04  -0.03     0.13  -0.05   0.01
   8   6     0.03   0.02  -0.18    -0.05   0.08   0.10     0.03  -0.08  -0.07
   9   6     0.02   0.02  -0.15     0.05   0.02   0.08    -0.04  -0.03  -0.05
  10   7    -0.02   0.00   0.00     0.05  -0.00   0.00    -0.00   0.00   0.00
  11   6    -0.04  -0.00   0.00     0.04  -0.00  -0.00     0.02  -0.00   0.00
  12   6    -0.08  -0.02   0.01     0.03   0.00   0.01     0.05  -0.00  -0.01
  13   6    -0.08  -0.03  -0.00     0.03   0.03   0.02     0.05  -0.02  -0.02
  14   6    -0.10   0.00  -0.00     0.01   0.00  -0.00     0.07  -0.00  -0.00
  15   6    -0.11   0.00  -0.00     0.00   0.00   0.00     0.07  -0.00  -0.00
  16   6    -0.11  -0.00   0.00     0.00   0.00   0.00     0.07   0.00   0.00
  17   6    -0.10  -0.00   0.00    -0.01   0.00  -0.00     0.07   0.00  -0.00
  18   6    -0.08   0.03   0.00    -0.02   0.03   0.03     0.05   0.02   0.02
  19   6    -0.08   0.02  -0.01    -0.03   0.00   0.01     0.05   0.00   0.01
  20   6    -0.04   0.00  -0.00    -0.04   0.00  -0.00     0.02   0.00  -0.00
  21   7    -0.02   0.00  -0.00    -0.04  -0.00   0.00    -0.00   0.00  -0.00
  22   6     0.02   0.02  -0.14    -0.05  -0.02  -0.08    -0.04  -0.03  -0.05
  23   6     0.03   0.02  -0.17     0.05  -0.08  -0.10     0.03  -0.08  -0.06
  24   6     0.02   0.01   0.08     0.16  -0.04   0.03     0.12  -0.04   0.01
  25   6     0.02   0.01   0.17     0.16   0.02   0.10     0.12   0.00   0.06
  26   6     0.02   0.02  -0.06     0.07   0.07  -0.01     0.05   0.04  -0.00
  27   6     0.03   0.02  -0.13    -0.06   0.00  -0.07    -0.06  -0.02  -0.04
  28   6     0.06   0.00   0.00    -0.11  -0.00   0.00    -0.13  -0.00   0.00
  29   6     0.10   0.17   0.02    -0.25   0.10  -0.09    -0.30   0.06  -0.10
  30   6     0.10  -0.17  -0.02    -0.24  -0.10   0.09    -0.29  -0.06   0.11
  31   6     0.03  -0.02   0.13    -0.06  -0.00   0.07    -0.06   0.02   0.04
  32   6     0.02  -0.02   0.06     0.07  -0.07   0.01     0.05  -0.04   0.00
  33   6     0.01  -0.01  -0.18     0.16  -0.02  -0.10     0.12  -0.00  -0.06
  34   6     0.02  -0.01  -0.08     0.16   0.04  -0.03     0.12   0.04  -0.01
  35   6     0.04  -0.02   0.17     0.05   0.08   0.10     0.03   0.08   0.06
  36   6     0.02  -0.02   0.14    -0.05   0.02   0.08    -0.04   0.03   0.05
  37   6    -0.08  -0.02   0.01    -0.03  -0.00  -0.01     0.05  -0.00  -0.01
  38   6    -0.08  -0.04  -0.00    -0.02  -0.03  -0.03     0.05  -0.02  -0.02
  39   6    -0.08   0.04   0.00     0.03  -0.03  -0.03     0.05   0.02   0.02
  40   6    -0.08   0.02  -0.01     0.03  -0.00  -0.01     0.05   0.00   0.01
  41   6     0.02  -0.02   0.14     0.05  -0.02  -0.08    -0.04   0.03   0.05
  42   6     0.03  -0.02   0.17    -0.05  -0.08  -0.10     0.03   0.08   0.07
  43   6     0.02  -0.01  -0.09    -0.16  -0.04   0.02     0.13   0.04  -0.01
  44   6     0.01  -0.01  -0.18    -0.16   0.02   0.09     0.13  -0.01  -0.06
  45   6     0.02  -0.02   0.06    -0.06   0.07  -0.01     0.05  -0.05   0.00
  46   6     0.03  -0.02   0.13     0.06   0.00  -0.06    -0.06   0.02   0.04
  47   1     0.11   0.11   0.04     0.03  -0.06   0.04    -0.06   0.04  -0.06
  48   1     0.04  -0.03  -0.00     0.10   0.01  -0.00    -0.14  -0.00   0.00
  49   1    -0.05   0.11  -0.01     0.11  -0.06   0.06    -0.12   0.04  -0.08
  50   1    -0.05  -0.11   0.01     0.11   0.06  -0.06    -0.12  -0.04   0.07
  51   1     0.11  -0.11  -0.04     0.03   0.06  -0.04    -0.07  -0.04   0.06
  52   1     0.04   0.03   0.00     0.10  -0.01   0.00    -0.14   0.01  -0.01
  53   1     0.01   0.00  -0.03    -0.02  -0.05   0.01     0.02   0.04  -0.00
  54   1    -0.00   0.00   0.11    -0.06  -0.01  -0.06     0.05   0.01   0.04
  55   1     0.00   0.00   0.06    -0.06   0.02  -0.02     0.05  -0.02   0.01
  56   1     0.01   0.01  -0.08    -0.01   0.05   0.04     0.01  -0.05  -0.03
  57   1    -0.03  -0.01  -0.00     0.01   0.00   0.00     0.02  -0.00  -0.00
  58   1    -0.02  -0.01  -0.01     0.01   0.02   0.01     0.01  -0.01  -0.01
  59   1    -0.02   0.02   0.01    -0.01   0.02   0.01     0.01   0.01   0.01
  60   1    -0.03   0.00   0.00    -0.00   0.00   0.00     0.02   0.00   0.00
  61   1     0.01   0.01  -0.08     0.02  -0.05  -0.04     0.01  -0.05  -0.02
  62   1     0.01   0.00   0.06     0.06  -0.02   0.02     0.05  -0.02   0.01
  63   1     0.00   0.00   0.11     0.06   0.01   0.06     0.05   0.01   0.04
  64   1     0.01   0.01  -0.03     0.02   0.05  -0.01     0.01   0.04  -0.00
  65   1    -0.05   0.11  -0.01    -0.12   0.06  -0.07    -0.11   0.03  -0.07
  66   1     0.04  -0.03  -0.00    -0.11  -0.01   0.00    -0.13  -0.01   0.01
  67   1     0.11   0.11   0.04    -0.03   0.06  -0.05    -0.06   0.03  -0.06
  68   1    -0.05  -0.11   0.01    -0.11  -0.06   0.07    -0.11  -0.04   0.07
  69   1     0.11  -0.11  -0.04    -0.03  -0.06   0.05    -0.06  -0.04   0.06
  70   1     0.04   0.03   0.00    -0.11   0.01  -0.00    -0.13   0.00  -0.00
  71   1     0.01  -0.01   0.03     0.02  -0.05   0.01     0.02  -0.04   0.00
  72   1     0.00  -0.00  -0.11     0.06  -0.01  -0.06     0.05  -0.01  -0.04
  73   1     0.00  -0.00  -0.06     0.06   0.02  -0.02     0.05   0.02  -0.01
  74   1     0.01  -0.01   0.08     0.01   0.05   0.04     0.01   0.05   0.02
  75   1    -0.03  -0.01  -0.00    -0.00  -0.00  -0.00     0.02  -0.00  -0.00
  76   1    -0.02  -0.02  -0.01    -0.01  -0.02  -0.01     0.01  -0.01  -0.01
  77   1    -0.02   0.02   0.01     0.01  -0.02  -0.01     0.01   0.01   0.01
  78   1    -0.03   0.00   0.00     0.01  -0.00  -0.00     0.02   0.00   0.00
  79   1     0.01  -0.01   0.08    -0.01  -0.05  -0.04     0.01   0.05   0.03
  80   1     0.00  -0.00  -0.06    -0.06  -0.02   0.02     0.05   0.02  -0.01
  81   1     0.00  -0.00  -0.11    -0.06   0.01   0.06     0.05  -0.01  -0.04
  82   1     0.01  -0.00   0.03    -0.02   0.05  -0.01     0.02  -0.04   0.00
                     31                     32                     33
                        a                      a                      a 
 Frequencies --   279.6792               301.7359               302.8155
 Red. masses --    10.8396                10.1854                 9.3608
 Frc consts  --     0.0000                 0.0000                 0.0000
 IR Inten    --     0.0065                 3.2330                 0.1664
 Raman Activ --     0.0000                 0.0000                 0.0000
 Depolar     --     0.0000                 0.0000                 0.0000
 Atom AN      X      Y      Z        X      Y      Z        X      Y      Z
   1   6    -0.01   0.09   0.01    -0.18  -0.03  -0.12    -0.03   0.31   0.03
   2   6    -0.00   0.03   0.02     0.01  -0.00   0.00    -0.00   0.02   0.05
   3   6     0.01   0.09   0.01    -0.19   0.04   0.12     0.03   0.32   0.03
   4   6     0.02   0.01   0.01     0.08  -0.08   0.01     0.05  -0.05   0.02
   5   6    -0.03  -0.02  -0.05     0.02  -0.12  -0.02    -0.04  -0.10  -0.04
   6   6    -0.09   0.01  -0.01    -0.08  -0.08  -0.02    -0.13  -0.07  -0.02
   7   6    -0.09   0.04   0.03    -0.08  -0.01   0.01    -0.13  -0.03   0.03
   8   6    -0.03   0.06   0.01     0.01   0.03   0.01    -0.03   0.01  -0.01
   9   6     0.02   0.02   0.03     0.10  -0.03   0.01     0.04  -0.04  -0.01
  10   7     0.00   0.00   0.04     0.19  -0.00   0.00    -0.00  -0.06  -0.04
  11   6    -0.00  -0.15  -0.05     0.19  -0.00   0.00    -0.00  -0.12  -0.04
  12   6     0.01  -0.25  -0.10     0.17  -0.02   0.02     0.01  -0.07  -0.02
  13   6     0.01  -0.00   0.01     0.15   0.00   0.04     0.01   0.05   0.03
  14   6     0.00   0.21   0.12     0.06  -0.00  -0.00     0.00   0.05   0.03
  15   6     0.00   0.33   0.16     0.01   0.00   0.00    -0.00  -0.07  -0.05
  16   6    -0.00  -0.33  -0.16    -0.02   0.00   0.00    -0.00  -0.07  -0.05
  17   6    -0.00  -0.21  -0.11    -0.06   0.00  -0.00    -0.00   0.05   0.03
  18   6     0.01   0.00  -0.01    -0.16   0.01   0.04    -0.01   0.05   0.03
  19   6     0.01   0.25   0.10    -0.17  -0.02   0.02    -0.01  -0.07  -0.02
  20   6    -0.00   0.15   0.05    -0.19  -0.00   0.00     0.00  -0.12  -0.04
  21   7    -0.00  -0.00  -0.04    -0.19  -0.00   0.00     0.00  -0.06  -0.04
  22   6    -0.02  -0.03  -0.03    -0.10   0.03  -0.01     0.04  -0.03  -0.01
  23   6     0.03  -0.06  -0.01    -0.01  -0.02  -0.01    -0.03   0.01  -0.01
  24   6     0.09  -0.04  -0.03     0.08   0.02  -0.01    -0.13  -0.03   0.03
  25   6     0.09  -0.01   0.00     0.07   0.08   0.02    -0.12  -0.07  -0.02
  26   6     0.03   0.02   0.05    -0.02   0.12   0.02    -0.04  -0.10  -0.04
  27   6    -0.02  -0.01  -0.01    -0.09   0.08  -0.01     0.06  -0.05   0.02
[...]
   8   6    -0.00   0.00  -0.00     0.01   0.00   0.00    -0.04  -0.00  -0.00
   9   6    -0.00   0.00  -0.00     0.00  -0.00  -0.00    -0.00   0.00  -0.00
  10   7     0.00   0.00   0.00     0.00   0.00  -0.00    -0.00  -0.00   0.00
  11   6    -0.00  -0.00   0.00    -0.00   0.00  -0.00     0.00   0.00  -0.00
  12   6    -0.02  -0.01   0.02    -0.00  -0.00   0.00    -0.00  -0.00   0.00
  13   6     0.04  -0.03   0.06     0.00  -0.00   0.00    -0.00   0.00  -0.00
  14   6     0.00   0.00  -0.00     0.00  -0.00   0.00    -0.00   0.00  -0.00
  15   6     0.00   0.00  -0.00     0.00   0.00   0.00    -0.00   0.00  -0.00
  16   6    -0.00   0.00  -0.00    -0.00  -0.00   0.00     0.00  -0.00  -0.00
  17   6    -0.01   0.00  -0.00     0.00  -0.00   0.00    -0.00  -0.00   0.00
  18   6    -0.08  -0.06   0.12    -0.00  -0.00   0.00    -0.00  -0.00   0.00
  19   6     0.03  -0.02   0.04    -0.00   0.00  -0.00     0.00  -0.00   0.00
  20   6     0.01  -0.00   0.00    -0.00  -0.00   0.00     0.00  -0.00   0.00
  21   7    -0.00   0.00   0.00     0.00   0.00  -0.00    -0.00  -0.00  -0.00
  22   6     0.00  -0.00  -0.00     0.00  -0.00   0.00    -0.00   0.00   0.00
  23   6     0.01  -0.00   0.00     0.05   0.00   0.00    -0.00  -0.00  -0.00
  24   6     0.00   0.00  -0.00    -0.05  -0.09  -0.01     0.00   0.01   0.00
  25   6    -0.00   0.01   0.00     0.09  -0.17  -0.00    -0.01   0.01   0.00
  26   6    -0.01   0.00  -0.00     0.13  -0.00   0.00    -0.01   0.00  -0.00
  27   6    -0.00  -0.00   0.00     0.00   0.00   0.00    -0.00  -0.00  -0.00
  28   6     0.00   0.00  -0.00     0.00  -0.00  -0.00    -0.00  -0.00   0.00
  29   6    -0.00   0.00  -0.00     0.00  -0.01  -0.00    -0.00  -0.00   0.00
  30   6    -0.00   0.00   0.00     0.00  -0.01   0.00    -0.00  -0.00  -0.00
  31   6    -0.00   0.00  -0.00    -0.00   0.00   0.00    -0.00   0.00   0.00
  32   6    -0.01  -0.00   0.00    -0.05  -0.00   0.00    -0.03  -0.00   0.00
  33   6    -0.00  -0.01   0.00    -0.04  -0.07   0.00    -0.02  -0.04   0.00
  34   6    -0.00   0.00   0.00     0.02  -0.03  -0.00     0.01  -0.02  -0.00
  35   6     0.01   0.00  -0.00    -0.02  -0.00   0.00    -0.01   0.00   0.00
  36   6     0.00   0.00   0.00    -0.00  -0.00   0.00    -0.00  -0.00  -0.00
  37   6     0.03   0.02  -0.05     0.00   0.00  -0.00     0.00   0.00  -0.00
  38   6    -0.09   0.06  -0.13    -0.00   0.00  -0.00    -0.00   0.00  -0.00
  39   6     0.05   0.03  -0.07     0.00   0.00  -0.00    -0.00  -0.00   0.00
  40   6    -0.02   0.01  -0.03    -0.00   0.00  -0.00     0.00  -0.00   0.00
  41   6    -0.00  -0.00  -0.00     0.00   0.00   0.00     0.00   0.00  -0.00
  42   6    -0.00  -0.00   0.00     0.01  -0.00  -0.00     0.03  -0.00  -0.00
  43   6    -0.00   0.00   0.00    -0.01   0.02   0.00    -0.03   0.05   0.00
  44   6     0.00   0.01   0.00     0.02   0.03   0.00     0.06   0.11   0.00
  45   6     0.00   0.00  -0.00     0.02   0.00  -0.00     0.08   0.00  -0.00
  46   6     0.00  -0.00   0.00     0.00  -0.00  -0.00     0.00  -0.00  -0.00
  47   1     0.00  -0.00   0.00    -0.00   0.00   0.00     0.01  -0.02   0.00
  48   1    -0.00  -0.00  -0.00     0.00   0.00   0.00    -0.00   0.00   0.00
  49   1     0.00   0.00   0.00    -0.00  -0.00   0.00    -0.01  -0.01  -0.00
  50   1     0.00  -0.00  -0.00    -0.00   0.00  -0.00     0.01  -0.02   0.00
  51   1     0.00   0.00  -0.00    -0.00  -0.00  -0.00    -0.01  -0.01  -0.00
  52   1    -0.00   0.00   0.00     0.00   0.00  -0.00    -0.00   0.00   0.00
  53   1    -0.02   0.00  -0.00    -0.06   0.00  -0.00     0.36  -0.02   0.01
  54   1    -0.01   0.02  -0.00    -0.05   0.09  -0.00     0.27  -0.51   0.00
  55   1    -0.00  -0.00  -0.00     0.03   0.04   0.00    -0.16  -0.25  -0.02
  56   1     0.01  -0.00   0.00    -0.03   0.00  -0.00     0.17  -0.01   0.01
  57   1     0.05   0.04  -0.07     0.00   0.00  -0.01     0.00   0.00  -0.00
  58   1    -0.14   0.11  -0.22    -0.01   0.00  -0.01     0.00  -0.00   0.00
  59   1     0.27   0.20  -0.42     0.00   0.00  -0.00     0.00   0.00  -0.00
  60   1    -0.09   0.07  -0.14     0.00  -0.00   0.01    -0.00   0.00  -0.00
  61   1    -0.02   0.00  -0.00    -0.19   0.00  -0.01     0.01  -0.00   0.00
  62   1     0.00   0.00   0.00     0.18   0.29   0.02    -0.01  -0.02  -0.00
  63   1     0.01  -0.02  -0.00    -0.31   0.57   0.00     0.02  -0.04  -0.00
  64   1     0.03  -0.00   0.00    -0.42   0.01  -0.01     0.03  -0.00   0.00
  65   1    -0.00  -0.00  -0.00     0.01   0.01  -0.00     0.00   0.00  -0.00
  66   1     0.00   0.00   0.00     0.00  -0.00   0.00    -0.00  -0.00  -0.00
  67   1    -0.00   0.00  -0.00    -0.02   0.02   0.00     0.00  -0.00  -0.00
  68   1    -0.00   0.00   0.00    -0.02   0.02  -0.00     0.00  -0.00   0.00
  69   1    -0.00  -0.00   0.00     0.01   0.01  -0.00     0.00   0.00   0.00
  70   1     0.00   0.00  -0.00     0.00  -0.00  -0.00    -0.00  -0.00   0.00
  71   1     0.02   0.00  -0.00     0.16   0.01  -0.01     0.09   0.00  -0.00
  72   1     0.01   0.02  -0.00     0.12   0.23  -0.00     0.06   0.12  -0.00
  73   1     0.01  -0.01  -0.00    -0.07   0.11   0.01    -0.04   0.06   0.01
  74   1    -0.02  -0.00   0.00     0.08   0.00  -0.01     0.04   0.00  -0.00
  75   1    -0.10  -0.08   0.16    -0.00  -0.00   0.00    -0.00  -0.00   0.00
  76   1     0.30  -0.22   0.46     0.00  -0.00   0.00     0.00  -0.00   0.00
  77   1    -0.16  -0.12   0.24    -0.01  -0.00   0.01     0.00   0.00  -0.00
  78   1     0.05  -0.04   0.08     0.00  -0.00   0.01    -0.00   0.00  -0.01
  79   1     0.01   0.00  -0.00    -0.03  -0.00   0.00    -0.12  -0.00   0.01
  80   1    -0.00   0.00   0.00     0.04  -0.06  -0.01     0.11  -0.18  -0.02
  81   1    -0.01  -0.02  -0.00    -0.06  -0.11  -0.00    -0.20  -0.36  -0.00
  82   1    -0.02  -0.00   0.00    -0.08  -0.00   0.00    -0.26  -0.01   0.01
                    235                    236                    237
                        a                      a                      a 
 Frequencies --  3097.1720              3098.0104              3109.5585
 Red. masses --     1.8912                 1.8889                 1.8524
 Frc consts  --     0.0000                 0.0000                 0.0000
 IR Inten    --    48.5576                31.2343                76.2430
 Raman Activ --     0.0000                 0.0000                 0.0000
 Depolar     --     0.0000                 0.0000                 0.0000
 Atom AN      X      Y      Z        X      Y      Z        X      Y      Z
   1   6     0.00   0.00  -0.00    -0.01  -0.00   0.00    -0.00   0.00   0.00
   2   6     0.00   0.00   0.00    -0.00   0.00  -0.00    -0.00  -0.00  -0.00
   3   6     0.00   0.00   0.00    -0.01   0.00  -0.00    -0.00  -0.00  -0.00
   4   6     0.00   0.00   0.00    -0.00  -0.00  -0.00    -0.00  -0.00   0.00
   5   6     0.03  -0.00   0.00    -0.08   0.00  -0.00    -0.00   0.00  -0.00
   6   6     0.02  -0.04   0.00    -0.05   0.10  -0.00    -0.00   0.00  -0.00
   7   6    -0.01  -0.02  -0.00     0.03   0.05   0.00     0.00   0.00   0.00
   8   6     0.01   0.00   0.00    -0.03  -0.00  -0.00     0.00  -0.00   0.00
   9   6     0.00  -0.00  -0.00    -0.00   0.00   0.00     0.00  -0.00  -0.00
  10   7     0.00  -0.00   0.00    -0.00   0.00   0.00    -0.00   0.00  -0.00
  11   6    -0.00   0.00  -0.00     0.00  -0.00   0.00    -0.00  -0.00   0.00
  12   6    -0.00  -0.00   0.00    -0.00  -0.00   0.00    -0.00  -0.00   0.00
  13   6     0.00  -0.00   0.00     0.00  -0.00   0.01     0.00  -0.00   0.00
  14   6     0.00   0.00  -0.00     0.00  -0.00   0.00     0.00  -0.00   0.00
  15   6     0.00  -0.00  -0.00     0.00  -0.00  -0.00    -0.00  -0.00  -0.00
  16   6    -0.00   0.00  -0.00    -0.00   0.00  -0.00    -0.00   0.00  -0.00
  17   6     0.00   0.00  -0.00    -0.00   0.00  -0.00    -0.00   0.00  -0.00
  18   6     0.00   0.00  -0.00    -0.00  -0.00   0.01    -0.00  -0.00   0.00
  19   6    -0.00   0.00  -0.00     0.00  -0.00   0.00     0.00  -0.00   0.01
  20   6    -0.00   0.00  -0.00    -0.00   0.00   0.00     0.00   0.00  -0.00
  21   7     0.00  -0.00   0.00     0.00   0.00   0.00    -0.00   0.00   0.00
  22   6     0.00  -0.00  -0.00     0.00  -0.00  -0.00    -0.01   0.01   0.00
  23   6     0.01   0.00   0.00     0.02   0.00   0.00    -0.26   0.01  -0.02
  24   6    -0.01  -0.02  -0.00    -0.02  -0.04  -0.00    -0.05  -0.07  -0.01
  25   6     0.02  -0.03  -0.00     0.04  -0.07  -0.00     0.02  -0.03   0.00
  26   6     0.02  -0.00   0.00     0.06  -0.00   0.00     0.01   0.00   0.00
  27   6     0.00   0.00   0.00     0.00   0.00   0.00     0.00  -0.00  -0.00
  28   6     0.00   0.00  -0.00     0.00   0.00  -0.00    -0.00   0.00   0.00
  29   6     0.00   0.00  -0.00     0.00   0.00  -0.00    -0.00   0.00   0.00
  30   6     0.00   0.00   0.00     0.00   0.00   0.00    -0.00   0.00  -0.00
  31   6     0.00  -0.00  -0.00     0.00  -0.00  -0.00    -0.00   0.00  -0.00
  32   6     0.11   0.01  -0.00     0.07   0.00  -0.00    -0.00  -0.00   0.00
  33   6     0.08   0.15  -0.00     0.05   0.09  -0.00    -0.00  -0.00   0.00
  34   6    -0.05   0.07   0.01    -0.03   0.04   0.00     0.00  -0.00  -0.00
  35   6     0.04  -0.00  -0.00     0.03  -0.00  -0.00     0.01   0.00  -0.00
  36   6     0.00   0.00   0.00     0.00   0.00   0.00     0.00  -0.00  -0.00
  37   6    -0.00  -0.00   0.00     0.00   0.00  -0.00     0.00   0.00  -0.00
  38   6     0.00  -0.00   0.00    -0.00   0.00  -0.01    -0.00   0.00  -0.00
  39   6     0.00   0.00  -0.00     0.00   0.00  -0.01     0.00   0.00  -0.00
  40   6    -0.00   0.00  -0.00    -0.00   0.00  -0.00    -0.00   0.00  -0.00
  41   6     0.00   0.00   0.00    -0.00  -0.00  -0.00    -0.00  -0.00   0.00
  42   6     0.03  -0.00  -0.00    -0.03   0.00   0.00    -0.02  -0.00   0.00
  43   6    -0.04   0.06   0.00     0.03  -0.05  -0.00    -0.00   0.00   0.00
  44   6     0.06   0.11   0.00    -0.06  -0.10  -0.00     0.00   0.00  -0.00
  45   6     0.08   0.00  -0.00    -0.08  -0.00   0.00    -0.00  -0.00   0.00
  46   6     0.00  -0.00  -0.00    -0.00   0.00   0.00     0.00   0.00   0.00
  47   1    -0.00   0.01   0.00     0.01  -0.02  -0.00     0.00  -0.00  -0.00
  48   1     0.00   0.00   0.00    -0.00  -0.00  -0.00    -0.00   0.00  -0.00
  49   1    -0.01  -0.01   0.00     0.01   0.02  -0.00     0.00   0.00  -0.00
  50   1    -0.00   0.01  -0.00     0.01  -0.02   0.00     0.00  -0.00   0.00
  51   1    -0.01  -0.01  -0.00     0.01   0.02   0.00     0.00   0.00   0.00
  52   1     0.00   0.00  -0.00    -0.00   0.00   0.00    -0.00  -0.00   0.00
  53   1    -0.10   0.01  -0.00     0.26  -0.01   0.01     0.00  -0.00   0.00
  54   1    -0.07   0.14  -0.00     0.18  -0.34   0.00     0.00  -0.00   0.00
  55   1     0.04   0.07   0.01    -0.11  -0.17  -0.02    -0.00  -0.00  -0.00
  56   1    -0.04   0.00  -0.00     0.12  -0.00   0.01    -0.01   0.00  -0.00
  57   1     0.01   0.01  -0.01     0.00   0.00  -0.00     0.00   0.00  -0.00
  58   1    -0.01   0.00  -0.01    -0.01   0.01  -0.02    -0.00   0.00  -0.01
  59   1    -0.00  -0.00   0.00     0.01   0.01  -0.02     0.00   0.00  -0.01
  60   1     0.00  -0.00   0.01    -0.00   0.00  -0.00    -0.01   0.01  -0.02
  61   1    -0.03   0.00  -0.00    -0.09   0.00  -0.01     0.91  -0.02   0.07
  62   1     0.03   0.05   0.00     0.08   0.12   0.01     0.14   0.22   0.02
  63   1    -0.06   0.10   0.00    -0.13   0.24   0.00    -0.05   0.09   0.00
  64   1    -0.08   0.00  -0.00    -0.19   0.01  -0.00    -0.03   0.00  -0.00
  65   1    -0.01  -0.02   0.00    -0.01  -0.01   0.00     0.00   0.00   0.00
  66   1     0.00   0.00   0.00     0.00   0.00   0.00    -0.00   0.00  -0.00
  67   1    -0.00   0.00   0.00    -0.01   0.01   0.00     0.00  -0.00  -0.00
  68   1    -0.00   0.00  -0.00    -0.01   0.01  -0.00     0.00  -0.00   0.00
  69   1    -0.01  -0.02  -0.00    -0.01  -0.01  -0.00     0.00   0.00  -0.00
  70   1     0.00   0.00  -0.00     0.00   0.00  -0.00    -0.00   0.00   0.00
  71   1    -0.36  -0.02   0.01    -0.23  -0.01   0.01     0.00   0.00  -0.00
  72   1    -0.26  -0.49   0.00    -0.16  -0.31   0.00     0.00   0.01  -0.00
  73   1     0.16  -0.24  -0.02     0.10  -0.15  -0.01    -0.01   0.01   0.00
  74   1    -0.15  -0.01   0.01    -0.11  -0.00   0.01    -0.04  -0.00   0.00
  75   1     0.01   0.01  -0.01    -0.00  -0.00   0.00    -0.00  -0.00   0.01
  76   1    -0.00   0.00  -0.00     0.01  -0.01   0.02     0.00  -0.00   0.01
  77   1    -0.01  -0.01   0.01    -0.02  -0.01   0.02    -0.00  -0.00   0.01
  78   1     0.01  -0.00   0.01     0.00  -0.00   0.00     0.00  -0.00   0.00
  79   1    -0.11  -0.00   0.01     0.12   0.00  -0.01     0.06   0.00  -0.00
  80   1     0.12  -0.19  -0.02    -0.11   0.17   0.02     0.01  -0.01  -0.00
  81   1    -0.20  -0.36  -0.00     0.19   0.35   0.00    -0.00  -0.00   0.00
  82   1    -0.27  -0.01   0.01     0.26   0.01  -0.01     0.00   0.00  -0.00
                    238                    239                    240
                        a                      a                      a 
 Frequencies --  3109.7384              3109.8267              3110.1173
 Red. masses --     1.8520                 1.8528                 1.8529
 Frc consts  --     0.0000                 0.0000                 0.0000
 IR Inten    --    86.5270                20.5340                29.1305
 Raman Activ --     0.0000                 0.0000                 0.0000
 Depolar     --     0.0000                 0.0000                 0.0000
 Atom AN      X      Y      Z        X      Y      Z        X      Y      Z
   1   6     0.00  -0.00  -0.00     0.00   0.00   0.00     0.00  -0.00   0.00
   2   6     0.00  -0.00  -0.00    -0.00   0.00   0.00    -0.00  -0.00  -0.00
   3   6     0.00  -0.00   0.00     0.00   0.00  -0.00     0.00  -0.00  -0.00
   4   6    -0.00   0.00   0.00     0.00  -0.00  -0.00     0.00  -0.00  -0.00
   5   6    -0.00  -0.00  -0.00     0.01  -0.00   0.00     0.00  -0.00   0.00
   6   6    -0.00   0.01  -0.00     0.02  -0.02   0.00     0.01  -0.01   0.00
   7   6     0.01   0.02   0.00    -0.04  -0.06  -0.01    -0.02  -0.03  -0.00
   8   6     0.08  -0.00   0.01    -0.21   0.01  -0.02    -0.12   0.00  -0.01
   9   6     0.00  -0.00   0.00    -0.00   0.00  -0.00    -0.00   0.00   0.00
  10   7     0.00  -0.00  -0.00    -0.00   0.00   0.00    -0.00  -0.00  -0.00
  11   6    -0.00  -0.00   0.00     0.00   0.00  -0.00     0.00  -0.00   0.00
  12   6     0.00   0.00  -0.00     0.00   0.00   0.00     0.00   0.00  -0.01
  13   6    -0.00   0.00  -0.00    -0.00   0.00  -0.00    -0.00   0.00  -0.00
  14   6    -0.00  -0.00   0.00    -0.00   0.00  -0.00    -0.00  -0.00   0.00
  15   6    -0.00  -0.00   0.00     0.00   0.00  -0.00     0.00  -0.00   0.00
  16   6     0.00   0.00  -0.00    -0.00  -0.00  -0.00    -0.00   0.00   0.00
  17   6     0.00   0.00  -0.00     0.00   0.00  -0.00     0.00   0.00  -0.00
  18   6     0.00   0.00  -0.00     0.00   0.00  -0.00     0.00   0.00  -0.00
  19   6    -0.00   0.00  -0.00    -0.00   0.00  -0.00    -0.00   0.00  -0.00
  20   6    -0.00   0.00  -0.00    -0.00   0.00  -0.00    -0.00   0.00   0.00
  21   7     0.00   0.00   0.00     0.00   0.00   0.00     0.00  -0.00  -0.00
  22   6     0.00  -0.00  -0.00    -0.00   0.00  -0.00     0.00  -0.00  -0.00
  23   6     0.01  -0.00   0.00    -0.01   0.00  -0.00     0.01  -0.00   0.00
  24   6     0.00   0.00   0.00    -0.00  -0.00  -0.00     0.00   0.00   0.00
  25   6    -0.00   0.00  -0.00     0.00  -0.00   0.00    -0.00   0.00  -0.00
  26   6     0.00  -0.00   0.00     0.00   0.00   0.00    -0.00   0.00  -0.00
  27   6    -0.00   0.00   0.00     0.00   0.00  -0.00    -0.00  -0.00   0.00
  28   6     0.00   0.00   0.00     0.00   0.00   0.00    -0.00   0.00   0.00
  29   6     0.00   0.00  -0.00    -0.00   0.00  -0.00    -0.00   0.00   0.00
  30   6     0.00   0.00   0.00     0.00   0.00   0.00    -0.00   0.00  -0.00
  31   6    -0.00  -0.00  -0.00    -0.00  -0.00  -0.00    -0.00   0.00  -0.00
  32   6    -0.01  -0.00   0.00    -0.00  -0.00   0.00    -0.00  -0.00   0.00
  33   6    -0.02  -0.03   0.00    -0.01  -0.01   0.00    -0.00  -0.00   0.00
  34   6     0.04  -0.07  -0.01     0.02  -0.02  -0.00     0.00  -0.01  -0.00
  35   6     0.25   0.01  -0.02     0.08   0.00  -0.01     0.01   0.00  -0.00
  36   6     0.00   0.01   0.00     0.00   0.00   0.00     0.00   0.00   0.00
  37   6    -0.00  -0.00   0.01    -0.00  -0.00   0.00    -0.00  -0.00   0.00
  38   6     0.00  -0.00   0.00     0.00  -0.00   0.00     0.00  -0.00   0.00
  39   6    -0.00  -0.00   0.00    -0.00  -0.00   0.00    -0.00  -0.00   0.00
  40   6     0.00  -0.00  -0.00     0.00  -0.00   0.00     0.00  -0.00   0.00
  41   6    -0.00  -0.00   0.00     0.00   0.00  -0.00    -0.00  -0.01  -0.00
  42   6    -0.03  -0.00   0.00     0.12   0.00  -0.01    -0.23  -0.01   0.02
  43   6    -0.00   0.01   0.00     0.02  -0.03  -0.00    -0.04   0.06   0.01
  44   6     0.00   0.00   0.00    -0.01  -0.01   0.00     0.02   0.02  -0.00
  45   6     0.00   0.00  -0.00    -0.00   0.00   0.00     0.01  -0.00  -0.00
  46   6     0.00  -0.00   0.00    -0.00  -0.00  -0.00     0.00   0.00   0.00
  47   1    -0.00   0.00   0.00     0.00  -0.00  -0.00     0.00  -0.00  -0.00
  48   1     0.00  -0.00   0.00    -0.00   0.00  -0.00    -0.00  -0.00  -0.00
  49   1    -0.00  -0.00  -0.00    -0.00  -0.00   0.00     0.00   0.00  -0.00
  50   1    -0.00   0.00  -0.00     0.00  -0.00   0.00     0.00  -0.00  -0.00
  51   1    -0.00  -0.00  -0.00    -0.00  -0.00  -0.00     0.00   0.00   0.00
  52   1     0.00  -0.00  -0.00    -0.00   0.00   0.00    -0.00  -0.00   0.00
  53   1     0.00  -0.00   0.00    -0.02   0.00  -0.00    -0.01   0.00  -0.00
  54   1     0.01  -0.02   0.00    -0.04   0.08  -0.00    -0.03   0.05  -0.00
  55   1    -0.04  -0.07  -0.01     0.12   0.18   0.02     0.07   0.11   0.01
  56   1    -0.28   0.01  -0.02     0.75  -0.03   0.07     0.43  -0.02   0.04
  57   1    -0.00  -0.00   0.00     0.00   0.00  -0.00    -0.01  -0.01   0.02
  58   1     0.00  -0.00   0.01     0.00  -0.00   0.00     0.00  -0.00   0.01
  59   1    -0.00  -0.00   0.01    -0.00  -0.00   0.00    -0.00  -0.00   0.00
  60   1     0.01  -0.00   0.01     0.00  -0.00   0.00     0.00  -0.00   0.00
  61   1    -0.05   0.00  -0.00     0.02  -0.00   0.00    -0.05   0.00  -0.00
  62   1    -0.01  -0.01  -0.00     0.00   0.00   0.00    -0.01  -0.02  -0.00
  63   1     0.00  -0.00   0.00    -0.00   0.00  -0.00     0.01  -0.01  -0.00
  64   1    -0.00   0.00  -0.00    -0.00   0.00   0.00     0.01  -0.00   0.00
  65   1    -0.00  -0.00   0.00    -0.00  -0.00   0.00     0.00   0.00  -0.00
  66   1     0.00   0.00   0.00     0.00   0.00   0.00    -0.00  -0.00  -0.00
  67   1    -0.00   0.00  -0.00     0.00  -0.00  -0.00     0.00  -0.00  -0.00
  68   1    -0.00   0.00   0.00     0.00  -0.00   0.00     0.00  -0.00   0.00
  69   1    -0.00  -0.00  -0.00    -0.00  -0.00  -0.00     0.00   0.00  -0.00
  70   1     0.00   0.00  -0.00     0.00   0.00  -0.00    -0.00   0.00   0.00
  71   1     0.02   0.00  -0.00     0.01   0.00  -0.00     0.01   0.00  -0.00
  72   1     0.05   0.09  -0.00     0.02   0.03  -0.00     0.01   0.01  -0.00
  73   1    -0.14   0.21   0.02    -0.05   0.07   0.01    -0.01   0.02   0.00
  74   1    -0.86  -0.04   0.08    -0.29  -0.01   0.03    -0.05  -0.00   0.00
  75   1     0.01   0.01  -0.02     0.00   0.00  -0.01     0.00   0.00  -0.00
  76   1    -0.00   0.00  -0.01    -0.00   0.00  -0.00    -0.00   0.00  -0.00
  77   1     0.00   0.00  -0.01     0.00   0.00  -0.00     0.00   0.00  -0.01
  78   1     0.00  -0.00   0.00    -0.01   0.01  -0.01    -0.01   0.01  -0.01
  79   1     0.09   0.00  -0.01    -0.43  -0.01   0.03     0.80   0.02  -0.06
  80   1     0.01  -0.02  -0.00    -0.07   0.10   0.01     0.12  -0.20  -0.02
  81   1    -0.01  -0.01  -0.00     0.02   0.04   0.00    -0.05  -0.08  -0.00
  82   1    -0.01  -0.00   0.00     0.01   0.00  -0.00    -0.02  -0.00   0.00
