$hessian                                                                        
        0.4965565882   0.0276144481  -0.0287873180  -0.0931615197   0.0389699163
       -0.0406206148   0.0065186075  -0.0075607946   0.0078810615  -0.0162103870
        0.0175609689  -0.0040033902  -0.0005975271  -0.0002285048  -0.0014800627
       -0.0004135615  -0.0002883086   0.0005661814   0.0000743771  -0.0000946187
        0.0001225744  -0.0005554774  -0.0004731127   0.0006618125   0.0001579078
        0.0023429171   0.0010333830  -0.0002601164  -0.0000138610   0.0000175242
        0.0001981361  -0.0000602524   0.0000626191  -0.0000262518   0.0000501846
       -0.0000529956  -0.0000008757  -0.0000046101   0.0000053576  -0.0000001765
       -0.0000125920   0.0000132322   0.0000157554  -0.0000023406   0.0000024659
        0.0000045231  -0.0000004956   0.0000004676   0.0000010871   0.0000002086
       -0.0000001828  -0.0000057254  -0.0000002494   0.0000007796   0.0000004595
       -0.0000003549   0.0000002453   0.0000084677   0.0000004097  -0.0000003687
       -0.0000082402  -0.0000040533   0.0000039750  -0.0000011685  -0.0000012229
        0.0000011934   0.0000037558  -0.0000006964   0.0000006939   0.0000020857
        0.0000009610  -0.0000009049   0.0000002058   0.0000014371  -0.0000013619
        0.0000010048  -0.0000031185   0.0000029958  -0.0000010151  -0.0000003326
        0.0000003314   0.0000045913   0.0000000663  -0.0000001007   0.0000018624
       -0.0000010760  -0.0000008162   0.0000018839   0.0000007702   0.0000010947
       -0.0000040196  -0.0000006316   0.0000006173   0.0000016730   0.0000043090
       -0.0000041296   0.0000005587  -0.0000017887   0.0000017183   0.0000007567
        0.0000001036  -0.0000000905   0.0000036962  -0.0000005674   0.0000005715
        0.0000034478   0.0000068059  -0.0000066104   0.0000004831  -0.0000001953
        0.0000002790  -0.0000056218  -0.0000009983   0.0000001678   0.0000160948
       -0.0000019742   0.0000018551  -0.0000148907  -0.0000112986   0.0000120704
        0.0001641476  -0.0011319468  -0.0023003223  -0.0005547130  -0.0006424006
        0.0005014157   0.0000733037  -0.0001174755   0.0001003875  -0.0004119974
       -0.0005526357   0.0003134862  -0.0005970069   0.0014883214   0.0001648640
       -0.0162279491   0.0032739925  -0.0177162759  -0.1238999664  -0.0815092794
       -0.0799921261  -0.1269244555  -0.0793358394   0.0827509394  -0.1237948292
        0.0833009795   0.0780735655   0.0006351037  -0.0003007530   0.0004771385
        0.0006348993  -0.0004639397   0.0003196972  -0.0010170042  -0.0024459987
        0.0025508354  -0.0000779890  -0.0001090219  -0.0003769273  -0.0000111448
       -0.0000074839  -0.0000416872   0.0000075900   0.0000954720  -0.0001101760
       -0.0000973150   0.0001732092  -0.0000147508  -0.0000197386  -0.0000086854
        0.0000096481  -0.0000228332  -0.0000067868   0.0000072086   0.0000025624
        0.0000002232  -0.0000007524  -0.0000006802   0.0000008539   0.0000005156
        0.0000008528  -0.0000000762   0.0000000654   0.0000012416  -0.0000002585
        0.0000002618   0.0000007699   0.0000003276  -0.0000003044  -0.0000001703
        0.0000003772  -0.0000003606   0.0000000242  -0.0000006023   0.0000009797
        0.0000014426   0.0000002107   0.0000000639   0.0000004593   0.0000007388
       -0.0000004513   0.0000014393  -0.0000000409  -0.0000002066   0.0000004580
        0.0000004927  -0.0000007255   0.0000000293  -0.0000010101   0.0000005496
        0.0000000855  -0.0000005300   0.0000004885   0.0000004422  -0.0000008086
        0.0000007465   0.0000016119  -0.0000007429   0.0000006727   0.0000013982
        0.0000006092  -0.0000006126  -0.0000006220  -0.0000004411  -0.0000008413
        0.0000025688   0.0000008436  -0.0000000991  -0.0000118848   0.0000002432
       -0.0000001224   0.0000085764  -0.0000214383   0.0000224510  -0.0000978376
        0.0000071312  -0.0001731492   0.0000073180   0.0001060536  -0.0001001896
       -0.0000111177   0.0000421082   0.0000057208  -0.0000785045   0.0003805509
        0.0000920579
        0.0276144481   0.4946428565   0.0349643846   0.0339877239  -0.0972529790
        0.0365434403   0.0075207418  -0.0138987974   0.0157667846   0.0171749245
       -0.0147947573   0.0056537795   0.0003772863  -0.0004511056   0.0001615352
        0.0002737480   0.0006366288  -0.0000920059   0.0001411189  -0.0001156843
       -0.0001021535   0.0004869164   0.0005821886  -0.0005989670  -0.0009294723
       -0.0027516171  -0.0014467685  -0.0000182820   0.0014192638   0.0015589002
        0.0000597533   0.0000602888  -0.0000748474  -0.0000082860   0.0000311075
       -0.0000019958   0.0000092213   0.0000116169  -0.0000051888   0.0000055521
       -0.0000066113   0.0000056901   0.0000019490  -0.0000002812   0.0000004294
        0.0000143358   0.0000012102   0.0000001303  -0.0000032297   0.0000002449
        0.0000015791  -0.0000043106  -0.0000006499  -0.0000004677  -0.0000018843
        0.0000001098   0.0000000597   0.0000018205   0.0000001338  -0.0000014357
       -0.0000025752   0.0000011482   0.0000007390   0.0000003318  -0.0000015047
        0.0000006155  -0.0000012709   0.0000006578  -0.0000001788  -0.0000004225
       -0.0000002216   0.0000002565  -0.0000005850   0.0000002713  -0.0000003211
       -0.0000008322   0.0000002053  -0.0000003277  -0.0000003223  -0.0000000425
       -0.0000000942  -0.0000006642  -0.0000005781   0.0000001108  -0.0000010851
        0.0000000702   0.0000001444  -0.0000007630  -0.0000004813  -0.0000002380
       -0.0000010725  -0.0000003899   0.0000004101  -0.0000003874   0.0000003246
       -0.0000003154  -0.0000007377   0.0000003128  -0.0000001660  -0.0000006130
       -0.0000001393   0.0000003643  -0.0000008686   0.0000003692   0.0000002034
       -0.0000004079   0.0000003424  -0.0000010184  -0.0000002274   0.0000008962
        0.0000010343  -0.0000031425  -0.0000021487  -0.0000017904   0.0000057693
       -0.0000019703   0.0000017618  -0.0000382601  -0.0000052888   0.0000278036
       -0.0003217671  -0.0024191613  -0.0023519241  -0.0002378001  -0.0001341290
        0.0008286377   0.0000373031  -0.0001170158  -0.0002125237   0.0000000240
        0.0001432352   0.0006019594  -0.0004036460  -0.0005924506  -0.0013891090
       -0.0076465130   0.0087714928  -0.0067066718  -0.0819385110  -0.1228923867
       -0.0808113246  -0.0790097789  -0.1181123572   0.0764975222   0.0829257898
       -0.1299531894  -0.0800461440   0.0009036278   0.0003955024   0.0000702531
        0.0004504951   0.0005779989  -0.0007996053  -0.0017146870  -0.0022959604
        0.0029260917   0.0007421864  -0.0012123158   0.0001502095   0.0000000232
        0.0000220082  -0.0000195267   0.0000247755  -0.0000871787   0.0001132042
        0.0000874566  -0.0001141745  -0.0000763945  -0.0000118501  -0.0000198268
        0.0000039503   0.0000007324  -0.0000045720   0.0000003535  -0.0000019185
       -0.0000005016  -0.0000007263  -0.0000005802   0.0000000984  -0.0000001452
       -0.0000012454  -0.0000003089  -0.0000002653  -0.0000011558  -0.0000005512
        0.0000000567  -0.0000004786  -0.0000005650   0.0000000670  -0.0000001975
       -0.0000002213  -0.0000002001  -0.0000003979   0.0000000244  -0.0000004356
       -0.0000008309  -0.0000001554  -0.0000001579  -0.0000005843  -0.0000003599
       -0.0000001220  -0.0000009153   0.0000000946   0.0000003129  -0.0000004670
       -0.0000003386  -0.0000000286  -0.0000001817   0.0000001143  -0.0000003564
       -0.0000002547  -0.0000000641  -0.0000001371  -0.0000003783   0.0000001177
       -0.0000001957  -0.0000007198   0.0000001817  -0.0000002459  -0.0000009749
       -0.0000002965  -0.0000000617   0.0000004489   0.0000004693   0.0000004221
       -0.0000005172   0.0000019648   0.0000020206   0.0000001196   0.0000009202
       -0.0000020056  -0.0000028914  -0.0000061144  -0.0000138553  -0.0001397937
       -0.0000374411  -0.0001480804  -0.0000348600   0.0000684908  -0.0000939142
        0.0000186924  -0.0000707644   0.0000466939  -0.0003737169  -0.0000153128
       -0.0009294741
       -0.0287873180   0.0349643846   0.4917366599  -0.0354248186   0.0365430384
       -0.1002826724  -0.0078429770   0.0157718307  -0.0152170310   0.0069378145
       -0.0057284680   0.0088153093   0.0003862951  -0.0013931146  -0.0005399599
       -0.0000102466   0.0005807449   0.0001208771  -0.0000441448  -0.0002135328
       -0.0001048469   0.0002189954   0.0007991907  -0.0001435805   0.0003641014
       -0.0023379612  -0.0022588439   0.0000154954   0.0015590335   0.0012875601
       -0.0000608000  -0.0000743804   0.0000660491   0.0000079136  -0.0000013091
        0.0000312429  -0.0000097989  -0.0000052255   0.0000121849  -0.0000061767
        0.0000052583  -0.0000063007  -0.0000019064   0.0000003069  -0.0000002338
       -0.0000149197   0.0000001944   0.0000011347   0.0000033393   0.0000015540
        0.0000004150   0.0000033440  -0.0000016306  -0.0000022591   0.0000002731
        0.0000010669   0.0000010302  -0.0000018288  -0.0000014781  -0.0000000036
        0.0000025950   0.0000009024   0.0000008900  -0.0000001217   0.0000005017
       -0.0000012823   0.0000012870  -0.0000001378   0.0000005853   0.0000004241
        0.0000002163  -0.0000001310   0.0000006433  -0.0000002833   0.0000002494
        0.0000008481  -0.0000003216   0.0000002108   0.0000002869  -0.0000000776
       -0.0000000377   0.0000006826   0.0000001273  -0.0000005253   0.0000008100
       -0.0000002004  -0.0000004922   0.0000011036   0.0000001840   0.0000000679
        0.0000011729   0.0000003710  -0.0000004942   0.0000004098  -0.0000003597
        0.0000003275   0.0000007437  -0.0000001504   0.0000002459   0.0000006653
        0.0000003352  -0.0000001363   0.0000009371   0.0000001931   0.0000002999
        0.0000002748  -0.0000011873   0.0000005055   0.0000019196   0.0000000915
        0.0000001237   0.0000043846  -0.0000002206  -0.0000006747  -0.0000049431
        0.0000018941  -0.0000020734   0.0000390432   0.0000283721  -0.0000086471
        0.0009469528  -0.0014623453  -0.0025921977  -0.0004758743  -0.0005693848
        0.0005725915  -0.0001436479  -0.0001009974  -0.0001012502  -0.0002726312
       -0.0000702528   0.0006159274  -0.0003618648   0.0001669832  -0.0004015884
       -0.0168738345   0.0046703609  -0.0147418887  -0.0795985841  -0.0802852173
       -0.1231723749   0.0824113867   0.0764978471  -0.1245639598   0.0785183783
       -0.0805713768  -0.1162203339  -0.0004889998  -0.0007920686   0.0006087625
       -0.0009232821   0.0000631980   0.0004258037   0.0017884898   0.0029261163
       -0.0025419794   0.0003432105  -0.0008798668   0.0000169976  -0.0000184844
        0.0000426027  -0.0000718669   0.0000336962  -0.0000874150   0.0000678531
        0.0001360007  -0.0001456612  -0.0000276324   0.0000121888   0.0000030415
       -0.0000200925  -0.0000008150   0.0000002306  -0.0000045513   0.0000005467
        0.0000018209   0.0000021237  -0.0000004281   0.0000003638   0.0000005243
        0.0000013062  -0.0000002694  -0.0000002659   0.0000011983   0.0000001511
       -0.0000005692   0.0000004812   0.0000001421  -0.0000005519   0.0000002157
       -0.0000001659  -0.0000002058   0.0000002196  -0.0000003666   0.0000001140
        0.0000009607   0.0000002938   0.0000001442   0.0000004623   0.0000000125
       -0.0000003430   0.0000008597  -0.0000001526  -0.0000001591   0.0000005843
       -0.0000000789  -0.0000003708   0.0000004325  -0.0000004238   0.0000000049
        0.0000002549  -0.0000001280  -0.0000000689   0.0000003959  -0.0000002096
        0.0000001047   0.0000007535  -0.0000002415   0.0000001440   0.0000009788
       -0.0000000693  -0.0000002727   0.0000005502  -0.0000001927   0.0000000595
        0.0000019940  -0.0000008718  -0.0000006165  -0.0000000322  -0.0000020838
        0.0000011628   0.0000033227  -0.0000142356  -0.0000043913  -0.0000817231
       -0.0000798181  -0.0001042212  -0.0000235859   0.0001064473  -0.0000880387
       -0.0000006064  -0.0000156087   0.0000209016  -0.0007272297   0.0001001375
       -0.0011791715
       -0.0931615197   0.0339877239  -0.0354248186   0.4583230083   0.0000013775
        0.0000102289  -0.0933212712  -0.0340240173   0.0354827562  -0.1025509356
        0.0400137494   0.0383254232   0.0089160822  -0.0029215192  -0.0027867777
       -0.0012355313  -0.0020451442  -0.0019658994   0.0001140615   0.0008307079
        0.0007965312  -0.0045165678  -0.0016672366  -0.0016075287  -0.0207468924
        0.0169453661   0.0162202035   0.0037055800  -0.0000038076   0.0000014576
       -0.0002101617  -0.0000002091   0.0000002142   0.0002411296   0.0000682802
       -0.0000717896   0.0000227004   0.0000101154  -0.0000110566   0.0000411777
       -0.0000000528   0.0000000414   0.0000070457  -0.0000000127   0.0000000073
       -0.0000204208  -0.0000000011   0.0000000107  -0.0000047420  -0.0000000033
       -0.0000000090   0.0000179430   0.0000040977   0.0000046935   0.0000053511
        0.0000061922   0.0000063561  -0.0000278060   0.0000000030   0.0000000041
        0.0000365038  -0.0000000108  -0.0000000031  -0.0000101627   0.0000197370
       -0.0000190542   0.0000019495  -0.0000067305   0.0000064843   0.0000012299
        0.0000051578  -0.0000049048   0.0000032971   0.0000021576  -0.0000020254
        0.0000013711  -0.0000013417   0.0000013381   0.0000059680  -0.0000042624
        0.0000041022   0.0000038529   0.0000000018  -0.0000000027   0.0000045920
       -0.0000006624  -0.0000006808   0.0000045933   0.0000006665   0.0000006784
        0.0000059620   0.0000042679  -0.0000041001   0.0000013687   0.0000013493
       -0.0000013377   0.0000032951  -0.0000021543   0.0000020256   0.0000012251
       -0.0000051525   0.0000049028   0.0000019446   0.0000067331  -0.0000064771
       -0.0000101525  -0.0000197187   0.0000190528   0.0000053506  -0.0000061949
       -0.0000063553   0.0000179421  -0.0000040938  -0.0000046930   0.0000227637
       -0.0000101492   0.0000111180   0.0002412759  -0.0000682366   0.0000715187
       -0.0207619910  -0.0169170899  -0.0162344171  -0.0045150544   0.0016770319
        0.0016005610   0.0001133896  -0.0008307132  -0.0007966902  -0.0012326284
        0.0020504052   0.0019594709   0.0089130344   0.0028995128   0.0027824789
       -0.1026018302  -0.0399837021  -0.0383856435  -0.0128288105   0.0082251869
       -0.0130554235   0.0085049629  -0.0080405719   0.0083809890  -0.0128209701
        0.0126990212  -0.0087536841  -0.0128569145  -0.0126927207   0.0087502052
       -0.0128483022  -0.0082022875   0.0130430403   0.0085034461   0.0080022818
       -0.0083466042  -0.0002963696  -0.0005373219  -0.0005131846   0.0001957888
       -0.0006686823  -0.0006411394   0.0000857916  -0.0001149972  -0.0001091997
       -0.0007409703   0.0007595106   0.0007259808  -0.0000526030   0.0000013930
       -0.0000010128   0.0000177293   0.0000088785  -0.0000094891   0.0000018660
        0.0000000311  -0.0000000812   0.0000058340  -0.0000023905  -0.0000024976
        0.0000054705   0.0000014621  -0.0000013521   0.0000024135  -0.0000008501
        0.0000008739   0.0000050130  -0.0000015414   0.0000015335   0.0000054165
       -0.0000002131   0.0000002335   0.0000034436   0.0000005671  -0.0000007640
        0.0000024213   0.0000002758   0.0000003124   0.0000034464  -0.0000007885
        0.0000005584   0.0000024197  -0.0000002684  -0.0000003112   0.0000034449
       -0.0000005608   0.0000007633   0.0000034437   0.0000007939  -0.0000005593
        0.0000054144   0.0000002163  -0.0000002372   0.0000050073   0.0000015440
       -0.0000015348   0.0000024095   0.0000008507  -0.0000008711   0.0000054694
       -0.0000014634   0.0000013479   0.0000058314   0.0000023919   0.0000024986
        0.0000018651  -0.0000000311   0.0000000806   0.0000177611  -0.0000088986
        0.0000095289  -0.0000524847  -0.0000015539   0.0000012224  -0.0007412844
       -0.0007591915  -0.0007257691   0.0000858925   0.0001137270   0.0001105641
        0.0001959496   0.0006683408   0.0006407001  -0.0002965639   0.0005354428
        0.0005158871
        0.0389699163  -0.0972529790   0.0365430384   0.0000013775   0.4639685957
        0.0364005110  -0.0390032951  -0.0971573417   0.0364637644   0.0416522276
       -0.1036552243  -0.0471480406   0.0079100748  -0.0171386533  -0.0158585275
       -0.0025781614   0.0018361863  -0.0046710349   0.0002627599  -0.0001431620
       -0.0001195858  -0.0007363873   0.0034237538  -0.0029149773   0.0069892658
        0.0018548904   0.0001906800  -0.0000032890  -0.0035856655  -0.0001326681
        0.0000001700   0.0000199698  -0.0001502667  -0.0000405868   0.0000021794
       -0.0000785228  -0.0000146916  -0.0000092426   0.0000102623  -0.0000000210
       -0.0000049621   0.0000200553  -0.0000000142  -0.0000082739   0.0000047228
        0.0000000010  -0.0000011129   0.0000018657  -0.0000000023   0.0000022295
        0.0000011858  -0.0000004800  -0.0000010290   0.0000011799   0.0000013991
       -0.0000010651   0.0000001186   0.0000000018   0.0000018927  -0.0000007776
       -0.0000000048  -0.0000100582   0.0000072246  -0.0000046872   0.0000060406
       -0.0000055831   0.0000002204  -0.0000017398   0.0000005962   0.0000012375
        0.0000007192  -0.0000013737  -0.0000004129  -0.0000007859   0.0000000866
       -0.0000005746   0.0000012546  -0.0000018240   0.0000032645  -0.0000010790
        0.0000005158  -0.0000000004   0.0000000791   0.0000000369   0.0000000681
       -0.0000005109  -0.0000001281  -0.0000000715  -0.0000005105  -0.0000001270
       -0.0000032727  -0.0000010788   0.0000005188   0.0000005721   0.0000012572
       -0.0000018264   0.0000004097  -0.0000007858   0.0000000874  -0.0000012447
        0.0000007199  -0.0000013701  -0.0000002253  -0.0000017377   0.0000005963
        0.0000046821   0.0000060424  -0.0000055887  -0.0000013990  -0.0000010650
        0.0000001196   0.0000004692  -0.0000010221   0.0000011899   0.0000147065
       -0.0000092134   0.0000102411   0.0000402038   0.0000021882  -0.0000786128
       -0.0069634846   0.0018804478   0.0002058022   0.0007452698   0.0034212020
       -0.0029176075  -0.0002634387  -0.0001412334  -0.0001181492   0.0025836849
        0.0018327258  -0.0046722099  -0.0079293855  -0.0171282605  -0.0158660513
       -0.0416242679  -0.1035443332  -0.0471268847  -0.0080639940   0.0083539154
       -0.0089038652   0.0087777177  -0.0121864810   0.0127371078   0.0131456784
       -0.0131541637   0.0097125721  -0.0131527622  -0.0131182438   0.0096900362
        0.0081000015   0.0083547880  -0.0089157538  -0.0088162664  -0.0121858732
        0.0127421111   0.0007568469  -0.0009478933   0.0018094866   0.0004180573
       -0.0004395383  -0.0005865325  -0.0000495244  -0.0006546626   0.0008554133
       -0.0002560882  -0.0001892031   0.0003241642  -0.0000186322  -0.0000280595
        0.0000608795  -0.0000056979  -0.0000012660   0.0000116100   0.0000001473
        0.0000003622  -0.0000016462  -0.0000000064   0.0000003304  -0.0000006003
       -0.0000007993   0.0000005095  -0.0000002680  -0.0000005836  -0.0000011578
        0.0000009929   0.0000003793  -0.0000006363   0.0000003134  -0.0000001079
       -0.0000002294  -0.0000001675  -0.0000004594  -0.0000002035  -0.0000000381
        0.0000001656   0.0000001915  -0.0000002065   0.0000004049  -0.0000004198
       -0.0000002013  -0.0000001702   0.0000001907  -0.0000002059   0.0000004553
       -0.0000002048  -0.0000000382  -0.0000004091  -0.0000004193  -0.0000002012
        0.0000001039  -0.0000002289  -0.0000001672  -0.0000003832  -0.0000006359
        0.0000003147   0.0000005791  -0.0000011586   0.0000009932   0.0000007956
        0.0000005085  -0.0000002680   0.0000000008   0.0000003287  -0.0000006012
       -0.0000001527   0.0000003585  -0.0000016509   0.0000056794  -0.0000012527
        0.0000116055   0.0000186736  -0.0000280476   0.0000607930   0.0002563566
       -0.0001888261   0.0003250221   0.0000483094  -0.0006551553   0.0008553629
       -0.0004183475  -0.0004396478  -0.0005874463  -0.0007585519  -0.0009481241
        0.0018084179
       -0.0406206148   0.0365434403  -0.1002826724   0.0000102289   0.0364005110
        0.4608632772   0.0406755688   0.0364609688  -0.1002280235   0.0399181846
       -0.0471567825  -0.0996213433   0.0075908319  -0.0158706790  -0.0157958160
       -0.0024853117  -0.0046644047   0.0022279891   0.0002570947  -0.0001153264
       -0.0001278843  -0.0007184156  -0.0029153037   0.0036646760   0.0066542034
        0.0001970363   0.0018556799   0.0000009841  -0.0001287343  -0.0035546511
       -0.0000001465  -0.0001495718   0.0000314090   0.0000421553  -0.0000776533
        0.0000108344   0.0000163495   0.0000105181  -0.0000096956   0.0000000292
        0.0000205256  -0.0000071598  -0.0000000464   0.0000045414  -0.0000090002
       -0.0000000046   0.0000018866  -0.0000012060   0.0000000067   0.0000010926
        0.0000024438  -0.0000002995   0.0000014401  -0.0000007209   0.0000013968
        0.0000002166  -0.0000008831   0.0000000059  -0.0000008389   0.0000016981
       -0.0000000134   0.0000075885  -0.0000099389   0.0000047805  -0.0000058719
        0.0000058992  -0.0000002728   0.0000006853  -0.0000018291  -0.0000012685
       -0.0000014793   0.0000006770   0.0000004304   0.0000000863  -0.0000008125
        0.0000005435  -0.0000018667   0.0000011196  -0.0000032936   0.0000005152
       -0.0000010529   0.0000000037   0.0000000062   0.0000001938   0.0000000985
       -0.0000001139  -0.0000005235  -0.0000000948  -0.0000001117  -0.0000005244
        0.0000032920   0.0000005109  -0.0000012153  -0.0000005394  -0.0000018657
        0.0000011129  -0.0000004299   0.0000000810  -0.0000008158   0.0000012724
       -0.0000014849   0.0000006703   0.0000002810   0.0000006813  -0.0000018330
       -0.0000047694  -0.0000058599   0.0000058908  -0.0000013897   0.0000002160
       -0.0000010477   0.0000003128   0.0000014583  -0.0000007073  -0.0000163416
        0.0000105345  -0.0000096875  -0.0000419951  -0.0000776244   0.0000108277
       -0.0066660794   0.0001954181   0.0018452419   0.0007126479  -0.0029139975
        0.0036657478  -0.0002565970  -0.0001161930  -0.0001291297   0.0024785727
       -0.0046659982   0.0022285543  -0.0075977101  -0.0158609328  -0.0158031454
       -0.0399761391  -0.0471313210  -0.0996794072  -0.0128174607   0.0088155390
       -0.0131793150  -0.0091552675   0.0127430182  -0.0132515486   0.0075258304
       -0.0080122119   0.0083208875  -0.0075534062  -0.0080118539   0.0083225033
        0.0128298433   0.0087918946  -0.0131598076   0.0091893916   0.0127365653
       -0.0132507260   0.0007285692   0.0018074087  -0.0011004148   0.0004005842
       -0.0005882607  -0.0003889632  -0.0000446788   0.0008546925  -0.0007273418
       -0.0002445899   0.0003259891  -0.0002177782   0.0000200052   0.0000602750
       -0.0000342322   0.0000060421   0.0000116414  -0.0000024229   0.0000000840
       -0.0000017858   0.0000000943   0.0000000790  -0.0000006773   0.0000002089
        0.0000008093  -0.0000002590   0.0000005050   0.0000005937   0.0000010902
       -0.0000011377  -0.0000004187   0.0000003646  -0.0000006424   0.0000001066
       -0.0000001565  -0.0000002439   0.0000004333  -0.0000001948  -0.0000004660
        0.0000001379  -0.0000002718   0.0000001248  -0.0000004838  -0.0000000236
       -0.0000002442  -0.0000001358  -0.0000002675   0.0000001235  -0.0000004313
       -0.0000001916  -0.0000004670   0.0000004861  -0.0000000243  -0.0000002469
       -0.0000001064  -0.0000001597  -0.0000002467   0.0000004205   0.0000003578
       -0.0000006467  -0.0000005921   0.0000010866  -0.0000011427  -0.0000008103
       -0.0000002614   0.0000005032  -0.0000000827  -0.0000006771   0.0000002039
       -0.0000000812  -0.0000017869   0.0000000885  -0.0000060453   0.0000116368
       -0.0000024077  -0.0000200028   0.0000602147  -0.0000341823   0.0002448275
        0.0003254913  -0.0002177518   0.0000459973   0.0008546787  -0.0007269692
       -0.0004010522  -0.0005874945  -0.0003890271  -0.0007260977   0.0018086704
       -0.0011000869
        0.0065186075   0.0075207418  -0.0078429770  -0.0933212712  -0.0390032951
        0.0406755688   0.4964434213  -0.0276420611   0.0288329593  -0.0162481307
       -0.0032448830   0.0177045596  -0.0005984374  -0.0014879411  -0.0001655571
       -0.0004113046   0.0005527312  -0.0003134609   0.0000729844   0.0001172129
       -0.0001007851  -0.0005544099   0.0006432971  -0.0005007590   0.0001652559
        0.0011303334   0.0022998994  -0.0002596125   0.0000150144  -0.0000166599
        0.0001978823   0.0000601681  -0.0000626493  -0.0000148365   0.0000112769
       -0.0000119956   0.0000160727   0.0000019687  -0.0000018522  -0.0000001869
        0.0000125791  -0.0000132071   0.0000157467   0.0000023325  -0.0000024594
        0.0000044880   0.0000004978  -0.0000004796   0.0000010990  -0.0000002079
        0.0000001951  -0.0000056187   0.0000009864  -0.0000001709   0.0000004866
        0.0000001962  -0.0000002616   0.0000084721  -0.0000004071   0.0000003681
       -0.0000082486   0.0000040492  -0.0000039643   0.0000034481  -0.0000068042
        0.0000066063   0.0000037017   0.0000005669  -0.0000005746   0.0000007623
       -0.0000001025   0.0000000900   0.0000005594   0.0000017895  -0.0000017192
        0.0000016754  -0.0000043067   0.0000041278  -0.0000040159   0.0000006345
       -0.0000005993   0.0000045932  -0.0000000669   0.0000000956   0.0000018840
       -0.0000007697  -0.0000010974   0.0000018654   0.0000010770   0.0000008142
       -0.0000010182   0.0000003341  -0.0000003464   0.0000010049   0.0000031220
       -0.0000029975   0.0000002057  -0.0000014356   0.0000013612   0.0000020855
       -0.0000009587   0.0000009005   0.0000037587   0.0000006919  -0.0000006942
       -0.0000011605   0.0000012347  -0.0000012021   0.0000004604   0.0000003541
       -0.0000002615  -0.0000057127   0.0000002447  -0.0000007762  -0.0000009184
        0.0000046014  -0.0000053621  -0.0000261540  -0.0000500914   0.0000528954
        0.0001572455  -0.0023457497  -0.0010342478  -0.0005557351   0.0004736185
       -0.0006628392   0.0000739633   0.0000948054  -0.0001224714  -0.0004131551
        0.0002893440  -0.0005659649  -0.0005983869   0.0002284286   0.0014798107
       -0.0162549876  -0.0175527288   0.0039931565   0.0006345135   0.0004638686
       -0.0003206414  -0.0010079635   0.0024420555  -0.0025457435   0.0006342893
        0.0003009467  -0.0004769946  -0.1239083559  -0.0832506932  -0.0781898754
       -0.1237963697   0.0815713088   0.0798859544  -0.1265818962   0.0792925737
       -0.0826473282  -0.0000788345  -0.0003807306  -0.0000925597  -0.0000111655
       -0.0000422199  -0.0000056404   0.0000071591  -0.0001059951   0.0001001269
       -0.0000978681  -0.0000069327   0.0001730529   0.0000085756   0.0000214443
       -0.0000224686  -0.0000118896  -0.0000002489   0.0000001185   0.0000025715
       -0.0000008391   0.0000001010  -0.0000006255   0.0000004435   0.0000008414
        0.0000013988  -0.0000006086   0.0000006121   0.0000016151   0.0000007421
       -0.0000006740   0.0000004442   0.0000008108  -0.0000007486   0.0000000850
        0.0000005327  -0.0000004896   0.0000004584  -0.0000004909   0.0000007255
        0.0000014415   0.0000000421   0.0000002043   0.0000000310   0.0000010137
       -0.0000005513   0.0000014446  -0.0000002095  -0.0000000663   0.0000000249
        0.0000006056  -0.0000009813   0.0000004586  -0.0000007377   0.0000004511
       -0.0000001720  -0.0000003746   0.0000003604   0.0000007677  -0.0000003273
        0.0000003050   0.0000012423   0.0000002582  -0.0000002607   0.0000008532
        0.0000000789  -0.0000000659  -0.0000006809  -0.0000008543  -0.0000005179
        0.0000025664  -0.0000002235   0.0000007504  -0.0000228052   0.0000067647
       -0.0000071978  -0.0000196815   0.0000086161  -0.0000095601  -0.0000975929
       -0.0001732316   0.0000145237   0.0000074025  -0.0000955294   0.0001102216
       -0.0000111460   0.0000074540   0.0000417552  -0.0000787252   0.0001082631
        0.0003772452
       -0.0075607946  -0.0138987974   0.0157718307  -0.0340240173  -0.0971573417
        0.0364609688  -0.0276420611   0.4947264360   0.0349020186   0.0076862056
        0.0087658309  -0.0067251887   0.0004037509  -0.0005907766  -0.0013886848
        0.0000005600   0.0001428451   0.0006022048  -0.0000373859  -0.0001170946
       -0.0002122872   0.0002384203  -0.0001352503   0.0008292173   0.0003203620
       -0.0024218328  -0.0023547237   0.0000194426   0.0014192865   0.0015587026
       -0.0000600239   0.0000602044  -0.0000746884   0.0000382701  -0.0000053361
        0.0000278376  -0.0000057590  -0.0000019703   0.0000017601  -0.0000055060
       -0.0000066090   0.0000056873  -0.0000019869  -0.0000003079   0.0000004310
       -0.0000143843   0.0000012031   0.0000001226   0.0000032457   0.0000002737
        0.0000015777   0.0000031603  -0.0000021582  -0.0000017970   0.0000002331
        0.0000008985   0.0000011082  -0.0000018305   0.0000001312  -0.0000014329
        0.0000025786   0.0000011474   0.0000007397   0.0000004011   0.0000003508
       -0.0000010216   0.0000008690   0.0000003701   0.0000002097   0.0000006123
       -0.0000001320   0.0000003664   0.0000007366   0.0000003177  -0.0000001605
        0.0000003860   0.0000003292  -0.0000003121   0.0000010727  -0.0000003897
        0.0000003479   0.0000006638  -0.0000005767   0.0000001113   0.0000007618
       -0.0000004812  -0.0000002358   0.0000010837   0.0000000730   0.0000001438
        0.0000003207  -0.0000000413  -0.0000001619   0.0000008302   0.0000002043
       -0.0000003315   0.0000005825   0.0000002674  -0.0000003235   0.0000004220
       -0.0000002272   0.0000002543   0.0000012696   0.0000006561  -0.0000001817
       -0.0000003373  -0.0000015084   0.0000006209   0.0000018891   0.0000001063
        0.0000001219   0.0000043270  -0.0000006427  -0.0000004610  -0.0000092359
        0.0000116341  -0.0000051828   0.0000083273   0.0000311588  -0.0000019893