$hessian                                                                        
        0.0688125301   0.0399382001  -0.0361919927  -0.0647342216  -0.0352770639
        0.0261824790   0.0080248024   0.0011013022   0.0096684895   0.0065613125
        0.0263846749  -0.0150028062  -0.0174565766  -0.0305114684   0.0158540264
       -0.0013409863   0.0010526904   0.0024385166  -0.0025223093   0.0003453467
       -0.0017246052   0.0027648974  -0.0001155262  -0.0000988340  -0.0018543010
       -0.0004712879   0.0001164632   0.0002597847   0.0000162306  -0.0000826588
       -0.0000103136   0.0000650266  -0.0000069826  -0.0000366655  -0.0000159933
        0.0000352178   0.0000160176  -0.0000359435   0.0000286638  -0.0000763152
        0.0000048870   0.0000452778   0.0000401695  -0.0000711936  -0.0000242767
        0.0000075364   0.0000142682   0.0000075593  -0.0000510421   0.0000721779
       -0.0000362679  -0.0001277667  -0.0000194238   0.0000246987   0.0001170233
       -0.0000480778  -0.0000004638   0.0000376965   0.0001014535  -0.0000647686
        0.0000560010  -0.0000527854   0.0000400304  -0.0000978895  -0.0000669022
        0.0000122918   0.0000968408   0.0001291383  -0.0000518630   0.0000588433
       -0.0000992104   0.0000260284   0.0001051999   0.0000373829  -0.0000368608
       -0.0001124838   0.0000067127  -0.0000132864  -0.0000375948  -0.0000823982
        0.0000238463  -0.0000514466   0.0000746904   0.0000017804   0.0000021962
        0.0000183551  -0.0000415228  -0.0000310851  -0.0000300769   0.0000007659
       -0.0006815418  -0.0003486112  -0.0001193880   0.0000643695  -0.0001084264
       -0.0000156002  -0.0000830856   0.0000427617  -0.0000001134   0.0000089479
       -0.0000167902   0.0000300482  -0.0000843900   0.0000095429  -0.0000466480
        0.0000564762   0.0000734512   0.0000140803  -0.0000787862  -0.0000723289
        0.0000047328  -0.0000248074   0.0000863904  -0.0000221250  -0.0001137572
        0.0000067792   0.0000019785   0.0000987800  -0.0000543449   0.0000304392
        0.0000718105   0.0000936784  -0.0000325890   0.0000881786  -0.0001647808
        0.0000533172  -0.0000960973   0.0001029325  -0.0000162659   0.0000644354
        0.0000442487  -0.0000418000   0.0000289887  -0.0001113437   0.0000637146
        0.0001356522   0.0000307107  -0.0000077355  -0.0001270843   0.0000335665
       -0.0000154876  -0.0000552212  -0.0000645163   0.0000410057   0.0000079507
       -0.0000242304  -0.0000032593   0.0000502812   0.0000212913  -0.0000126853
       -0.0000594052   0.0000541507   0.0000043084   0.0009480603  -0.0001521061
        0.0000720391  -0.0004392891   0.0006289673  -0.0011920729   0.0019551879
       -0.0020900495  -0.0006014625  -0.0000756099  -0.0002252136   0.0005320508
       -0.0001838523   0.0000067944  -0.0002072263   0.0000168950   0.0000125985
       -0.0000055090  -0.0000232697   0.0000057882  -0.0000048299   0.0000110911
        0.0000099885  -0.0000001646   0.0000066204  -0.0000218313   0.0000122716
       -0.0000131260  -0.0000199790   0.0000123496  -0.0000138539   0.0000058271
        0.0000038920  -0.0000075000   0.0000023838   0.0000088725  -0.0000020529
        0.0000155845   0.0000010905   0.0000037451   0.0000144104   0.0000042733
        0.0000031400  -0.0000010108   0.0000130678  -0.0000197853   0.0000035503
       -0.0000086127   0.0000140403   0.0000090252  -0.0000088421   0.0000146617
       -0.0000199934   0.0000044112  -0.0000228239  -0.0000005726   0.0000086846
        0.0000000702  -0.0000015621  -0.0000108659  -0.0000027359  -0.0000141297
       -0.0000042840  -0.0000069877  -0.0000128543  -0.0000026220  -0.0000093615
        0.0000007085  -0.0000106504  -0.0000101393  -0.0000023711  -0.0000054153
       -0.0000057328   0.0000230147  -0.0000137200   0.0000181365   0.0000218351
       -0.0000134892   0.0000141344  -0.0000180313   0.0000023610  -0.0000273134
       -0.0000108239   0.0000085488   0.0000140567  -0.0000208739   0.0000092762
        0.0001520452  -0.0002483911   0.0003577043
        0.0399382001   0.1966192045  -0.1219575026  -0.0417936053  -0.1298213615
        0.0643635508   0.0016082428   0.0114488158   0.0166337343   0.0224094761
       -0.0556184705   0.0264793642  -0.0219755138  -0.0219258183   0.0140972629
       -0.0003413285   0.0018160986   0.0022950426  -0.0031008475   0.0008340538
       -0.0012970186   0.0034845560  -0.0004521372  -0.0001423056  -0.0023812512
        0.0002634729   0.0004537557   0.0005240332  -0.0003724399  -0.0002950481
       -0.0000738453   0.0001233854   0.0000250061   0.0000066700  -0.0000036100
        0.0000703293   0.0000144915  -0.0000554719   0.0000278316  -0.0000193334
        0.0000140472   0.0000768862   0.0001002035  -0.0000567325  -0.0001077078
       -0.0000996793  -0.0001156861   0.0000859771  -0.0000499801   0.0001235336
       -0.0000655587  -0.0001743961  -0.0000615559   0.0000470021   0.0001457300
       -0.0000838635   0.0000070508   0.0000227656   0.0001411591  -0.0000855856
        0.0001757819  -0.0001607360   0.0000854192  -0.0002582358  -0.0000495913
        0.0000018305   0.0001750414   0.0002354715  -0.0000974563   0.0000597339
       -0.0001366021   0.0000355961   0.0001503159   0.0000808759  -0.0000631151
       -0.0001626577   0.0000390274  -0.0000198516  -0.0000246448  -0.0001401238
        0.0000427730  -0.0001303835   0.0001651808  -0.0000155004   0.0000090321
        0.0000158920  -0.0000463918   0.0000085739  -0.0000327634  -0.0000047738
       -0.0009102190  -0.0004324215  -0.0001196282   0.0001216372  -0.0002081966
       -0.0000126766  -0.0000759655   0.0000517267   0.0000220761   0.0000243718
       -0.0000434563   0.0000323974  -0.0000727586  -0.0000137570  -0.0000890153
        0.0002088281   0.0001366489   0.0000637701  -0.0002661223  -0.0002393261
        0.0000706138  -0.0000077210   0.0001760788  -0.0000591231  -0.0002068834
       -0.0000326888   0.0000269856   0.0001561764  -0.0001101125   0.0000516500
        0.0000902247   0.0001544244  -0.0000599602   0.0002210514  -0.0003662264
        0.0001316182  -0.0002869387   0.0001950145  -0.0000388865   0.0002143316
        0.0001451070  -0.0001067431   0.0000370582  -0.0001665367   0.0000925102
        0.0002355836   0.0000779254  -0.0000273452  -0.0002057813   0.0000993220
       -0.0000464026  -0.0000774373  -0.0001514331   0.0000844044  -0.0000634064
        0.0000983218  -0.0000761183   0.0000874196   0.0000352157  -0.0000000705
       -0.0000484375   0.0000756436   0.0000044580   0.0013785350  -0.0001665779
       -0.0001218125  -0.0015133186   0.0005165400  -0.0009836958   0.0028965651
       -0.0026314269  -0.0010774060   0.0001470950   0.0000517852   0.0008391651
       -0.0001068458   0.0000310687  -0.0000887071   0.0000126808   0.0000031851
       -0.0000226682  -0.0000171362   0.0000030858  -0.0000074068  -0.0000050757
        0.0000018034   0.0000050748  -0.0000059766  -0.0000155237   0.0000087898
       -0.0000210533  -0.0000122885   0.0000058556  -0.0000165341   0.0000099626
       -0.0000011516  -0.0000012416   0.0000103428   0.0000045208   0.0000049881
        0.0000192739  -0.0000001557   0.0000110622   0.0000205507   0.0000038437
        0.0000014352  -0.0000029201   0.0000148454  -0.0000184601   0.0000005378
       -0.0000046126   0.0000089533  -0.0000022748   0.0000022045   0.0000107813
       -0.0000423705  -0.0000244651  -0.0000219021  -0.0000070692   0.0000059285
       -0.0000095991  -0.0000088548  -0.0000065832  -0.0000068690  -0.0000131367
       -0.0000059255  -0.0000091011  -0.0000090459  -0.0000073894  -0.0000069923
        0.0000042138  -0.0000161137   0.0000055798   0.0000007930  -0.0000094028
        0.0000092865   0.0000224628  -0.0000136168   0.0000296656   0.0000292069
       -0.0000156931   0.0000214924  -0.0000254948   0.0000076053  -0.0000268551
       -0.0000282855   0.0000131766   0.0000085089  -0.0000438549   0.0000263395
       -0.0001818253  -0.0000302170   0.0008943462
       -0.0361919927  -0.1219575026   0.1652522436   0.0328571825   0.0675386446
       -0.0946629277   0.0103970205   0.0216959152  -0.0712711624  -0.0125253597
        0.0239955299  -0.0010380989   0.0060696165   0.0082440389   0.0023938528
        0.0003409284  -0.0008586276  -0.0015497594   0.0013302604  -0.0000347886
        0.0004532344  -0.0016339415   0.0000250409  -0.0001658427   0.0009950285
        0.0001911150   0.0000900470  -0.0001482533   0.0000041477   0.0000079005
        0.0000209711  -0.0000175442  -0.0000047452   0.0000166089   0.0000072738
       -0.0000532665  -0.0000033986   0.0000185652  -0.0000141912   0.0000294272
       -0.0000036927  -0.0000252698  -0.0000305965   0.0000060127   0.0000403670
        0.0000239603   0.0000227213  -0.0000241249   0.0000286726  -0.0000422533
        0.0000262959   0.0000616327   0.0000200570  -0.0000102928  -0.0000422638
        0.0000233082   0.0000059811  -0.0000093959  -0.0000499861   0.0000384061
       -0.0000417432   0.0000358594  -0.0000214398   0.0000503389   0.0000123955
        0.0000110811  -0.0000401228  -0.0000575059   0.0000215102  -0.0000280498
        0.0000423943  -0.0000054085  -0.0000543653  -0.0000225695   0.0000230286
        0.0000538756  -0.0000059881   0.0000096591   0.0000169524   0.0000480720
       -0.0000118913   0.0000185537  -0.0000287979  -0.0000024806  -0.0000045701
       -0.0000043855   0.0000205940   0.0000030233   0.0000137227  -0.0000220026
        0.0003821953   0.0002204171   0.0000245182  -0.0000488870   0.0000702296
       -0.0000106473   0.0000364702  -0.0000247000  -0.0000434944  -0.0000026991
        0.0000106290  -0.0000165167   0.0000344559   0.0000014013   0.0000239561
       -0.0000434264  -0.0000610082   0.0000145526   0.0000628408   0.0000570647
       -0.0000196883   0.0000146031  -0.0000438085   0.0000177663   0.0000555585
        0.0000049796   0.0000018787  -0.0000396597   0.0000253651  -0.0000080350
       -0.0000283989  -0.0000448108   0.0000217457  -0.0000556894   0.0000928135
       -0.0000339227   0.0000425741  -0.0000710519   0.0000259767  -0.0000282980
       -0.0000173531   0.0000129405  -0.0000179607   0.0000525095  -0.0000268410
       -0.0000743650  -0.0000181816   0.0000057406   0.0000585819  -0.0000179790
        0.0000089695   0.0000247125   0.0000428609  -0.0000213700  -0.0000104175
        0.0000197943  -0.0000053240  -0.0000295705  -0.0000037262  -0.0000019765
        0.0000141210  -0.0000140774  -0.0000377067  -0.0005614248  -0.0000829463
        0.0001055143   0.0003871377   0.0001901392   0.0000557296  -0.0014537965
        0.0004997240   0.0009628490  -0.0001785672   0.0001913259  -0.0002527804
        0.0000745096   0.0000353942   0.0000713291  -0.0000068928   0.0000016006
        0.0000187513   0.0000082962   0.0000007043   0.0000062151   0.0000015330
        0.0000008455  -0.0000041271   0.0000071098   0.0000069407  -0.0000032847
        0.0000126284   0.0000053678   0.0000006767   0.0000112285  -0.0000048715
        0.0000040167   0.0000016192  -0.0000057251   0.0000011361  -0.0000043121
       -0.0000117361   0.0000026585  -0.0000089709  -0.0000136247  -0.0000015342
       -0.0000065643   0.0000005941  -0.0000097906   0.0000039980   0.0000009182
        0.0000024548  -0.0000032449   0.0000032001   0.0000040622  -0.0000008638
        0.0000216193   0.0000250429   0.0000091465   0.0000033537  -0.0000002377
        0.0000033251   0.0000043845  -0.0000021694   0.0000071333   0.0000049817
        0.0000018421   0.0000076608   0.0000037229   0.0000047740   0.0000061480
       -0.0000031993   0.0000082351  -0.0000030635  -0.0000026587   0.0000038698
       -0.0000068563  -0.0000126450   0.0000043070  -0.0000178448  -0.0000146452
        0.0000011662  -0.0000134649   0.0000098648  -0.0000118462   0.0000034633
        0.0000137526  -0.0000031033  -0.0000048494   0.0000131360  -0.0000022952
       -0.0001809630  -0.0000020582  -0.0004372811
       -0.0647342216  -0.0417936053   0.0328571825   0.4822824466   0.0189437222
        0.0205558571  -0.0555163615  -0.0147321324  -0.0335882853  -0.1704639131
        0.0916423491   0.0052151520  -0.1511097848  -0.0458787062  -0.0202852347
       -0.0077798274  -0.0150552013  -0.0087336473   0.0076330805  -0.0006555355
       -0.0005023606  -0.0079800868   0.0009705062   0.0006231349   0.0052148052
        0.0001550526  -0.0000237763  -0.0005408609   0.0003409182   0.0005652595
       -0.0000589634  -0.0004334116   0.0000039837   0.0000760776   0.0000781025
       -0.0001175107  -0.0001277204   0.0001550822  -0.0000655047   0.0001756551
       -0.0000613002  -0.0002613327  -0.0004614990   0.0003368228   0.0002765299
        0.0002435360   0.0002989192  -0.0002570011   0.0001666338  -0.0004495483
        0.0002203456   0.0006285210   0.0002047847  -0.0001823709  -0.0006083011
        0.0003129619  -0.0000394147  -0.0001435272  -0.0004907489   0.0002973934
       -0.0005854178   0.0005297471  -0.0003039694   0.0008925337   0.0003128322
       -0.0000875838  -0.0006967901  -0.0008848009   0.0003924613  -0.0002269921
        0.0005018476  -0.0001459025  -0.0005191760  -0.0002595803   0.0002075601
        0.0005986959  -0.0001606465   0.0000831273   0.0001002991   0.0004937495
       -0.0001590428   0.0005361665  -0.0006748882   0.0001005901  -0.0000811059
       -0.0000951227   0.0001441431   0.0000951877   0.0000733632  -0.0000038635
        0.0012941347   0.0003809859  -0.0001155013  -0.0001992371   0.0005108723
        0.0000176219   0.0001693621  -0.0001234720  -0.0000123037  -0.0000652330
        0.0001002989  -0.0001231650   0.0001793128   0.0000159727   0.0002504129
       -0.0004076261  -0.0002704862  -0.0002164422   0.0005835683   0.0005138032
       -0.0000894075   0.0000383120  -0.0004648922   0.0001372421   0.0005817769
        0.0000525339  -0.0000627913  -0.0004669923   0.0003226020  -0.0001653041
       -0.0002841995  -0.0004436283   0.0001571552  -0.0005224588   0.0009562303
       -0.0003267966   0.0008133447  -0.0004284453   0.0000321313  -0.0005896632
       -0.0004175680   0.0003231817  -0.0000719157   0.0004989164  -0.0002757158
       -0.0006090158  -0.0002037424   0.0000727131   0.0005908410  -0.0002689165
        0.0001282380   0.0002138603   0.0003778983  -0.0002185071   0.0001880440
       -0.0002687493   0.0001852705  -0.0002141315  -0.0001345769   0.0000514284
        0.0001262351  -0.0001799942   0.0000609663  -0.0024618637   0.0012517200
        0.0004198116  -0.0010122091   0.0016263789   0.0007480125  -0.0360106857
        0.0008737038   0.0010038560   0.0003285006   0.0018808461   0.0011040241
        0.0002535383   0.0002294453   0.0001361916  -0.0000388930  -0.0000684365
        0.0000658403   0.0000767773  -0.0000492374   0.0000114571  -0.0000296397
       -0.0000416333  -0.0000036504  -0.0000358700   0.0000681872  -0.0000463808
        0.0000209696   0.0000615996  -0.0000429042   0.0000174892  -0.0000171556
       -0.0000162062   0.0000087165  -0.0000007106  -0.0000347146   0.0000020535
       -0.0000357638  -0.0000104643   0.0000030074  -0.0000407839  -0.0000204013
        0.0000208047  -0.0000071474  -0.0000422250   0.0000683142  -0.0000215271
        0.0000294042  -0.0000358471  -0.0000526239  -0.0000241219  -0.0000228270
        0.0000424800   0.0000318758   0.0000824696  -0.0000011806  -0.0000322635
        0.0000253254  -0.0000062382   0.0000398286   0.0000096950   0.0000455767
        0.0000191998   0.0000115781   0.0000441665   0.0000154851   0.0000189542
        0.0000095500   0.0000410825   0.0000378113   0.0000211559   0.0000210168
        0.0000342736  -0.0000620218   0.0000463526  -0.0000293591  -0.0000662103
        0.0000481087  -0.0000077379   0.0000428806   0.0000026140   0.0001020468
        0.0000358093  -0.0000222430  -0.0000253105   0.0000494452  -0.0000910802
        0.0002305091  -0.0000634503   0.0000061482
       -0.0352770639  -0.1298213615   0.0675386446   0.0189437222   0.3981374026
        0.0246684319  -0.0086156973  -0.0758358971  -0.0659771089   0.0715068721
       -0.1059044999  -0.0060387453  -0.0357445203  -0.0739601823  -0.0096872746
       -0.0238430518  -0.0169565632  -0.0074470106   0.0043831294  -0.0037049195
       -0.0051791192  -0.0054496162   0.0002618774  -0.0000824816   0.0039954142
       -0.0005099795   0.0003208080  -0.0004551872   0.0003160775   0.0004242470
       -0.0000012037  -0.0002298953  -0.0000387129   0.0000504668   0.0000410797
       -0.0000821678  -0.0000660807   0.0000565556   0.0000018578   0.0000505341
       -0.0000020364  -0.0001055627  -0.0001025879   0.0000628626   0.0001271335
        0.0001140477   0.0001237018  -0.0000970353   0.0000714179  -0.0001260108
        0.0000714412   0.0002257194   0.0000571229  -0.0000480438  -0.0001732523
        0.0000764587   0.0000016910  -0.0000363324  -0.0001556003   0.0000951205
       -0.0002189638   0.0002067820  -0.0001099386   0.0003482044   0.0000347254
        0.0000067409  -0.0002059196  -0.0002905846   0.0001097164  -0.0000873232
        0.0001502308  -0.0000386275  -0.0001897610  -0.0000781267   0.0000648277
        0.0002081670  -0.0000232253   0.0000110427   0.0000435391   0.0001480279
       -0.0000374361   0.0001460082  -0.0001721819   0.0000087342  -0.0000252735
       -0.0000014926   0.0000484083   0.0000410730   0.0000452345  -0.0000011180
        0.0019852692   0.0010666290   0.0003061149  -0.0002593853   0.0004361306
       -0.0000198924   0.0001794165  -0.0001081950  -0.0000084501  -0.0000559038
        0.0000907194  -0.0000414511   0.0001474147   0.0000106466   0.0001591838
       -0.0002769920  -0.0002212365  -0.0000827447   0.0003581935   0.0003329112
       -0.0000873399   0.0000205659  -0.0002484502   0.0000784458   0.0002843751
        0.0000315248  -0.0000409131  -0.0002298532   0.0001362486  -0.0000689433
       -0.0001453380  -0.0002150125   0.0000748765  -0.0003118951   0.0005100468
       -0.0001835739   0.0003528161  -0.0003104488   0.0000656336  -0.0002536551
       -0.0001760809   0.0001292851  -0.0000769698   0.0002320642  -0.0001355615
       -0.0003540903  -0.0000954640   0.0000259090   0.0003044971  -0.0001187443
        0.0000535118   0.0001264879   0.0001862955  -0.0001101564   0.0000433807
       -0.0000781383   0.0000759233  -0.0001795823  -0.0000544075  -0.0000213753
        0.0001397559  -0.0001870606  -0.0000006917  -0.0013881665  -0.0003624915
        0.0000966248   0.0045887512   0.0006365097  -0.0030093018   0.0043078928
        0.0089081553   0.0044770179  -0.0001290356  -0.0013223893   0.0000786832
       -0.0008730689  -0.0003618082  -0.0005652690  -0.0000145529   0.0000095971
        0.0000416890   0.0000346529   0.0000013331   0.0000181396   0.0000123864
        0.0000013029  -0.0000040658   0.0000149176   0.0000238039  -0.0000096654
        0.0000426727   0.0000179314  -0.0000139580   0.0000365515  -0.0000214258
       -0.0000043291   0.0000090662  -0.0000219859  -0.0000140182  -0.0000040034
       -0.0000376280  -0.0000038774  -0.0000213145  -0.0000330492  -0.0000051758
       -0.0000068886   0.0000113404  -0.0000221514   0.0000282676   0.0000075468
        0.0000050881  -0.0000218461   0.0000107101   0.0000110263  -0.0000232971
        0.0000856746   0.0000389346   0.0000312015   0.0000178187  -0.0000055352
       -0.0000018876   0.0000217867   0.0000149963   0.0000017868   0.0000238149
        0.0000069277   0.0000120497   0.0000122086   0.0000037481   0.0000088218
       -0.0000140988   0.0000172944  -0.0000176931  -0.0000072157   0.0000093586
       -0.0000257651  -0.0000396211   0.0000203802  -0.0000622585  -0.0000486918
        0.0000318146  -0.0000537713   0.0000557117  -0.0000075567   0.0000360381
        0.0000550115  -0.0000202608  -0.0000279773   0.0001023046  -0.0000364172
        0.0020714808  -0.0008977171   0.0001536052
        0.0261824790   0.0643635508  -0.0946629277   0.0205558571   0.0246684319
        0.3766852798  -0.0186529034  -0.0627585633  -0.1773216466  -0.0000320222
       -0.0028911791  -0.0480457066  -0.0220825744  -0.0128387033  -0.0583877047
       -0.0117944691  -0.0077802550  -0.0029515414   0.0005663640  -0.0050145441
        0.0032209102  -0.0009930753   0.0001653751   0.0007626935   0.0007953685
       -0.0002535442  -0.0015288717  -0.0002272929   0.0003500857   0.0003501989
        0.0000317551  -0.0001653008   0.0000286374  -0.0000190799   0.0000059468
        0.0000618550  -0.0000351208   0.0000533342  -0.0000153769  -0.0000336760
       -0.0000198677  -0.0000543887  -0.0000794424   0.0001367650   0.0000313286
        0.0000673141   0.0000826736  -0.0000492831   0.0000180541  -0.0001225189
        0.0000464097   0.0001471473   0.0000594098  -0.0000644540  -0.0001546700
        0.0000924449  -0.0000388273  -0.0000251666  -0.0001309307   0.0000440491
       -0.0001428427   0.0001418154  -0.0000814317   0.0002699631   0.0001311390
       -0.0000847175  -0.0002106293  -0.0002742970   0.0001218317  -0.0000300995
        0.0001196029  -0.0000608208  -0.0001045314  -0.0000751463   0.0000348922
        0.0001410226  -0.0000616068   0.0000114464   0.0000081842   0.0001237876
       -0.0000541590   0.0001895397  -0.0002233949   0.0000364304   0.0000167743
       -0.0000358110   0.0000452436   0.0000002650   0.0000439298   0.0001179258
        0.0002439770  -0.0000909883   0.0001366514   0.0000242405   0.0000938661
        0.0001319253   0.0000225856  -0.0000097595   0.0000745785  -0.0000611154
        0.0000328438  -0.0000111885   0.0000344746   0.0000153342   0.0000906064
       -0.0002255338   0.0000138909  -0.0001738239   0.0001898326   0.0001849664
       -0.0000424152  -0.0000118418  -0.0001656736   0.0000390755   0.0001756584
        0.0000271471  -0.0000452260  -0.0001566506   0.0001126485  -0.0000744892
       -0.0000795778  -0.0001362249   0.0000273185  -0.0001662711   0.0002678895
       -0.0000910787   0.0003009130  -0.0000491613  -0.0000524277  -0.0002784236
       -0.0001774900   0.0001314938  -0.0000080877   0.0001284459  -0.0000874586
       -0.0001630833  -0.0000711888   0.0000206063   0.0001503353  -0.0001131017
        0.0000498953   0.0000562280   0.0001336040  -0.0000818657   0.0001412164
       -0.0002421820   0.0001607122  -0.0000142624  -0.0000525952   0.0000185196
        0.0000209372  -0.0000465253   0.0002052267   0.0002607935   0.0006710256
       -0.0004135645   0.0015254675  -0.0035878367   0.0047848034   0.0032240144
        0.0053994034  -0.0006530982  -0.0001852369   0.0002194649  -0.0015224328
       -0.0004560714  -0.0004161289   0.0001552593   0.0000112299  -0.0000172538
        0.0000034202   0.0000176159  -0.0000122405   0.0000015365  -0.0000009864
       -0.0000072092   0.0000152443  -0.0000150255   0.0000180525  -0.0000086867
       -0.0000070514   0.0000101093  -0.0000256449  -0.0000076596  -0.0000017929
       -0.0000293518   0.0000080763   0.0000010869  -0.0000323437   0.0000123785
       -0.0000002625  -0.0000202851   0.0000197599   0.0000072633  -0.0000036937
        0.0000255169  -0.0000005747   0.0000119428   0.0000196721  -0.0000050553
        0.0000031474  -0.0000094099  -0.0000136904  -0.0000310998  -0.0000163948
        0.0000020463  -0.0000236796   0.0000083086   0.0000053268  -0.0000051324
       -0.0000106829   0.0000026206   0.0000292352  -0.0000203298   0.0000194224
        0.0000019563  -0.0000197857   0.0000068917  -0.0000152605  -0.0000169234
        0.0000039191  -0.0000141804   0.0000028191   0.0000072419  -0.0000091232
        0.0000072622  -0.0000005201   0.0000050805   0.0000044630   0.0000031267
        0.0000262602  -0.0000003091   0.0000042953   0.0000383730   0.0000194819
        0.0000017456  -0.0000064900  -0.0000111781   0.0000307137  -0.0000540546
        0.0010421413  -0.0000995665  -0.0008320477
        0.0080248024   0.0016082428   0.0103970205  -0.0555163615  -0.0086156973
       -0.0186529034   0.0608159320   0.0036494386   0.0096565546  -0.0021152676
        0.0232536672   0.0286801528  -0.0069102148  -0.0166969563  -0.0271156251
       -0.0040385399   0.0001489157  -0.0014934309  -0.0008961886  -0.0014649643
        0.0004625814   0.0011238847  -0.0003158666  -0.0001812282  -0.0006405034
       -0.0000134129  -0.0001511264   0.0000021650  -0.0000007795  -0.0000699179
        0.0000252032   0.0000633552  -0.0000057700  -0.0000394927  -0.0000228099
        0.0000027891   0.0000217269  -0.0000248919   0.0000129294  -0.0000663219
        0.0000039128   0.0000360028   0.0000589934  -0.0000569125  -0.0000209992
       -0.0000071502  -0.0000011849   0.0000180851  -0.0000357442   0.0000654307
       -0.0000320805  -0.0001047593  -0.0000232344   0.0000251823   0.0001009832
       -0.0000479512   0.0000054845   0.0000281092   0.0000874879  -0.0000536529
        0.0000588429  -0.0000504046   0.0000405363  -0.0000940249  -0.0000611867
        0.0000152097   0.0000933071   0.0001181157  -0.0000518927   0.0000437025
       -0.0000850063   0.0000254756   0.0000853606   0.0000381423  -0.0000330464
       -0.0000958301   0.0000143983  -0.0000164409  -0.0000264475  -0.0000717659
        0.0000213516  -0.0000606821   0.0000771356  -0.0000089161   0.0000102492
        0.0000141909  -0.0000274401  -0.0000431291  -0.0000122811   0.0000119684
       -0.0001001068  -0.0000140299   0.0000862436   0.0000153407  -0.0000758457
        0.0000029962  -0.0000409602   0.0000315909  -0.0000089727   0.0000041819
       -0.0000061404   0.0000269297  -0.0000587003   0.0000034934  -0.0000351071
        0.0000537278   0.0000510044   0.0000175854  -0.0000694231  -0.0000648973
        0.0000034710  -0.0000140107   0.0000742057  -0.0000200352  -0.0000957981
        0.0000000559   0.0000004880   0.0000832684  -0.0000531777   0.0000295114
        0.0000575407   0.0000822820  -0.0000277055   0.0000743102  -0.0001403122
        0.0000468027  -0.0000912145   0.0000770785  -0.0000067729   0.0000682596
        0.0000459287  -0.0000435743   0.0000169262  -0.0000948404   0.0000537130
        0.0001089241   0.0000329387  -0.0000110079  -0.0001036909   0.0000351756
       -0.0000179271  -0.0000422749  -0.0000579100   0.0000345743  -0.0000052274
       -0.0000014322  -0.0000115738   0.0000317229   0.0000237779  -0.0000235132
       -0.0000329942   0.0000241292   0.0000020822   0.0001241726  -0.0001678224
       -0.0001394328   0.0008293473  -0.0002266464   0.0005186640   0.0004821852
       -0.0010463808  -0.0013637118  -0.0001424761   0.0002552980  -0.0001787969
       -0.0003368450  -0.0002318510   0.0000708382   0.0000108407   0.0000086994
       -0.0000065680  -0.0000215370   0.0000068085  -0.0000013891   0.0000076402
        0.0000094050  -0.0000021093   0.0000063300  -0.0000158526   0.0000091756
       -0.0000067563  -0.0000145073   0.0000107141  -0.0000066776   0.0000045293
        0.0000049121  -0.0000035256   0.0000001794   0.0000089747  -0.0000015107
        0.0000080978   0.0000031664  -0.0000025713   0.0000071074   0.0000043617
       -0.0000031247  -0.0000015230   0.0000086426  -0.0000176143   0.0000019543
       -0.0000091633   0.0000100613   0.0000095677  -0.0000083322   0.0000062009
       -0.0000116607  -0.0000001931  -0.0000184930  -0.0000008230   0.0000085617
       -0.0000023074   0.0000013472  -0.0000102731  -0.0000017878  -0.0000090886
       -0.0000039698  -0.0000018374  -0.0000085372  -0.0000014732  -0.0000033255
       -0.0000004635  -0.0000065835  -0.0000081388  -0.0000037108  -0.0000030224
       -0.0000067234   0.0000149815  -0.0000102228   0.0000085612   0.0000148503
       -0.0000119911   0.0000060675  -0.0000127157  -0.0000009576  -0.0000227975
       -0.0000052508   0.0000021992   0.0000139714  -0.0000109591   0.0000028125
       -0.0005597348  -0.0001252355  -0.0004898942
        0.0011013022   0.0114488158   0.0216959152  -0.0147321324  -0.0758358971
       -0.0627585633   0.0036494386   0.1016609275   0.0987684142   0.0209046808
       -0.0284242719  -0.0349015253  -0.0098489464  -0.0085568107  -0.0223131807
       -0.0022781314   0.0013914628  -0.0011124934  -0.0017460465  -0.0008351293
        0.0007583292   0.0020610368  -0.0004096056  -0.0002557774  -0.0013756563
        0.0004127428   0.0000616328   0.0002948880  -0.0002666471  -0.0002541454
       -0.0000319896   0.0000809496   0.0000047083  -0.0000078945  -0.0000049224
        0.0000125241   0.0000142220  -0.0000231883   0.0000036419  -0.0000173850
        0.0000039040   0.0000351746   0.0000436855  -0.0000310331  -0.0000391652
       -0.0000403448  -0.0000407415   0.0000358761  -0.0000223070   0.0000573348
       -0.0000300182  -0.0000825348  -0.0000269203   0.0000232198   0.0000745652
       -0.0000387379   0.0000070551   0.0000141223   0.0000720367  -0.0000374695
        0.0000745667  -0.0000655275   0.0000408937  -0.0001161565  -0.0000361585
        0.0000118256   0.0000837340   0.0001133649  -0.0000430984   0.0000283153
       -0.0000650710   0.0000228610   0.0000685752   0.0000366457  -0.0000245771
       -0.0000790216   0.0000152246  -0.0000074820  -0.0000168241  -0.0000634184
        0.0000196745  -0.0000633274   0.0000731558  -0.0000075474   0.0000015584
        0.0000014486  -0.0000253551  -0.0000050100  -0.0000131510  -0.0000173035
       -0.0004892468  -0.0002825966  -0.0000784433   0.0001110479  -0.0001352970
       -0.0000012922  -0.0000522180   0.0000313273  -0.0000190645   0.0000250336
       -0.0000318851   0.0000138365  -0.0000481210  -0.0000066852  -0.0000605500
        0.0001190958   0.0000757268   0.0000470231  -0.0001428494  -0.0001330866
        0.0000347618  -0.0000007852   0.0001034551  -0.0000320175  -0.0001160974
       -0.0000176187   0.0000170069   0.0000970752  -0.0000605596   0.0000340308
        0.0000590748   0.0000877848  -0.0000268226   0.0001240407  -0.0002027592
        0.0000741987  -0.0001565451   0.0001034516  -0.0000109550   0.0001243722
        0.0000833498  -0.0000619328   0.0000233351  -0.0000941219   0.0000579605
        0.0001332748   0.0000435284  -0.0000117424  -0.0001200435   0.0000580889