$hessian                                                                        
        0.1224518492  -0.0262494781  -0.1130841778  -0.1092129450   0.0123638343
        0.0722423493   0.0105013516   0.0121090290   0.0047858632   0.0144988785
       -0.0054772928   0.0036618355  -0.0340330130   0.0081895233   0.0332606133
       -0.0001290645   0.0019660294   0.0005687719   0.0001564476   0.0005257627
       -0.0010385257   0.0002512810   0.0004100583   0.0001432134  -0.0001814639
       -0.0000460552   0.0003534038   0.0006210993   0.0005395973   0.0000631852
       -0.0004726809  -0.0001300667  -0.0001594519   0.0000787233   0.0002757170
        0.0000959411  -0.0002186696   0.0001290818   0.0000409768   0.0005025326
        0.0000609170   0.0000231324  -0.0004478437  -0.0001144860  -0.0000184348
        0.0000690803   0.0001979808   0.0000634231   0.0000104018   0.0000091649
        0.0000011424  -0.0000733807  -0.0000002607  -0.0000081497   0.0000792959
       -0.0000388492   0.0000163399   0.0000150006   0.0000899338  -0.0000439016
        0.0000374797  -0.0001173417   0.0000383984  -0.0001478851  -0.0000638341
        0.0000165899   0.0000585606   0.0001688584  -0.0000549358   0.0000347104
       -0.0000824990   0.0000347035   0.0000602625   0.0000451356  -0.0000255293
       -0.0000613894  -0.0000126399  -0.0000027188   0.0000115161  -0.0000149472
       -0.0000079047   0.0000590538  -0.0001117868  -0.0000677009  -0.0001351371
       -0.0002120438  -0.0000363591   0.0002357703  -0.0002115068  -0.0000829852
       -0.0001865285  -0.0008465110   0.0004404120  -0.0002271536   0.0002490853
        0.0000219807   0.0002449240   0.0000537751   0.0000657252   0.0000167153
        0.0002109756   0.0000228871   0.0003359063  -0.0003244435  -0.0000153284
       -0.0002492770   0.0003735491   0.0000007520   0.0000791569   0.0000500092
        0.0000675146   0.0000132828  -0.0000066559   0.0000083468  -0.0000304445
        0.0000382413   0.0000016205   0.0000179157  -0.0000547501   0.0000179251
        0.0000663319   0.0000321014  -0.0000323847  -0.0000570283  -0.0001841501
        0.0000571183  -0.0000529651   0.0001609441  -0.0000292445   0.0000623068
        0.0000682818  -0.0000272168  -0.0000394530  -0.0000704304   0.0000369034
        0.0000735228  -0.0000167248  -0.0000164753  -0.0000647782   0.0000393915
        0.0000102290   0.0000117892  -0.0000025516  -0.0000085597  -0.0000720535
       -0.0002203636  -0.0000405565  -0.0002256104   0.0000143445  -0.0000368632
       -0.0000527365  -0.0002116266  -0.0000679106  -0.0001366244  -0.0002608546
       -0.0006307584  -0.0011251557   0.0014975790  -0.0026255896  -0.0030847274
       -0.0037666883   0.0006435455  -0.0000240666  -0.0003954468   0.0005021347
        0.0000666237  -0.0000240832   0.0000620895   0.0000208014  -0.0000126162
        0.0000286686  -0.0000306795  -0.0000233548  -0.0000124601  -0.0000067345
        0.0000190138  -0.0000059553   0.0000109596  -0.0000155233   0.0000037304
       -0.0000098969  -0.0000194137   0.0000063291  -0.0000117456  -0.0000047449
        0.0000017380  -0.0000145104  -0.0000014966  -0.0000010625  -0.0000120247
        0.0000122309  -0.0000036992   0.0000050177   0.0000098197   0.0000043728
       -0.0000111443  -0.0000091677   0.0000133545  -0.0000297985   0.0000201954
        0.0000031784   0.0000232046   0.0000362078  -0.0000308005  -0.0000054106
       -0.0000361399   0.0000274744  -0.0000390015   0.0000055069  -0.0000029844
       -0.0000072061   0.0000160819  -0.0000107838   0.0000007123  -0.0000057357
       -0.0000066366  -0.0000173669  -0.0000049733   0.0000017096  -0.0000143696
        0.0000101867  -0.0000000668  -0.0000107664   0.0000117257  -0.0000007274
       -0.0000000669   0.0000254228  -0.0000047016   0.0000169239   0.0000107015
       -0.0000018288  -0.0000171581  -0.0000102837   0.0000125598  -0.0000108997
        0.0000285572   0.0000159579   0.0000252807  -0.0000154432  -0.0000321600
        0.0001661848  -0.0006472902   0.0007873892
       -0.0262494781   0.0699397304   0.0458249083   0.0174692277  -0.0509292275
       -0.0240374315   0.0152151595  -0.0298428330  -0.0439457721  -0.0066271869
        0.0050026681   0.0228775318   0.0012795280   0.0053195325  -0.0011703689
       -0.0003696237  -0.0008900789   0.0000074455   0.0003654121   0.0001844408
        0.0003118963  -0.0001626417  -0.0001141045  -0.0000349395   0.0001110796
        0.0001159234  -0.0000483951  -0.0000833897   0.0000152005   0.0000059508
        0.0000454399   0.0000302955   0.0000291440   0.0000028623  -0.0000354828
       -0.0000217885   0.0000116275  -0.0000122286  -0.0000041495  -0.0000384609
       -0.0000025311   0.0000028152   0.0000214035   0.0000362413  -0.0000032772
       -0.0000188252  -0.0000282714  -0.0000014084   0.0000029403   0.0000031314
        0.0000013251   0.0000082515  -0.0000047780   0.0000041732  -0.0000153117
        0.0000037819   0.0000001581  -0.0000062667  -0.0000043162   0.0000050184
        0.0000068804  -0.0000002298  -0.0000001616   0.0000061736   0.0000270532
       -0.0000045463  -0.0000177853  -0.0000259656   0.0000068363  -0.0000053749
        0.0000075641  -0.0000011183  -0.0000044819   0.0000009328   0.0000020991
        0.0000030068  -0.0000010773   0.0000017325  -0.0000002070   0.0000061701
        0.0000006207   0.0000145452  -0.0000122458   0.0000120647   0.0000109108
        0.0000186540   0.0000020296  -0.0000306710   0.0000112927  -0.0000000404
       -0.0000597714   0.0000251389  -0.0000370835   0.0000223757  -0.0000157583
        0.0000101381   0.0000062325  -0.0000066037  -0.0000003018   0.0000006650
       -0.0000015843  -0.0000046506  -0.0000097561   0.0000079161   0.0000013178
        0.0000374117   0.0000199700  -0.0000071092  -0.0000349576  -0.0000071483
        0.0000081411   0.0000073954   0.0000053853  -0.0000022367   0.0000021345
       -0.0000061981   0.0000017573  -0.0000008403   0.0000043665   0.0000000042
        0.0000007299   0.0000027835   0.0000002812   0.0000064628  -0.0000158915
        0.0000003293   0.0000356327   0.0000126104  -0.0000082386  -0.0000269296
       -0.0000041198   0.0000035520   0.0000018123   0.0000002686  -0.0000003135
        0.0000109283   0.0000006720  -0.0000032986  -0.0000029270  -0.0000045107
        0.0000015368  -0.0000028236   0.0000066754   0.0000009223   0.0000044070
       -0.0000272674   0.0000019060   0.0000100309  -0.0000010820   0.0000019895
       -0.0000260185  -0.0000022700  -0.0000294286  -0.0000586746   0.0001447722
        0.0000004236   0.0000126551   0.0001502863   0.0002769360  -0.0006079472
        0.0002258151   0.0000905242  -0.0000482006   0.0004570917  -0.0000883617
        0.0000538379   0.0000427905   0.0000249529  -0.0000006827  -0.0000039542
        0.0000028545   0.0000020590  -0.0000003366   0.0000020471  -0.0000036454
       -0.0000053636   0.0000007227  -0.0000048681   0.0000045149  -0.0000009073
       -0.0000028084   0.0000034971   0.0000003768  -0.0000038302   0.0000020252
        0.0000009055   0.0000007324   0.0000023511   0.0000003086  -0.0000000133
        0.0000012765  -0.0000001866   0.0000002052   0.0000018792  -0.0000021040
        0.0000007845  -0.0000027899  -0.0000009977  -0.0000035530  -0.0000014922
        0.0000034261  -0.0000020543  -0.0000038037   0.0000073577   0.0000008555
       -0.0000024200   0.0000039053   0.0000021100  -0.0000016828   0.0000034621
       -0.0000025013  -0.0000022123   0.0000001285   0.0000024307   0.0000042804
       -0.0000018369   0.0000052983   0.0000025292  -0.0000013736   0.0000040713
       -0.0000001854  -0.0000006970   0.0000087784  -0.0000036776  -0.0000023663
        0.0000041010  -0.0000043815  -0.0000017754   0.0000054991   0.0000020729
       -0.0000044877   0.0000002698  -0.0000085137  -0.0000027612  -0.0000040415
        0.0000027221   0.0000019875  -0.0000039193  -0.0000057134   0.0000132080
       -0.0002838869   0.0001860276  -0.0000872382
       -0.1130841778   0.0458249083   0.2539568019   0.0847354088  -0.0210966660
       -0.1465849123   0.0069934907  -0.0400621298  -0.0297260368   0.0068041744
        0.0189053432  -0.0703675135   0.0141119752  -0.0042228015  -0.0072688774
       -0.0005717527  -0.0017201197   0.0004472505   0.0002933683  -0.0000974729
        0.0003750522  -0.0004191330  -0.0002278924  -0.0002220982   0.0002374122
        0.0000014184  -0.0000212812  -0.0003787669  -0.0001532526  -0.0000823937
        0.0002336263   0.0000721340   0.0000733505  -0.0000287731  -0.0001669011
       -0.0000671579   0.0001037346  -0.0000669933  -0.0000189192  -0.0002471546
       -0.0000318877  -0.0000203848   0.0002015239   0.0000420324   0.0000269792
       -0.0000269402  -0.0000782594  -0.0000398875  -0.0000034153  -0.0000059035
        0.0000061914   0.0000302633   0.0000012185   0.0000072140  -0.0000412650
        0.0000159985  -0.0000036545  -0.0000121337  -0.0000390784   0.0000241407
       -0.0000288662   0.0000618999  -0.0000240588   0.0000670284   0.0000181978
        0.0000048228  -0.0000209540  -0.0000729861   0.0000207069  -0.0000201653
        0.0000389547  -0.0000117014  -0.0000326523  -0.0000182606   0.0000145454
        0.0000324444   0.0000083020   0.0000040117  -0.0000004545   0.0000098465
        0.0000089477  -0.0000390993   0.0000588211   0.0000252548   0.0000582644
        0.0001031721   0.0000250399  -0.0001260919   0.0000906176   0.0000365420
       -0.0000247933   0.0003566754  -0.0002417578   0.0001054688  -0.0001182882
        0.0000079280  -0.0001179383  -0.0000457217  -0.0000366790  -0.0000081559
       -0.0000995169  -0.0000089290  -0.0001589409   0.0001481583  -0.0000093981
        0.0001042147  -0.0001778952   0.0000216541  -0.0000204331  -0.0000206184
       -0.0000408824  -0.0000040054  -0.0000002723   0.0000018167   0.0000129886
       -0.0000141165   0.0000017693  -0.0000075999   0.0000240274  -0.0000046160
       -0.0000278428  -0.0000116699   0.0000174733   0.0000244967   0.0000948135
       -0.0000327195   0.0000121171  -0.0000818925   0.0000267387  -0.0000133625
       -0.0000335317   0.0000028163   0.0000206820   0.0000337631  -0.0000141394
       -0.0000317095   0.0000081336   0.0000090818   0.0000347631  -0.0000207141
       -0.0000016664   0.0000043142  -0.0000041874   0.0000107509   0.0000340034
        0.0001164162   0.0000063272   0.0001060581  -0.0000106877   0.0000210315
       -0.0000010870   0.0000944884   0.0000167428   0.0001145759   0.0001350387
        0.0004558961   0.0004816652  -0.0005118616   0.0006539250   0.0011176572
        0.0020024617  -0.0004848625  -0.0002599964   0.0005960011  -0.0004272120
       -0.0000359396   0.0000522745  -0.0000816008  -0.0000094207   0.0000218110
       -0.0000078019   0.0000123227   0.0000147582   0.0000060860   0.0000035639
       -0.0000088289  -0.0000019744  -0.0000073570   0.0000054449  -0.0000038676
       -0.0000001491   0.0000081646  -0.0000032131   0.0000013807   0.0000025654
       -0.0000005081   0.0000034021   0.0000021448   0.0000006477   0.0000040094
       -0.0000049171   0.0000023462  -0.0000032014  -0.0000078329  -0.0000025384
        0.0000035257   0.0000030545  -0.0000098433   0.0000054797  -0.0000075898
        0.0000002865  -0.0000104351  -0.0000112798   0.0000134099   0.0000159434
        0.0000303379  -0.0000027514   0.0000215851   0.0000014988   0.0000021014
        0.0000072205  -0.0000104389   0.0000008603  -0.0000005195   0.0000000476
        0.0000025469   0.0000068203   0.0000033618  -0.0000005201   0.0000070551
       -0.0000035478  -0.0000006429   0.0000060337  -0.0000051825  -0.0000023959
        0.0000015190  -0.0000122384  -0.0000012710  -0.0000080986  -0.0000106179
       -0.0000043827   0.0000073517   0.0000021866  -0.0000147407   0.0000014742
       -0.0000025535  -0.0000074411  -0.0000088102   0.0000037158   0.0000064624
       -0.0003428146   0.0002823974  -0.0004383181
       -0.1092129450   0.0174692277   0.0847354088   0.4833718629   0.0220611436
        0.0147085483  -0.0757619604  -0.0695743553  -0.0205103369  -0.0893751685
        0.0489677678  -0.0616373557  -0.1689495809  -0.0170738998  -0.0128541620
       -0.0137501182  -0.0150831698  -0.0045905207   0.0019811390  -0.0009010809
       -0.0006154237  -0.0011593799   0.0001633408  -0.0001130508   0.0009040504
       -0.0003903694  -0.0002090589  -0.0018961472  -0.0015108334   0.0000798408
        0.0014781061   0.0003956082   0.0000996871  -0.0003100777  -0.0008901519
       -0.0003139115   0.0006748865  -0.0004252333  -0.0001218190  -0.0015721781
       -0.0001932446  -0.0000641176   0.0013690984   0.0003473284   0.0000365955
       -0.0001979017  -0.0005878529  -0.0002048881  -0.0000117631  -0.0000319767
       -0.0000084941   0.0002393064   0.0000031401   0.0000210228  -0.0002442115
        0.0001104294  -0.0000522613  -0.0000480026  -0.0002779263   0.0001303253
       -0.0001143744   0.0003717426  -0.0001173251   0.0004670534   0.0001869858
       -0.0000580042  -0.0001755470  -0.0005299579   0.0001757162  -0.0001094566
        0.0002457711  -0.0001096057  -0.0001924612  -0.0001368329   0.0000725977
        0.0001962482   0.0000401687   0.0000036015  -0.0000156535   0.0000436215
        0.0000195554  -0.0001692270   0.0003306776   0.0002234110   0.0004400575
        0.0006325521   0.0001166764  -0.0007018458   0.0007124570   0.0003042388
       -0.0000107216   0.0026386092  -0.0001491572   0.0005904687  -0.0009026777
        0.0000156783  -0.0007864227  -0.0001371869  -0.0002188394  -0.0000536232
       -0.0006201857  -0.0000959806  -0.0010019215   0.0009846383   0.0000616494
        0.0007122977  -0.0011211128  -0.0000204623  -0.0002329169  -0.0001395627
       -0.0001967126  -0.0000353031  -0.0000028981  -0.0000284454   0.0000891182
       -0.0001128819  -0.0000093384  -0.0000562017   0.0001736730  -0.0000598581
       -0.0002038645  -0.0001090279   0.0000958172   0.0001571550   0.0005474138
       -0.0001624531   0.0001359353  -0.0004772287   0.0000805437  -0.0001696206
       -0.0001989155   0.0000884315   0.0001270816   0.0002200259  -0.0001176335
       -0.0002317971   0.0000506589   0.0000503771   0.0001844828  -0.0001224538
       -0.0000319356  -0.0000181936   0.0000085361   0.0000120230   0.0002091675
        0.0006712055   0.0001399729   0.0006841140  -0.0000422294   0.0000964403
        0.0002252349   0.0006995167   0.0002757423  -0.0012111666   0.0006557479
        0.0003649832   0.0014218016   0.0024219978   0.0002205838  -0.0297671283
        0.0094744880  -0.0001081070   0.0008395766   0.0013132724   0.0004729670
        0.0000020244   0.0001176372  -0.0000047014  -0.0000627255   0.0000699724
       -0.0000657019   0.0000859430   0.0000636309   0.0000341413   0.0000218514
       -0.0000536490   0.0000217414  -0.0000287455   0.0000509304  -0.0000084865
        0.0000369878   0.0000594456  -0.0000186181   0.0000417056   0.0000101844
       -0.0000048268   0.0000467260   0.0000040102   0.0000029013   0.0000396301
       -0.0000401362   0.0000117597  -0.0000136313  -0.0000338604  -0.0000095993
        0.0000400261   0.0000288138  -0.0000352057   0.0001022744  -0.0000696159
       -0.0000078181  -0.0000495863  -0.0001391376   0.0000534074   0.0000192657
        0.0001211667  -0.0000646099   0.0001088805  -0.0000054586   0.0000012804
        0.0000314241  -0.0000402307   0.0000338073   0.0000017098   0.0000194242
        0.0000222509   0.0000503253   0.0000140726  -0.0000038757   0.0000398479
       -0.0000302191   0.0000015874   0.0000290522  -0.0000316602   0.0000061445
       -0.0000044651  -0.0000710607   0.0000182285  -0.0000546699  -0.0000293750
        0.0000130032   0.0000459147   0.0000301777  -0.0000227518   0.0000256586
       -0.0000938782  -0.0000483069  -0.0000913587  -0.0000100630   0.0000440848
        0.0007845737  -0.0002896215   0.0001069874
        0.0123638343  -0.0509292275  -0.0210966660   0.0220611436   0.4166280755
        0.0128955213  -0.0485137718  -0.1960885081  -0.0428672152   0.0387404708
       -0.0969100840   0.0596970206  -0.0204560308  -0.0594609293  -0.0029097995
       -0.0243170394  -0.0054781517  -0.0026560527  -0.0022464026  -0.0045717213
       -0.0024806333   0.0004183270   0.0001990182  -0.0001440218  -0.0003678679
       -0.0006880671   0.0002506584  -0.0000939568  -0.0003523822  -0.0000250347
        0.0001403822  -0.0000242456  -0.0000813419  -0.0000506284  -0.0000721292
       -0.0000115162   0.0000617896  -0.0000389367  -0.0000093928  -0.0001500215
       -0.0000099801  -0.0000090675   0.0001539290  -0.0000993974   0.0000334778
        0.0000450630   0.0000336870  -0.0000442613   0.0000009362  -0.0000053575
       -0.0000006791   0.0000134909   0.0000080393  -0.0000021820   0.0000031494
       -0.0000026198  -0.0000028433   0.0000062959  -0.0000222061   0.0000063807
       -0.0000670613   0.0000832842  -0.0000255775   0.0000639236  -0.0001122290
        0.0000251493   0.0000459402   0.0000145648   0.0000019094  -0.0000076030
        0.0000216403  -0.0000164221  -0.0000246260  -0.0000255958   0.0000037626
        0.0000332318   0.0000123979  -0.0000068469   0.0000064628  -0.0000066383
        0.0000009611  -0.0000890871   0.0001119527  -0.0000076952   0.0000497295
        0.0000491256   0.0000164077  -0.0000389279   0.0000991722   0.0000662374
        0.0006415023   0.0004667837   0.0002415094   0.0001001621  -0.0000934012
       -0.0000039266  -0.0001131426  -0.0000377694  -0.0000150682  -0.0000246599
       -0.0000876953  -0.0000063861  -0.0001053852   0.0001270555   0.0000084857
       -0.0000995654  -0.0002541803   0.0000362162   0.0001427055   0.0000185667
       -0.0000763763  -0.0000233761  -0.0000147747  -0.0000016362   0.0000014295
        0.0000026472  -0.0000075932  -0.0000159028  -0.0000010749  -0.0000063781
       -0.0000239197  -0.0000045902   0.0000025825   0.0000016022   0.0001762644
       -0.0000353748  -0.0001552283  -0.0001587846   0.0000574087   0.0001134714
       -0.0000234116  -0.0000097613  -0.0000041209   0.0000322163  -0.0000183154
       -0.0000670459   0.0000130316   0.0000108849   0.0000492148  -0.0000294365
       -0.0000142446   0.0000070223  -0.0000184166  -0.0000077510   0.0000258820
        0.0002425066  -0.0000012631   0.0000832034  -0.0000160759   0.0000177653
        0.0001469439   0.0001034315   0.0001678970   0.0007203574  -0.0003635083
        0.0000500076   0.0027303292  -0.0029309588  -0.0025523705   0.0185838080
        0.0037717765   0.0018751637  -0.0010955636  -0.0017349476  -0.0003565309
       -0.0011298593  -0.0004353125  -0.0002276738   0.0000051712   0.0000314777
       -0.0000166671   0.0000092643   0.0000104137  -0.0000059110   0.0000207798
        0.0000095659   0.0000013461   0.0000157385  -0.0000075205   0.0000046117
        0.0000176134  -0.0000014652  -0.0000016740   0.0000192692  -0.0000074248
       -0.0000017644   0.0000046794  -0.0000084369  -0.0000010829   0.0000054583
       -0.0000129134   0.0000022014  -0.0000058550  -0.0000176622   0.0000068131
       -0.0000005001   0.0000148425  -0.0000036082   0.0000209752  -0.0000000141
       -0.0000094509  -0.0000055317  -0.0000033284  -0.0000127752  -0.0000069496
        0.0000320948  -0.0000391993   0.0000078537   0.0000106922  -0.0000181544
        0.0000106565   0.0000044450   0.0000044333  -0.0000120181  -0.0000100565
        0.0000101209  -0.0000121573  -0.0000048275   0.0000020355  -0.0000112330
       -0.0000060578  -0.0000000189  -0.0000260919   0.0000076647   0.0000034253
       -0.0000224704   0.0000021045   0.0000057088  -0.0000435267  -0.0000153501
        0.0000198655   0.0000007805   0.0000498629   0.0000038873   0.0000145855
       -0.0000203011  -0.0000261782   0.0000039048   0.0000444575  -0.0000529066
        0.0017146640  -0.0012147550   0.0003974343
        0.0722423493  -0.0240374315  -0.1465849123   0.0147085483   0.0128955213
        0.3760967018  -0.0150330271  -0.0445070756  -0.0597426758  -0.0530123333
        0.0638103509  -0.1210361352  -0.0140708381  -0.0026599601  -0.0559290830
       -0.0068096304  -0.0020365031  -0.0029450634  -0.0006853226  -0.0024375703
        0.0043696290  -0.0002059478  -0.0002494207   0.0003050235   0.0002504241
        0.0003178129  -0.0015180368  -0.0002641781  -0.0001805138   0.0001371104
        0.0002045511   0.0000138637   0.0003597993  -0.0000129362  -0.0000317367
       -0.0000069484   0.0000685960  -0.0000083565  -0.0000278005  -0.0001330544
       -0.0000096269   0.0000297341   0.0001181176   0.0000808740  -0.0000518361
       -0.0000459161  -0.0000972326   0.0000067874   0.0000147768  -0.0000027781
       -0.0000201582   0.0000402520  -0.0000042446  -0.0000079952  -0.0000219579
        0.0000111281  -0.0000157490   0.0000008572  -0.0000304636   0.0000001336
        0.0000313875   0.0000066677   0.0000069702   0.0000392063   0.0000781079
       -0.0000454813  -0.0000432864  -0.0000838169   0.0000324734  -0.0000060278
        0.0000128577  -0.0000195851  -0.0000095390  -0.0000085138  -0.0000044934
        0.0000107644  -0.0000011862  -0.0000073114  -0.0000004721   0.0000023659
       -0.0000138553   0.0000348137  -0.0000154399   0.0000493063   0.0000435830
        0.0000845510  -0.0000163351  -0.0000974767   0.0001303461   0.0000632575
        0.0001385426   0.0003793738  -0.0007540254   0.0000775370  -0.0000796809
       -0.0001201754  -0.0000907300   0.0000331538  -0.0000118627  -0.0000385380
       -0.0000570870  -0.0000260267  -0.0001108109   0.0001182491   0.0000512806
        0.0001111362  -0.0000677720  -0.0000768687  -0.0000868172  -0.0000185765
        0.0000099087  -0.0000019216  -0.0000071763  -0.0000189603   0.0000192849
       -0.0000237508  -0.0000097067  -0.0000091238   0.0000261303  -0.0000170455
       -0.0000281306  -0.0000177685   0.0000022155   0.0000212370   0.0000076972
        0.0000048784   0.0000669103   0.0000003672  -0.0000349322  -0.0000755979
       -0.0000172116   0.0000395787   0.0000074414   0.0000202400  -0.0000201209
       -0.0000210789   0.0000072546  -0.0000008850  -0.0000003261  -0.0000111949
       -0.0000089011  -0.0000115841   0.0000112822  -0.0000211713   0.0000154456
       -0.0000064039   0.0000612252   0.0000782811  -0.0000038473  -0.0000000045
        0.0001549795   0.0001154997   0.0001242267   0.0003137160  -0.0002318999
        0.0001665170  -0.0000638001  -0.0023435673   0.0082180140   0.0019123930
        0.0013927543   0.0016130574  -0.0001465179  -0.0001399709  -0.0007653716
       -0.0002840140  -0.0001331582   0.0001870012   0.0000037093  -0.0000328726
        0.0000024416   0.0000087001  -0.0000089817   0.0000024319  -0.0000002204
       -0.0000066136   0.0000176063   0.0000007737   0.0000152552   0.0000039230
        0.0000093530   0.0000060948  -0.0000013579   0.0000066928  -0.0000001140
       -0.0000011868   0.0000095685  -0.0000000364  -0.0000017008   0.0000060627
       -0.0000029964  -0.0000011467   0.0000036167   0.0000055796   0.0000001559
        0.0000138987   0.0000030370   0.0000078130   0.0000201279  -0.0000194390
       -0.0000015942   0.0000012781  -0.0000690106  -0.0000017710  -0.0000323032
       -0.0000174957  -0.0000241732  -0.0000062139  -0.0000031511  -0.0000041573
       -0.0000023557   0.0000017300   0.0000171748   0.0000046444   0.0000110847
        0.0000032285   0.0000055349   0.0000017528  -0.0000016298   0.0000012996
       -0.0000016434   0.0000019921   0.0000042271  -0.0000018041   0.0000077075
       -0.0000012331  -0.0000015967   0.0000117056   0.0000034863   0.0000105047
        0.0000163956   0.0000096356  -0.0000018956   0.0000257685   0.0000058425
       -0.0000390775  -0.0000020625  -0.0000222066  -0.0000364126   0.0000133225
        0.0006418840   0.0001925894  -0.0021462030
        0.0105013516   0.0152151595   0.0069934907  -0.0757619604  -0.0485137718
       -0.0150330271   0.0786941147   0.0613582718   0.0177020704   0.0106866135
        0.0104236657   0.0027209680  -0.0142272759  -0.0342471285  -0.0104743676
       -0.0073544608  -0.0001854557  -0.0007564368  -0.0006070825  -0.0019660936
       -0.0004573717   0.0001567371  -0.0002341256  -0.0000144516  -0.0001160023
        0.0000576596   0.0000574626   0.0003629906   0.0003364705  -0.0000224775
       -0.0002679190  -0.0000686108   0.0000092272   0.0000675027   0.0001652738
        0.0000467259  -0.0001453615   0.0000899527   0.0000217973   0.0003333186
        0.0000444160   0.0000190986  -0.0003255029  -0.0000695029  -0.0000097507
        0.0000470974   0.0001431024   0.0000399868   0.0000083295   0.0000055418
        0.0000037932  -0.0000494727   0.0000005643  -0.0000044946   0.0000482061
       -0.0000261900   0.0000117955   0.0000060227   0.0000651668  -0.0000287045
        0.0000258333  -0.0000810093   0.0000248686  -0.0001058501  -0.0000326880
        0.0000115046   0.0000331769   0.0001071289  -0.0000363949   0.0000202572
       -0.0000583942   0.0000259352   0.0000393712   0.0000352078  -0.0000165128
       -0.0000387152  -0.0000122385   0.0000007366   0.0000066585  -0.0000057743
       -0.0000049061   0.0000555860  -0.0000947703  -0.0000402721  -0.0000906185
       -0.0001293421  -0.0000238131   0.0001279402  -0.0001463865  -0.0000646221
        0.0001595153  -0.0005385527   0.0000233156  -0.0001624965   0.0002340486
        0.0000017071   0.0002007755   0.0000207469   0.0000565180   0.0000020369
        0.0001630341   0.0000168743   0.0002524937  -0.0002472416  -0.0000182578
       -0.0001803137   0.0002958498   0.0000042205   0.0000545724   0.0000363351
        0.0000514980   0.0000106042  -0.0000054385   0.0000086456  -0.0000200080
        0.0000289756   0.0000015099   0.0000139938  -0.0000416587   0.0000150276
        0.0000499609   0.0000279551  -0.0000229209  -0.0000393484  -0.0001458955
        0.0000431118  -0.0000273596   0.0001285739  -0.0000223826   0.0000371337
        0.0000500632  -0.0000225545  -0.0000312865  -0.0000530005   0.0000296601
        0.0000614155  -0.0000154761  -0.0000125777  -0.0000529899   0.0000278654
        0.0000107964   0.0000115277  -0.0000018182  -0.0000040375  -0.0000517073
       -0.0001815273  -0.0000372744  -0.0001672732   0.0000027946  -0.0000244449
       -0.0000550654  -0.0001739734  -0.0000635938   0.0001621586  -0.0000561307
       -0.0000662160   0.0005228556  -0.0006421622  -0.0000818650  -0.0000614886
       -0.0013862805  -0.0004414358  -0.0000491421   0.0004760028   0.0001142966
       -0.0005590517  -0.0001121692  -0.0000501142   0.0000207719  -0.0000139151
        0.0000236117  -0.0000224444  -0.0000155582  -0.0000086474  -0.0000068793
        0.0000103919  -0.0000058745   0.0000055596  -0.0000113291   0.0000011768
       -0.0000119308  -0.0000151555   0.0000043780  -0.0000143764  -0.0000027738
        0.0000011277  -0.0000139227   0.0000000477  -0.0000004929  -0.0000116905
        0.0000109942  -0.0000030620   0.0000031305   0.0000094481   0.0000013884
       -0.0000105423  -0.0000082559   0.0000080109  -0.0000312058   0.0000155896
        0.0000043611   0.0000121514   0.0000268987  -0.0000110277  -0.0000038716
       -0.0000299802   0.0000165040  -0.0000311819   0.0000027716   0.0000000371
       -0.0000085576   0.0000113659  -0.0000092645   0.0000000392  -0.0000055195
       -0.0000053014  -0.0000134971  -0.0000030987   0.0000017299  -0.0000099715
        0.0000088377  -0.0000000082  -0.0000066622   0.0000074138  -0.0000017981
        0.0000020332   0.0000194420  -0.0000055473   0.0000172294   0.0000068777
       -0.0000052707  -0.0000133836  -0.0000105992   0.0000055455  -0.0000086911
        0.0000276917   0.0000118208   0.0000266385  -0.0000089938  -0.0000204674
       -0.0020811436  -0.0000996118  -0.0002142942
        0.0121090290  -0.0298428330  -0.0400621298  -0.0695743553  -0.1960885081
       -0.0445070756   0.0613582718   0.3142155367   0.0715490346   0.0071422689
       -0.0667751099   0.0209702912  -0.0097860980  -0.0217871691  -0.0078615501
       -0.0047955662   0.0006349109  -0.0005411528  -0.0006065278  -0.0013169410
       -0.0002662595   0.0004752762  -0.0003768478   0.0000228338   0.0000116687
        0.0004058418   0.0000804171   0.0003935201   0.0002020661  -0.0000248688
       -0.0002584863  -0.0000334568  -0.0000219599   0.0000506037   0.0001254082
        0.0000257540  -0.0001057347   0.0000675102   0.0000302583   0.0002430338
        0.0000288775   0.0000111004  -0.0002262078   0.0000116090  -0.0000156385
        0.0000113028   0.0000655337   0.0000376986  -0.0000015195   0.0000107501
        0.0000023929  -0.0000314108  -0.0000025309  -0.0000009705   0.0000260477
       -0.0000140398   0.0000082757   0.0000011405   0.0000465461  -0.0000176819
        0.0000423581  -0.0000774981   0.0000226162  -0.0000757137   0.0000285029
       -0.0000017160  -0.0000038428   0.0000480750  -0.0000206178   0.0000138943
       -0.0000409451   0.0000219097   0.0000316673   0.0000306867  -0.0000092558
       -0.0000369611  -0.0000088227   0.0000033351  -0.0000025015  -0.0000040970
        0.0000000825   0.0000735236  -0.0001039290  -0.0000163318  -0.0000795397
       -0.0001011935  -0.0000280760   0.0000941134  -0.0001283407  -0.0000643149
       -0.0000726755  -0.0005937997   0.0000253017  -0.0000543499   0.0001576911
        0.0000151059   0.0001256762   0.0000208390   0.0000144895   0.0000231377
        0.0001046132   0.0000245212   0.0001474973  -0.0001567673  -0.0000096637
       -0.0000167910   0.0002409881  -0.0000120850  -0.0000334427   0.0000087229
        0.0000492149   0.0000178400   0.0000133420   0.0000037174  -0.0000115177
        0.0000072042   0.0000071378   0.0000113687  -0.0000184833   0.0000109645
        0.0000342021   0.0000182949  -0.0000108929  -0.0000146688  -0.0001364738
        0.0000310948   0.0000721866   0.0001210930  -0.0000341849  -0.0000527871
        0.0000297681  -0.0000037936  -0.0000209969  -0.0000420892   0.0000239165
        0.0000562140  -0.0000101749  -0.0000103707  -0.0000428066   0.0000274356