$hessian                                                                        
        0.1133976508  -0.3010194095   0.1179481129  -0.1187062682   0.2786835539
       -0.1087754044   0.0088028823   0.0281667104  -0.0106665418   0.0046216541
       -0.0022267488   0.0010652589  -0.0011766855   0.0006826403  -0.0003180860
       -0.0071875059  -0.0029689314   0.0003719074   0.0018502538   0.0004366992
       -0.0000542634  -0.0008012970   0.0012902077  -0.0010508430  -0.0003648098
       -0.0008993185   0.0003291964   0.0007772362  -0.0000171880   0.0003166363
       -0.0015200715   0.0002441521   0.0001095419   0.0005971918   0.0004793089
       -0.0000521387  -0.0012969604   0.0007012123  -0.0000520325   0.0016106370
       -0.0005679695   0.0001980855  -0.0017140525   0.0006550658  -0.0001997279
        0.0006154481  -0.0014719403  -0.0002544936  -0.0002701450   0.0011331204
        0.0002673187   0.0005247067  -0.0005688725  -0.0000494499  -0.0001588808
       -0.0000070377  -0.0000283629   0.0006989626  -0.0005974659  -0.0000192800
       -0.0012299451   0.0004361307  -0.0002199819   0.0014568815  -0.0007101032
        0.0000812424  -0.0004040668   0.0016878522   0.0004684008   0.0006130973
       -0.0015582963  -0.0004066882  -0.0001000503  -0.0001086033   0.0000738707
       -0.0000038211  -0.0000003242   0.0000009704  -0.0002913247   0.0001695130
       -0.0000763124  -0.0002443633  -0.0004601363   0.0001308730   0.0001180514
       -0.0001852169   0.0001077322   0.0005887287   0.0008903048  -0.0001266293
       -0.0010661977  -0.0022660941   0.0008852991   0.0001802092  -0.0000002846
       -0.0000143333   0.0000042594   0.0000487369  -0.0000105642  -0.0000107749
       -0.0000030147   0.0000328059  -0.0000075720   0.0000273992  -0.0000159170
        0.0000090623  -0.0000196731   0.0000189372   0.0000023787   0.0000106051
       -0.0000213106   0.0000169922  -0.0000122840  -0.0000073012   0.0000130389
       -0.0000145162  -0.0000041615   0.0000423461  -0.0000557834   0.0000095632
        0.0000160418   0.0000206506  -0.0000542929  -0.0000029187  -0.0000246510
        0.0000623638
       -0.3010194095   0.9803157157  -0.3762462525   0.2788745870  -0.9264558120
        0.3497674925   0.0251832248  -0.0613504191   0.0291082764  -0.0135813542
       -0.0035257677   0.0007624234   0.0076190563   0.0008979692   0.0001665725
        0.0136299479   0.0138805705  -0.0034383976  -0.0068525711  -0.0020286669
        0.0003552134   0.0007961666   0.0004458547  -0.0000158090   0.0004311308
        0.0003836643   0.0000424033  -0.0029012727  -0.0002231379  -0.0006317403
        0.0048166218  -0.0010640028  -0.0000933350  -0.0020871822  -0.0015340234
        0.0000376891   0.0040492895  -0.0021788084   0.0001381440  -0.0049856651
        0.0017729078  -0.0006202785   0.0052020834  -0.0019388588   0.0006240094
       -0.0018406633   0.0044485082   0.0007719154   0.0008439838  -0.0034161829
       -0.0008002260  -0.0015726610   0.0017441037   0.0001577126   0.0004883879
       -0.0000072204   0.0000771314  -0.0021502081   0.0018080495   0.0000557713
        0.0037575229  -0.0013109823   0.0006797783  -0.0045855944   0.0021872652
       -0.0002537639   0.0014729690  -0.0052155004  -0.0013021289  -0.0019007325
        0.0048217032   0.0012931146   0.0003225824   0.0003294902  -0.0002414743
       -0.0000531916  -0.0000119266  -0.0000368586   0.0005412656  -0.0005208427
        0.0001214911   0.0005133422   0.0021520232  -0.0007767561   0.0003661676
       -0.0004832624   0.0002257064  -0.0004923999  -0.0009206896  -0.0002992992
       -0.0045153564  -0.0027924792   0.0004633370  -0.0001139020  -0.0001075084
        0.0000721181   0.0000069990  -0.0001095276   0.0000529840  -0.0000034719
       -0.0000193454  -0.0000937039   0.0000157031  -0.0000953816   0.0000388378
       -0.0000484317   0.0000602085  -0.0000695151  -0.0000258285  -0.0000298740
        0.0000534554  -0.0000724428   0.0000559018   0.0000125306  -0.0000188738
        0.0000291356  -0.0000021148  -0.0000748051   0.0001283401  -0.0000849916
        0.0000150962  -0.0000777651  -0.0000051790  -0.0000501099  -0.0000434258
       -0.0000662839
        0.1179481129  -0.3762462525   0.1633495977  -0.1087525111   0.3496469443
       -0.1669198295  -0.0094800094   0.0294884109   0.0004661355   0.0052622699
        0.0015337063   0.0009841589  -0.0028689289  -0.0003535522  -0.0003181237
       -0.0058400593  -0.0048809113   0.0030152275   0.0026281370   0.0008902829
        0.0002601233  -0.0003974234   0.0003142373   0.0002446101  -0.0002862583
       -0.0003177751   0.0000529961   0.0011771834   0.0000522455   0.0002261095
       -0.0019380753   0.0003986436   0.0000160754   0.0008387943   0.0006261493
        0.0000013726  -0.0016109497   0.0008634613  -0.0000435390   0.0019824805
       -0.0006943686   0.0002433413  -0.0020552767   0.0007710055  -0.0002501197
        0.0007318273  -0.0017572839  -0.0003133369  -0.0003350292   0.0013618568
        0.0003426803   0.0006344457  -0.0006869726  -0.0000642911  -0.0001952052
       -0.0000043719  -0.0000135230   0.0008609845  -0.0007372305  -0.0000451044
       -0.0015140176   0.0005218853  -0.0002730357   0.0018492489  -0.0009209493
        0.0001058010  -0.0006393310   0.0020937053   0.0005166522   0.0007728847
       -0.0019146401  -0.0005243253  -0.0001256343  -0.0001189583   0.0001167956
        0.0000347342   0.0000159109  -0.0000046441  -0.0002368284   0.0002406897
       -0.0000261198  -0.0002139727  -0.0008498748   0.0002353230  -0.0001122079
        0.0001459746  -0.0000204081   0.0003549395  -0.0001554819  -0.0012842887
        0.0013900080   0.0006264582  -0.0000748760   0.0000757366   0.0000395678
       -0.0000404208  -0.0000032621   0.0000425435  -0.0000178887   0.0000042996
        0.0000059724   0.0000406372  -0.0000060190   0.0000316132  -0.0000007544
        0.0000205702  -0.0000251160   0.0000243215   0.0000124391   0.0000110411
       -0.0000283087   0.0000241424  -0.0000244479  -0.0000152305   0.0000001195
       -0.0000071932  -0.0000006542   0.0000089633  -0.0000327509   0.0000299259
       -0.0000238931   0.0000057343  -0.0000155265   0.0000225713   0.0000000907
        0.0000224644
       -0.1187062682   0.2788745870  -0.1087525111   0.2195255325  -0.3623930343
        0.1454367721  -0.0833213880   0.0649083532  -0.0275248320  -0.0287666033
        0.0259008161  -0.0121432272   0.0000590449  -0.0035388226   0.0012173513
        0.0201068403   0.0028115413   0.0008112422  -0.0052722186  -0.0017846046
        0.0004305369  -0.0004901586  -0.0036190472   0.0017597366   0.0000890722
        0.0006682873  -0.0001960681  -0.0016155242  -0.0000758302  -0.0004356547
        0.0030419141  -0.0006552324  -0.0001548248  -0.0012752371  -0.0009751774
        0.0000170931   0.0026548518  -0.0014621245   0.0001006856  -0.0033337528
        0.0011967531  -0.0004196591   0.0035388669  -0.0013623396   0.0004105813
       -0.0012756410   0.0030543862   0.0005369604   0.0005998746  -0.0023645355
       -0.0005539405  -0.0010930046   0.0011966356   0.0001079615   0.0003195470
        0.0000076463   0.0000516360  -0.0014720289   0.0012618332   0.0000507839
        0.0025770978  -0.0009322094   0.0004403354  -0.0031050733   0.0015239239
       -0.0001593285   0.0009499134  -0.0035279396  -0.0009216892  -0.0012726550
        0.0032395916   0.0008748534   0.0001871494   0.0002135811  -0.0001575769
       -0.0000051314  -0.0000133720  -0.0000142913   0.0002942373  -0.0002797390
        0.0000954996   0.0006942588   0.0014572315  -0.0005214991  -0.0000393790
        0.0000457440  -0.0000605785  -0.0011099725  -0.0029573316   0.0002545179
       -0.0021660198  -0.0004560472  -0.0004960535  -0.0002147937   0.0000243034
        0.0000050427   0.0000101093  -0.0000841458   0.0000246863   0.0000110482
       -0.0000033919  -0.0000592842   0.0000098585  -0.0000570949   0.0000228722
       -0.0000152545   0.0000324648  -0.0000506873  -0.0000060520  -0.0000269524
        0.0000309114  -0.0000321744   0.0000291189   0.0000028888  -0.0000051341
        0.0000175563   0.0000017059  -0.0000424480   0.0000887514  -0.0000461774
       -0.0000053433  -0.0000200237   0.0000594132  -0.0000279609   0.0000358896
       -0.0000761843
        0.2786835539  -0.9264558120   0.3496469443  -0.3623930343   1.1964423254
       -0.4444030761   0.0670459454  -0.2072220225   0.0671674111   0.0404947884
       -0.0045380358   0.0050954525  -0.0151066775  -0.0005154730  -0.0005490346
       -0.0203393545  -0.0584301945   0.0199847819   0.0156087062   0.0045278856
       -0.0012783458  -0.0030176926   0.0010850616  -0.0009248328  -0.0007289038
       -0.0010847395   0.0001962377   0.0041739526   0.0004616899   0.0009739443
       -0.0076424670   0.0017328073   0.0001620676   0.0033406270   0.0024420097
       -0.0000715883  -0.0065672538   0.0035801814  -0.0002465843   0.0081076203
       -0.0028812339   0.0009992289  -0.0084757300   0.0031891391  -0.0010207324
        0.0029957564  -0.0072422860  -0.0012858874  -0.0013824317   0.0055706941
        0.0013128759   0.0025731847  -0.0028290130  -0.0002611952  -0.0008054635
        0.0000109983  -0.0001146464   0.0035071059  -0.0029656000  -0.0000995554
       -0.0061250717   0.0021347940  -0.0010804231   0.0074671289  -0.0035830156
        0.0004022154  -0.0024312599   0.0084821986   0.0021036379   0.0031031153
       -0.0078613877  -0.0020925909  -0.0005093010  -0.0005294828   0.0003876441
        0.0000819177   0.0000284232   0.0000488076  -0.0002263115   0.0008360945
       -0.0001391606  -0.0012445007  -0.0044860894   0.0015620945  -0.0007499076
        0.0006350608  -0.0003112712  -0.0021926999  -0.0023088156   0.0037499152
        0.0019848760   0.0014614767  -0.0000859700   0.0003280161   0.0001633396
       -0.0001505095  -0.0000115563   0.0001926695  -0.0000751586   0.0000151025
        0.0000249294   0.0001497613  -0.0000117195   0.0001494222  -0.0000545045
        0.0000665524  -0.0000800184   0.0001122301   0.0000340769   0.0000587049
       -0.0000709367   0.0001062807  -0.0000913210  -0.0000028724   0.0000139633
       -0.0000470671   0.0000102526   0.0001024034  -0.0002038636   0.0001448126
       -0.0000102331   0.0000871854  -0.0000073865   0.0001368960   0.0000583802
        0.0001159474
       -0.1087754044   0.3497674925  -0.1669198295   0.1454367721  -0.4444030761
        0.2391704760  -0.0286499725   0.0666724542  -0.0674793762  -0.0173427234
        0.0042094328  -0.0024196705   0.0053841398   0.0003203897   0.0014795082
        0.0096655771   0.0220381237  -0.0082923861  -0.0061863828  -0.0026944209
       -0.0017444371   0.0010338434  -0.0009336671   0.0005807659   0.0003245127
        0.0004913074   0.0000215977  -0.0017087981  -0.0001341942  -0.0004479053
        0.0030614613  -0.0007041457  -0.0000571120  -0.0013653544  -0.0009812870
       -0.0000017814   0.0026715253  -0.0014490710   0.0000828022  -0.0033095552
        0.0011716552  -0.0004336356   0.0034654053  -0.0012948182   0.0004127105
       -0.0012273975   0.0029658599   0.0005162819   0.0005840047  -0.0022901370
       -0.0005227630  -0.0010460038   0.0011601357   0.0001112433   0.0003390862
        0.0000110074   0.0000736811  -0.0014656530   0.0012345285   0.0000537338
        0.0025462559  -0.0009021612   0.0004848831  -0.0031177002   0.0015153602
       -0.0001746583   0.0010836653  -0.0035162355  -0.0009098276  -0.0012644525
        0.0031785669   0.0008860769   0.0002061899   0.0002119286  -0.0001618256
       -0.0000402573  -0.0000240648  -0.0000377170   0.0000768728  -0.0003169110
        0.0000627728   0.0005956236   0.0018091643  -0.0007094928   0.0002594286
       -0.0002548236  -0.0000325417  -0.0000038884   0.0036534835   0.0061246342
       -0.0009090206  -0.0003882674   0.0002982635  -0.0001519599  -0.0000686107
        0.0000170918   0.0000007575  -0.0000885782   0.0000248084  -0.0000080070
       -0.0000106312  -0.0000741316   0.0000005810  -0.0000617671   0.0000192850
       -0.0000256940   0.0000389835  -0.0000569613  -0.0000164063  -0.0000248786
        0.0000409061  -0.0000437510   0.0000326106   0.0000183335  -0.0000035824
        0.0000098851   0.0000223719  -0.0000293344   0.0000720629  -0.0000485059
        0.0000125121  -0.0000320245   0.0000405539  -0.0000569156   0.0000093382
       -0.0000182231
        0.0088028823   0.0251832248  -0.0094800094  -0.0833213880   0.0670459454
       -0.0286499725   0.5571152008   0.0203315718   0.0339808709  -0.2616289284
        0.0073977095  -0.0226837490  -0.0763554145   0.0012371839  -0.0080853605
       -0.1041430920  -0.0990787910   0.0310442375  -0.0496950678  -0.0319019247
        0.0077317743   0.0083677169  -0.0046523352   0.0028296852  -0.0021313154
       -0.0012403454   0.0004564081  -0.0010270655  -0.0000279120  -0.0009501411
        0.0069593766  -0.0030678017  -0.0003939818  -0.0029574560  -0.0023307652
       -0.0000523839   0.0072037869  -0.0044570466   0.0000620644  -0.0097063258
        0.0037315896  -0.0012773239   0.0104867220  -0.0043961389   0.0011986900
       -0.0040575193   0.0093330049   0.0015861872   0.0021334841  -0.0073270385
       -0.0016663159  -0.0034299634   0.0036455703   0.0003128192   0.0006112487
        0.0002627815   0.0001072271  -0.0044632389   0.0039639778   0.0002578194
        0.0079183803  -0.0030762327   0.0013108132  -0.0096880791   0.0049169738
       -0.0004611919   0.0036150586  -0.0105931991  -0.0024912204  -0.0035534588
        0.0092062139   0.0028499514   0.0004098681   0.0005272618  -0.0005726196
       -0.0000807976  -0.0001289329  -0.0000667280  -0.0035781407  -0.0014702068
        0.0003848525   0.0007416483   0.0084699351  -0.0037446385   0.0010854241
       -0.0000452818   0.0000067941   0.0058058873   0.0085590179  -0.0033624908
       -0.0008399340   0.0001431170  -0.0000717901  -0.0000185415  -0.0001266678
       -0.0000262449  -0.0000387539  -0.0001084798   0.0001020144   0.0000282924
       -0.0000228519  -0.0001140333   0.0000421142  -0.0001519277   0.0001210024
       -0.0000455596   0.0001428660  -0.0001563111  -0.0000515039  -0.0000278561
        0.0001495027  -0.0000674901   0.0000708956   0.0000422120  -0.0000333109
        0.0000325374  -0.0000278469  -0.0000595694   0.0001989275  -0.0002703604
        0.0000322804  -0.0000756676   0.0000428363  -0.0003874577  -0.0000929025
        0.0000269516
        0.0281667104  -0.0613504191   0.0294884109   0.0649083532  -0.2072220225
        0.0666724542   0.0203315718   0.5488378742  -0.1721182829   0.0124173535
       -0.0508485700   0.0054802988  -0.0019504412   0.0166450181  -0.0020316213
       -0.0706143905  -0.2114474755   0.0627839652  -0.0547992608  -0.0137657308
        0.0000548486   0.0120199753  -0.0063532997   0.0033517820  -0.0041856919
       -0.0018063998   0.0003813729  -0.0014453159   0.0002613877  -0.0016657230
        0.0104905854  -0.0050397411  -0.0006973815  -0.0042909299  -0.0034976121
       -0.0000207700   0.0110991597  -0.0070147284   0.0000795219  -0.0152396863
        0.0059322094  -0.0020040989   0.0165864932  -0.0070481924   0.0018681700
       -0.0065129081   0.0148461716   0.0025232920   0.0034783733  -0.0117007462
       -0.0026431285  -0.0054900481   0.0058402519   0.0004999618   0.0009031357
        0.0004795862   0.0001719714  -0.0070426600   0.0063101817   0.0004325279
        0.0125615055  -0.0049503294   0.0020826767  -0.0152901754   0.0078539487
       -0.0007279764   0.0057591932  -0.0166807907  -0.0039723438  -0.0055867743
        0.0144272985   0.0045492568   0.0006161040   0.0007887947  -0.0008995046
       -0.0000926234  -0.0002192538  -0.0000860211  -0.0046148342  -0.0004028370
        0.0001527891   0.0088490539   0.0126118016  -0.0021792929   0.0001690983
       -0.0002774607  -0.0001876934  -0.0107679940  -0.0251595686   0.0088118340
        0.0001177258   0.0001962144   0.0001135938  -0.0001347685  -0.0001951503
        0.0000269018  -0.0000873192  -0.0001884929   0.0001453259   0.0000559244
       -0.0000332473  -0.0001749216   0.0000554176  -0.0002346242   0.0002129869
       -0.0000638470   0.0002191120  -0.0002414548  -0.0000826220  -0.0000459891
        0.0002636166  -0.0000998489   0.0000912741   0.0000712794  -0.0000732334
        0.0000527551  -0.0000303738  -0.0001191155   0.0003030572  -0.0004119566
        0.0000115878  -0.0001257305   0.0001175337  -0.0000128333  -0.0000885250
       -0.0002438271
       -0.0106665418   0.0291082764   0.0004661355  -0.0275248320   0.0671674111
       -0.0674793762   0.0339808709  -0.1721182829   0.1488377265  -0.0251757521
        0.0047211137  -0.0434171933  -0.0065857482  -0.0016205364   0.0120949448
        0.0194423736   0.0597157348  -0.0517265230   0.0169098258   0.0020340094
        0.0002245275  -0.0038529900   0.0016874075  -0.0023036055   0.0014654500
        0.0005364777  -0.0002149605   0.0005621009  -0.0000837378   0.0004741464
       -0.0033785514   0.0016138722   0.0002525171   0.0013724773   0.0010975184
        0.0000606616  -0.0036181294   0.0023145929  -0.0000130827   0.0049877198
       -0.0019667057   0.0006873988  -0.0054493312   0.0023240265  -0.0005922603
        0.0021468931  -0.0048863752  -0.0008221677  -0.0011676251   0.0038577593
        0.0008869412   0.0018187305  -0.0019272028  -0.0001561317  -0.0002935305
       -0.0001688137  -0.0000497138   0.0023256328  -0.0020842061  -0.0001528023
       -0.0041571553   0.0016419634  -0.0006919247   0.0050575296  -0.0026103931
        0.0002410867  -0.0019419907   0.0054908777   0.0013212057   0.0018420528
       -0.0047238397  -0.0015084606  -0.0001936272  -0.0002514154   0.0003003177
        0.0000350464   0.0000826382   0.0000253984   0.0012522504   0.0001670666
        0.0003549867  -0.0037374780  -0.0021448368   0.0050297560   0.0000329320
       -0.0000504943  -0.0001082167   0.0045020107   0.0112526262  -0.0017705725
       -0.0002051351  -0.0000534414   0.0000013363   0.0000638963   0.0001229862
        0.0001131796   0.0000164374   0.0000662543  -0.0000444383  -0.0000130057
        0.0000135158   0.0000501289  -0.0000197710   0.0000702200  -0.0000462803
        0.0000206680  -0.0000743115   0.0000891411   0.0000272718   0.0000126439
       -0.0000834796   0.0000315019  -0.0000292464  -0.0000268509   0.0000265338
       -0.0000138552   0.0000058045   0.0000409840  -0.0000911128   0.0001239491
       -0.0000045600   0.0000457318  -0.0000452592   0.0000245653  -0.0002459165
       -0.0003879905
        0.0046216541  -0.0135813542   0.0052622699  -0.0287666033   0.0404947884
       -0.0173427234  -0.2616289284   0.0124173535  -0.0251757521   1.4958749088
       -0.0184270622   0.1294410464  -1.1595142261   0.0195453312  -0.1030836159
       -0.0634468202  -0.0435999740   0.0108117084   0.0168951012   0.0024393862
        0.0000282971  -0.0029546814   0.0025104996  -0.0013631620  -0.0003765589
       -0.0005728443  -0.0000481413   0.0045704950   0.0007421034   0.0008107939
       -0.0084770532   0.0019641925   0.0001002437   0.0038167888   0.0027387707
        0.0000346165  -0.0073506201   0.0040009331  -0.0002693059   0.0090554673
       -0.0031976602   0.0011269578  -0.0094298779   0.0035293959  -0.0011287223
        0.0033106587  -0.0080456492  -0.0014350185  -0.0015415892   0.0062109463
        0.0014698757   0.0028522420  -0.0031507849  -0.0002874174  -0.0008865032
        0.0000409519  -0.0001153064   0.0039514391  -0.0033299188  -0.0001295026
       -0.0068629058   0.0024033422  -0.0012025932   0.0084528354  -0.0040340277
        0.0004313067  -0.0027952472   0.0095776016   0.0022949790   0.0034545153
       -0.0087740245  -0.0023676735  -0.0005548529  -0.0005835075   0.0004451877
        0.0001106171   0.0000545754   0.0000693664  -0.0000835562   0.0007315642
       -0.0000064723  -0.0022477109  -0.0058463287   0.0021824324  -0.0011381725
        0.0012460748  -0.0005808538   0.0008121743   0.0022525744  -0.0002109728
       -0.0002707539   0.0001207079  -0.0001160403   0.0002690992   0.0000677884
       -0.0000546695  -0.0000281942   0.0001985474  -0.0000772434   0.0000341467
        0.0000300285   0.0001673335  -0.0000124282   0.0001601197  -0.0000433057
        0.0000699065  -0.0000913863   0.0001400119   0.0000332185   0.0000677823
       -0.0000644912   0.0000972298  -0.0001008629   0.0000076413  -0.0000330625
       -0.0000341121   0.0000132746   0.0000168721  -0.0002160075   0.0001865723
       -0.0000790899   0.0000038150   0.0000258252   0.0001800663   0.0000363305
        0.0000532435
       -0.0022267488  -0.0035257677   0.0015337063   0.0259008161  -0.0045380358
        0.0042094328   0.0073977095  -0.0508485700   0.0047211137  -0.0184270622
        0.0972264390  -0.0139803230   0.0166360014  -0.0339359689   0.0029015573
       -0.0240872748  -0.0001073906  -0.0016008939  -0.0028673571  -0.0031690880
        0.0034374936   0.0003583788  -0.0003403917   0.0001655655   0.0001742152
        0.0000790389  -0.0001428090  -0.0003104082  -0.0000653733   0.0000162130
        0.0006421095  -0.0001398979  -0.0000132014  -0.0002685429  -0.0001603986
       -0.0000277318   0.0005083319  -0.0002812120   0.0000173918  -0.0006491336
        0.0002459961  -0.0000821931   0.0006930265  -0.0002634868   0.0000786150
       -0.0002457243   0.0006032352   0.0001083677   0.0001249287  -0.0004794348
       -0.0001104631  -0.0002147225   0.0002506980   0.0000235920   0.0000459070
       -0.0000083734   0.0000065170  -0.0002755913   0.0002402268   0.0000083268
        0.0005032225  -0.0001814754   0.0000799024  -0.0006133519   0.0003002300
       -0.0000248494   0.0001947942  -0.0006847688  -0.0001675319  -0.0002518962
        0.0006472831   0.0001712609   0.0000328033   0.0000229582  -0.0000277559
       -0.0000057456  -0.0000018393  -0.0000054432   0.0000268402  -0.0003995175
        0.0000105178  -0.0014203394   0.0005596683  -0.0003742132   0.0004442725
       -0.0001556554   0.0001311172  -0.0016754652  -0.0007715198  -0.0011089494
        0.0000012540  -0.0000452666   0.0000198429  -0.0000299438  -0.0000075246
        0.0000148622   0.0000121232  -0.0000202385   0.0000113627  -0.0000021163
       -0.0000101095  -0.0000010703   0.0000033251  -0.0000188761   0.0000050041
       -0.0000060920   0.0000028773  -0.0000092774  -0.0000036166  -0.0000076413
        0.0000025996  -0.0000089669   0.0000005381  -0.0000015274  -0.0000019762
        0.0000003351  -0.0000033353  -0.0000050120   0.0000105429  -0.0000120418
        0.0000068653   0.0000010789  -0.0000031613  -0.0001098371  -0.0000233237
        0.0000224095
        0.0010652589   0.0007624234   0.0009841589  -0.0121432272   0.0050954525
       -0.0024196705  -0.0226837490   0.0054802988  -0.0434171933   0.1294410464
       -0.0139803230   0.0805898171  -0.1019827016   0.0031427271  -0.0404763539
        0.0032833683  -0.0034736603   0.0028745863   0.0020825450   0.0039611800
        0.0051760044  -0.0004554889   0.0001466198  -0.0002617328  -0.0000271429
       -0.0001693068  -0.0003552689   0.0004615958   0.0000022412   0.0003340386
       -0.0009249397   0.0002778345   0.0000154654   0.0004543762   0.0003674435
       -0.0000818005  -0.0008649642   0.0004536090  -0.0000361294   0.0010628046
       -0.0003461409   0.0001109059  -0.0011039195   0.0004206609  -0.0001483211
        0.0003967595  -0.0009381697  -0.0001735983  -0.0001852477   0.0007215184
        0.0001744627   0.0003379551  -0.0003453246  -0.0000336552  -0.0001331998
       -0.0000303683  -0.0000207575   0.0004998002  -0.0004121998  -0.0000359134
       -0.0008466432   0.0003005047  -0.0001805160   0.0010227497  -0.0005086582
        0.0000704349  -0.0003411604   0.0011547667   0.0002856341   0.0003910889
       -0.0009788319  -0.0003215017  -0.0000831225  -0.0000930324   0.0000732773
        0.0000150851   0.0000203904  -0.0000138685   0.0001111398   0.0001055023
       -0.0004113581   0.0002110694  -0.0007850864   0.0004517456  -0.0002404398
        0.0002140920  -0.0000395467   0.0011276951  -0.0007640446  -0.0028340646
       -0.0000089005   0.0001195722   0.0000591777   0.0000131727   0.0000158688
        0.0000209695  -0.0000023686   0.0000193157  -0.0000015473  -0.0000059626
       -0.0000056824   0.0000410254  -0.0000029649   0.0000159259  -0.0000169605
        0.0000092040  -0.0000109247   0.0000008926   0.0000067173   0.0000122171
       -0.0000385523   0.0000085402  -0.0000102410  -0.0000160952  -0.0000011786
       -0.0000028928  -0.0000058965   0.0000034822  -0.0000296835   0.0000276417
       -0.0000162055   0.0000142728  -0.0000033330   0.0000480728   0.0000601334
        0.0000533971
       -0.0011766855   0.0076190563  -0.0028689289   0.0000590449  -0.0151066775
        0.0053841398  -0.0763554145  -0.0019504412  -0.0065857482  -1.1595142261
        0.0166360014  -0.1019827016   1.2286150156  -0.0211405251   0.1107623613
        0.0147230635   0.0170999490  -0.0053134268  -0.0083339445  -0.0031800449
        0.0006077128   0.0012667203  -0.0011521786   0.0006273290   0.0005614520
        0.0004992450   0.0000213496  -0.0030103096  -0.0004800750  -0.0004812974
        0.0051553826  -0.0010546167  -0.0000427775  -0.0022981203  -0.0016661241
       -0.0000141173   0.0043172155  -0.0022931540   0.0001538753  -0.0052515809
        0.0018349632  -0.0006526596   0.0054305526  -0.0019994974   0.0006634053
       -0.0018951516   0.0046125240   0.0008178956   0.0008567018  -0.0035511678
       -0.0008414925  -0.0016306235   0.0018036507   0.0001727426   0.0005138826
       -0.0000440302   0.0000697631  -0.0022750198   0.0019012484   0.0000743859
        0.0039326513  -0.0013595458   0.0006988574  -0.0048616678   0.0022936920
       -0.0002471337   0.0015812928  -0.0055316241  -0.0013202698  -0.0020115847
        0.0050859232   0.0013472082   0.0003405172   0.0003438280  -0.0002599856
       -0.0000744801  -0.0000249510  -0.0000386204   0.0004201109  -0.0006668786
        0.0001149940   0.0000996638   0.0029225649  -0.0012264063   0.0007576239
       -0.0007264072   0.0003626216   0.0001229673  -0.0005461095   0.0000834375
        0.0002753871  -0.0000962060   0.0000879249  -0.0001338394  -0.0000438156
        0.0000262027   0.0000138740  -0.0001032155   0.0000494147  -0.0000177846
       -0.0000226585  -0.0000997943   0.0000129064  -0.0000964099   0.0000274872
       -0.0000501007   0.0000628162  -0.0000729933  -0.0000256604  -0.0000330643
        0.0000493699  -0.0000637965   0.0000664263   0.0000121048   0.0000164391
        0.0000224435  -0.0000058733  -0.0000141609   0.0001300529  -0.0001041353
        0.0000593647  -0.0000173227  -0.0000249643  -0.0001376784  -0.0000476438
       -0.0000312571
        0.0006826403   0.0008979692  -0.0003535522  -0.0035388226  -0.0005154730
        0.0003203897   0.0012371839   0.0166450181  -0.0016205364   0.0195453312
       -0.0339359689   0.0031427271  -0.0211405251   0.0166913994  -0.0019873438
        0.0021905558  -0.0008171181   0.0010855777   0.0005521197   0.0007491951
       -0.0006910664  -0.0001612203   0.0000756992  -0.0000187206   0.0000060746
        0.0000526970   0.0000202777  -0.0000098810   0.0000175565  -0.0000175644
       -0.0000471232   0.0000521726   0.0000073331   0.0000353293  -0.0000255536
        0.0000052464  -0.0000788922   0.0000349881  -0.0000049085   0.0001090325
       -0.0000402337   0.0000188201  -0.0001335755   0.0000445603  -0.0000192549
        0.0000366723  -0.0001212081  -0.0000264396  -0.0000246177   0.0001033886
        0.0000235301   0.0000288353  -0.0000548838  -0.0000133362  -0.0000102701
        0.0000167763   0.0000017149   0.0000613103  -0.0000366841   0.0000003117
       -0.0001075837   0.0000369596  -0.0000132377   0.0001292833  -0.0000546978
        0.0000038137  -0.0000311867   0.0001438477   0.0000385686   0.0000238631
       -0.0001060347  -0.0000391533  -0.0000089395   0.0000066416   0.0000051908
        0.0000051633   0.0000002843   0.0000009230   0.0000604069   0.0000728172
       -0.0000021641   0.0004238082  -0.0003531213   0.0001362441  -0.0002511309
        0.0001511216  -0.0000768761   0.0004333648   0.0002537812   0.0001051012
       -0.0000451506  -0.0000114991  -0.0000183812  -0.0000068112   0.0000003655
       -0.0000080308  -0.0000039473   0.0000141407   0.0000020428   0.0000050784
        0.0000076568   0.0000002733   0.0000028760   0.0000062252   0.0000009990
        0.0000004725   0.0000015234   0.0000018643   0.0000028503   0.0000043752
        0.0000002191   0.0000019631  -0.0000041739  -0.0000002312  -0.0000041306
       -0.0000001661   0.0000008765  -0.0000045325  -0.0000018477   0.0000027618
       -0.0000016361  -0.0000135416  -0.0000055395   0.0000357618   0.0000110452
       -0.0000084698
       -0.0003180860   0.0001665725  -0.0003181237   0.0012173513  -0.0005490346
        0.0014795082  -0.0080853605  -0.0020316213   0.0120949448  -0.1030836159
        0.0029015573  -0.0404763539   0.1107623613  -0.0019873438   0.0270357492
        0.0003725531   0.0024439159   0.0005945224  -0.0008294718  -0.0010087480
       -0.0008492198   0.0001767504  -0.0000764762   0.0001227496   0.0000594592
        0.0000740973   0.0000882734  -0.0003101974  -0.0000485091  -0.0001009268
        0.0005407930  -0.0001056471  -0.0000039412  -0.0002426494  -0.0001947009
        0.0000157218   0.0004556696  -0.0002519241   0.0000234979  -0.0005426113
        0.0001902423  -0.0000696697   0.0005490679  -0.0002103236   0.0000779358
       -0.0002039600   0.0004596313   0.0000902302   0.0000842053  -0.0003532157
       -0.0000665506  -0.0001772288   0.0001688478   0.0000239704   0.0000520477
        0.0000094896   0.0000277817  -0.0002330763   0.0002123215   0.0000170867
        0.0003992480  -0.0001418899   0.0000747651  -0.0004930684   0.0002421614
       -0.0000218240   0.0001722962  -0.0005755234  -0.0001400881  -0.0002044037
        0.0005225276   0.0001318194   0.0000394802   0.0000450217  -0.0000240733