$hessian                                                                        
        0.0679847845  -0.0092459120  -0.1203101904  -0.0784038011   0.0077698712
        0.1088171804   0.0073069781   0.0001801663  -0.0069722538   0.0007338233
       -0.0001464403  -0.0001914099  -0.0004743661  -0.0008098933   0.0000256793
       -0.0000093897  -0.0001923297  -0.0002850352  -0.0011360079   0.0004161384
       -0.0000276935   0.0001505663   0.0009384263   0.0003256103   0.0056076644
        0.0006299781  -0.0034007537  -0.0001025561   0.0011139333   0.0005954676
        0.0005648216   0.0006426983  -0.0004851810   0.0000559692  -0.0001392480
       -0.0000938781  -0.0000125499  -0.0000369761  -0.0004182170   0.0000052431
       -0.0010604471  -0.0001185071  -0.0000557122   0.0020685227   0.0218221911
       -0.0044921114   0.0009162367  -0.0006962756  -0.0009575839  -0.0012540367
        0.0006355700  -0.0004697977  -0.0000306092   0.0005599915   0.0015649132
       -0.0000435836  -0.0001595147  -0.0002991963  -0.0000863807  -0.0000102599
        0.0000830144  -0.0000868303  -0.0000323137   0.0000118309  -0.0000074782
       -0.0000217811   0.0000130900   0.0000075767   0.0000125291  -0.0000241490
        0.0000605439   0.0000401141   0.0000219224   0.0000263785   0.0001155953
       -0.0003269807   0.0001057575   0.0000244847  -0.0000218756  -0.0001025336
        0.0000072451  -0.0000441179  -0.0000516116   0.0000310881  -0.0000037790
       -0.0000421277   0.0000012098  -0.0000003837   0.0000226371   0.0000203765
        0.0001078810   0.0001367941  -0.0000318279  -0.0003415153   0.0000423978
        0.0000889904  -0.0000660723  -0.0000621903  -0.0001461663   0.0000160161
       -0.0000293323  -0.0000719838   0.0000012120   0.0000092443  -0.0000239092
        0.0000412459   0.0000221626   0.0000148563   0.0000362428   0.0001323282
        0.0000901422   0.0012208861  -0.0008633996   0.0001861000   0.0020870483
       -0.0002051567   0.0015508155  -0.0003091923  -0.0000311160  -0.0007210531
        0.0000305049  -0.0000502531   0.0000047501   0.0001205217   0.0000770341
       -0.0001164684  -0.0001359923   0.0000133974  -0.0001032704   0.0002345897
        0.0000332517  -0.0003722897   0.0008702009  -0.0005218347  -0.0010417557
        0.0001336298   0.0001458077   0.0000071696   0.0001032627  -0.0001172787
       -0.0000698785  -0.0000014503  -0.0000733598  -0.0001435489   0.0002832292
       -0.0003034515  -0.0003782286  -0.0001692303   0.0003173339   0.0001830702
       -0.0004130291  -0.0000877035   0.0002162908  -0.0000125769   0.0000189937
        0.0000067071  -0.0000505330   0.0000121612  -0.0000315088  -0.0000358893
       -0.0000159193  -0.0000436247   0.0000046334  -0.0000224277  -0.0000302460
       -0.0000321493   0.0000850357   0.0000142397  -0.0000307487  -0.0000855897
        0.0000232461   0.0000141437   0.0000462903  -0.0000148465  -0.0000276385
        0.0000489940   0.0000103570  -0.0000465629   0.0000330949   0.0000240992
       -0.0000144585  -0.0000095176   0.0000020821   0.0000021776  -0.0000182545
       -0.0000377927   0.0000052150   0.0000004647   0.0000524407  -0.0000226425
       -0.0000263790   0.0000397743  -0.0000233254  -0.0000508663   0.0000135080
        0.0000093804   0.0000131369  -0.0000097250   0.0000946513   0.0000575315
       -0.0000848988  -0.0009539291  -0.0002338517   0.0011333155
       -0.0092459120   0.0452224549   0.0426215526   0.0087353602  -0.0580606830
       -0.0385409751  -0.0034255714   0.0059911297   0.0131405139  -0.0010583876
        0.0013524976  -0.0002629673  -0.0002804777   0.0013276570   0.0003314957
        0.0000241392   0.0002049705   0.0002003115   0.0005957113  -0.0001998438
        0.0006762740   0.0013005287  -0.0024159512   0.0007573514   0.0031986262
        0.0036840094  -0.0189206083   0.0011536073   0.0014488089  -0.0008965990
        0.0014264778   0.0002538015   0.0004056662   0.0003742492   0.0001554541
       -0.0001914281   0.0005046004  -0.0015878798   0.0001991124  -0.0025503440
       -0.0022415146  -0.0003991743  -0.0005001138   0.0056235972   0.0009684270
        0.0005119376   0.0005857286  -0.0003259302  -0.0004324905  -0.0005316800
       -0.0004980489   0.0000714009   0.0001709598   0.0001662677   0.0000490252
       -0.0002945308  -0.0000759069  -0.0000112935   0.0000687471   0.0000194577
       -0.0000231748   0.0000107970  -0.0000191611  -0.0000042778   0.0000044272
        0.0000003485   0.0000053147  -0.0000012927   0.0000006167  -0.0000002596
       -0.0000178452  -0.0000105332   0.0000912616  -0.0000429715   0.0000498059
       -0.0000135325   0.0000549846   0.0000166262  -0.0000937365   0.0000343788
        0.0000612115  -0.0000105518  -0.0000318582   0.0000119503  -0.0000108959
        0.0000104504   0.0000069391  -0.0000004380   0.0000098136   0.0000016335
        0.0000273544   0.0000080157  -0.0000182113  -0.0000129337   0.0000645361
        0.0000104326  -0.0000134752  -0.0000352032   0.0000017351  -0.0000000223
        0.0000004074  -0.0000014298  -0.0000031569   0.0000037762  -0.0000045205
        0.0000003613   0.0000067424  -0.0000012063   0.0000015929   0.0000139549
       -0.0000321867  -0.0001598629  -0.0005486386  -0.0003254208  -0.0004428724
        0.0002015167   0.0003197345   0.0003560415   0.0001399953   0.0016538730
       -0.0000817385   0.0001455799  -0.0000533755   0.0000169599  -0.0000574413
        0.0001860507   0.0001221498  -0.0001639009   0.0002900369   0.0000040775
       -0.0000652092   0.0005065020   0.0001736325  -0.0006918120  -0.0008986670
       -0.0000360896   0.0000643237   0.0000342776  -0.0001622912   0.0000080133
       -0.0002429645   0.0000066360  -0.0003823543  -0.0001860894  -0.0002440901
        0.0001159266  -0.0004131320   0.0000885697   0.0002341584   0.0000460897
        0.0000163972  -0.0000742968  -0.0000383744  -0.0000204720   0.0000180493
        0.0000036422  -0.0000132317   0.0000079711   0.0000004055  -0.0000061808
        0.0000039646  -0.0000007972   0.0000035428   0.0000277071   0.0000277042
       -0.0000221216   0.0000141192  -0.0000282955   0.0000082190  -0.0000471257
       -0.0000248400   0.0000029253   0.0000566076  -0.0000081906   0.0000001563
        0.0000071305  -0.0000025884   0.0000088138   0.0000096690  -0.0000046382
        0.0000271304   0.0000151887  -0.0000129999   0.0000031935   0.0000190111
        0.0000077825   0.0000026118  -0.0000003867   0.0000084653   0.0000060852
        0.0000040381  -0.0000018189   0.0000123486   0.0000125653  -0.0000009393
        0.0000103124   0.0000030185   0.0000144900  -0.0000533220   0.0000283807
        0.0000053170  -0.0000080340   0.0000433838  -0.0003100822
       -0.1203101904   0.0426215526   0.6055096788   0.1083703391  -0.0383291726
       -0.5634116328   0.0030761143  -0.0009459975  -0.0172664323  -0.0000958091
       -0.0028456375  -0.0022137905  -0.0004136565  -0.0004894755   0.0004342958
        0.0003211212  -0.0005078243   0.0003403166  -0.0009229990  -0.0004893831
       -0.0006449410  -0.0011134194   0.0052293856  -0.0013765133   0.0046920737
       -0.0035947019  -0.0130739246   0.0028276887   0.0001973540  -0.0013331212
        0.0002255822   0.0000302726   0.0004280920   0.0001392341   0.0005846185
        0.0003013089   0.0008295758  -0.0004276493  -0.0002554627  -0.0032490079
       -0.0034839714  -0.0015606041   0.0044321581   0.0005565397  -0.0094365654
        0.0039001496  -0.0013387930   0.0002459726  -0.0001336662   0.0007886488
       -0.0005866142  -0.0000019001  -0.0001793039   0.0002393916  -0.0009183939
       -0.0000758504  -0.0005016756   0.0001687807   0.0000855186   0.0001491754
       -0.0001222308   0.0000744668  -0.0000242806   0.0000294181  -0.0000108090
        0.0000235743   0.0000122689   0.0000003269   0.0000407970  -0.0000054029
       -0.0000624719  -0.0000360487   0.0000735370  -0.0001385404  -0.0000489317
        0.0002214023  -0.0000477424   0.0001415748   0.0000924733   0.0000939126
       -0.0000003368  -0.0000073473   0.0000320324   0.0000107534  -0.0000068374
        0.0000332574   0.0000130564   0.0000149257  -0.0000073133  -0.0000231534
       -0.0001041221  -0.0000761741   0.0000243424   0.0001875589  -0.0000109874
        0.0000633787   0.0000140433  -0.0000462971   0.0001494739   0.0000076134
       -0.0000062557   0.0000547834   0.0000170814  -0.0000035023   0.0000065933
       -0.0000113358  -0.0000180605  -0.0000025188  -0.0000077201  -0.0001216195
       -0.0000674509   0.0000471779   0.0001016104   0.0007591428  -0.0007255480
        0.0016186238  -0.0024469481   0.0002304119   0.0011632529   0.0007860444
       -0.0000286893   0.0003671698   0.0001230794   0.0001989685   0.0002599773
        0.0000290512  -0.0002922760   0.0003609925  -0.0002846414   0.0004480605
        0.0005026035   0.0009615086  -0.0012696739   0.0001343955   0.0004446807
       -0.0003234950  -0.0001086991   0.0000753400  -0.0002356733   0.0000102473
       -0.0000130105  -0.0001261719  -0.0003872914  -0.0001651894  -0.0008234090
        0.0003970681   0.0006412360  -0.0002167771  -0.0005932039   0.0010885328
        0.0003164601   0.0000183999  -0.0000433289  -0.0000168989   0.0000163908
       -0.0000060964   0.0000272663   0.0000142778   0.0000242971   0.0000259591
        0.0000263818   0.0000269696   0.0000146993   0.0000915723   0.0000583237
       -0.0000021650   0.0000023363  -0.0000783302   0.0000101673   0.0000141507
       -0.0000618182  -0.0000148433  -0.0000298216  -0.0000131363   0.0000049422
       -0.0000213511  -0.0000044239   0.0000208467  -0.0000200549  -0.0000120461
        0.0000076422   0.0000078509  -0.0000012253  -0.0000005028   0.0000476839
        0.0000134121  -0.0000055539   0.0000053719   0.0000090643   0.0000139647
        0.0000083118  -0.0000100031   0.0000191420   0.0000378298  -0.0000085274
        0.0000207347   0.0000213509   0.0000263639   0.0002728608  -0.0001022664
        0.0002545260   0.0001732724  -0.0010355142   0.0015145913
       -0.0784038011   0.0087353602   0.1083703391   0.3856859808  -0.0073812885
       -0.0840991206  -0.0607223341   0.0361638934  -0.0220889885  -0.0041387827
        0.0097491100   0.0002659331   0.0055724252   0.0025915243   0.0003387533
       -0.0002307404   0.0005375876  -0.0001042397   0.0060553963  -0.0000664177
       -0.0020303913  -0.0029173225   0.0018549622  -0.0069341563  -0.0495965825
       -0.0350863281  -0.0132577308  -0.0104574523  -0.0178011810  -0.0057593121
       -0.0019652017  -0.0039948669   0.0033474047  -0.0013323709  -0.0002233960
        0.0008781496   0.0024153609   0.0008200920   0.0035241681   0.0046393394
        0.0056061865  -0.0019936069  -0.1525933783  -0.0052706821   0.0145160299
       -0.0106509819  -0.0034597452   0.0133200132   0.0036713635   0.0001798458
        0.0017190292   0.0011234792   0.0003143427  -0.0012917553  -0.0052747282
        0.0001856479   0.0007209895   0.0010291770   0.0003204672   0.0000695889
       -0.0004230366   0.0003591211   0.0000481781  -0.0000276246  -0.0000089609
        0.0000572144  -0.0000206319  -0.0000238272  -0.0000196491   0.0000513387
       -0.0001963768  -0.0001268103   0.0001238835  -0.0003017164  -0.0004056211
        0.0010683508  -0.0003519542  -0.0000861430   0.0002266641   0.0003997331
       -0.0000974771   0.0001001511   0.0001888393  -0.0000809905   0.0000111270
        0.0001154409  -0.0000049434   0.0000226325  -0.0000430784  -0.0000738134
       -0.0004392707  -0.0004178654   0.0001542880   0.0010584481  -0.0000971028
       -0.0003046638   0.0002109477   0.0002544177   0.0005631723  -0.0000578734
        0.0000782529   0.0002120884  -0.0000101005  -0.0000310958   0.0000513208
       -0.0001207845  -0.0000573409  -0.0000175935  -0.0001724640  -0.0005111530
       -0.0003049791  -0.0004650045   0.0018851229  -0.0024460125  -0.0270817097
        0.0050860305  -0.0089748440  -0.0017471930  -0.0004589727   0.0008038271
        0.0000341390  -0.0000579224  -0.0001480248  -0.0012336715  -0.0006785859
        0.0005080961   0.0001264472   0.0000976083   0.0002563804  -0.0014006906
       -0.0006371993   0.0012859315  -0.0019273403   0.0005700227   0.0009575387
       -0.0004941656  -0.0008285991  -0.0003005886  -0.0004615570   0.0005903675
       -0.0002531018   0.0000954990   0.0006211415   0.0007496846  -0.0013445678
        0.0012054024   0.0009039112   0.0011423543   0.0001924900  -0.0015882365
       -0.0000123584   0.0000899786  -0.0006065135   0.0000440459  -0.0000589457
       -0.0000107749   0.0001542772  -0.0000246908   0.0001061141   0.0001034724
        0.0000516569   0.0001242062  -0.0000073219   0.0001050261   0.0001218259
        0.0000733194  -0.0002139078  -0.0000679991   0.0001054674   0.0002372734
       -0.0000759172  -0.0000429060  -0.0001774336   0.0000489792   0.0000868516
       -0.0001486174  -0.0000293154   0.0001477554  -0.0001119077  -0.0000754842
        0.0000698974   0.0000265449  -0.0000188883  -0.0000000153   0.0000316489
        0.0001072886  -0.0000106708   0.0000007573  -0.0001800062   0.0000694877
        0.0000809588  -0.0001178043   0.0000785365   0.0001576761  -0.0000429426
       -0.0000323095  -0.0000324081   0.0000435588  -0.0004261314  -0.0001177498
        0.0004547627   0.0008454595  -0.0006132141  -0.0006103263
        0.0077698712  -0.0580606830  -0.0383291726  -0.0073812885   0.3661215097
        0.0298413074   0.0395566468  -0.1021380271   0.0419705667   0.0108544181
       -0.0256611494   0.0058921443   0.0021785383  -0.0034918742  -0.0030100954
        0.0003271149  -0.0017478270  -0.0007697604  -0.0001865461   0.0039884875
       -0.0012539819  -0.0002709191   0.0026728421   0.0093076499  -0.0348955035
       -0.1251957613  -0.0328439953  -0.0157698693  -0.0159329967   0.0011554041
       -0.0042409681   0.0025943815  -0.0000294056  -0.0007989348  -0.0010453045
       -0.0002167618   0.0007937994   0.0039514098  -0.0036274271   0.0024465669
       -0.0108057192  -0.0116262885  -0.0039072843  -0.0381590732  -0.0007586954
       -0.0053139608  -0.0007932592   0.0001889506  -0.0001791290   0.0051673953
        0.0031709016   0.0000251472  -0.0015473179   0.0002463603  -0.0001427798
        0.0001552695  -0.0000383682  -0.0000006862  -0.0001080564  -0.0000390644
        0.0000364028  -0.0000189512   0.0000249693   0.0000020668   0.0000003043
       -0.0000010880  -0.0000087131   0.0000021482  -0.0000019998   0.0000065682
        0.0000215284   0.0000142220  -0.0002037292   0.0000921531  -0.0001228158
        0.0001363940  -0.0001421788  -0.0000460031   0.0002543011  -0.0000622531
       -0.0001840012   0.0000244257   0.0000824863  -0.0000367425   0.0000256325
       -0.0000065812  -0.0000144626   0.0000054560  -0.0000231276  -0.0000101560
       -0.0000901184  -0.0000518924   0.0000567196   0.0000335329  -0.0001296959
       -0.0000159231   0.0000386067   0.0001021007   0.0000040610   0.0000031366
       -0.0000065349   0.0000125192   0.0000132907  -0.0000057195   0.0000130673
        0.0000032289  -0.0000172522   0.0000009021  -0.0000003333  -0.0000400262
        0.0000695753   0.0022379511   0.0051253937   0.0026085765   0.0060850760
        0.0000444546  -0.0017036123  -0.0003015870  -0.0005240886  -0.0014215648
        0.0003232461  -0.0006077258   0.0004974569  -0.0004334023   0.0001305599
       -0.0002415835  -0.0001506270   0.0002715890  -0.0009003121  -0.0007947545
       -0.0001883414  -0.0021061880   0.0011102634  -0.0002743481   0.0012183783
        0.0002001773  -0.0000886411  -0.0002753065   0.0007360593  -0.0001518877
        0.0008124894  -0.0002931108   0.0001325785   0.0003802884   0.0003111492
        0.0003469211   0.0019402957  -0.0001287605  -0.0017664251  -0.0001685840
       -0.0003356512   0.0000742235   0.0001822233   0.0000471555  -0.0000425307
       -0.0000097090   0.0000283036  -0.0000142982  -0.0000015342   0.0000160193
       -0.0000036175   0.0000013828  -0.0000039871  -0.0000457614  -0.0000583017
        0.0000607576  -0.0000271190   0.0000589545  -0.0000267697   0.0001126278
        0.0000863996  -0.0000143302  -0.0001456691   0.0000336914  -0.0000022767
       -0.0000205367   0.0000117998  -0.0000185859  -0.0000270111   0.0000119905
       -0.0000693705  -0.0000347356   0.0000381053  -0.0000134403  -0.0000586749
       -0.0000218838  -0.0000083690   0.0000012097  -0.0000165871  -0.0000191021
       -0.0000140114   0.0000096566  -0.0000334244  -0.0000321592   0.0000012290
       -0.0000241318   0.0000017814  -0.0000291322   0.0004845433  -0.0001008358
        0.0000292188  -0.0001134028  -0.0018336751   0.0000390506
        0.1088171804  -0.0385409751  -0.5634116328  -0.0840991206   0.0298413074
        0.7589638067  -0.0251291891   0.0494630143  -0.0692157097   0.0019995051
        0.0041929429   0.0094442207   0.0001294592  -0.0034715150   0.0007401565
       -0.0004753539   0.0002872408  -0.0014629245  -0.0018530809  -0.0012095287
       -0.0034618733  -0.0089997912   0.0115352512  -0.0153209213  -0.0190420857
       -0.0387765595  -0.0564657438  -0.0053500182   0.0033649308   0.0057758395
        0.0039736369   0.0000498038   0.0022857557   0.0002818331  -0.0008537037
       -0.0010089226   0.0035869394  -0.0034075464   0.0000199826  -0.0021537186
       -0.0136974891  -0.0086814200   0.0224541057  -0.0030867548  -0.0420541190
        0.0160700691   0.0017907200  -0.0041550435   0.0025167456   0.0030151706
       -0.0018777931  -0.0002236466   0.0001177469  -0.0016003111   0.0008024194
       -0.0002107222   0.0004376354  -0.0001813450  -0.0000908504  -0.0001720474
        0.0001648704  -0.0000936812   0.0000472740  -0.0000556896   0.0000183334
       -0.0000340035  -0.0000294661  -0.0000056289  -0.0000712542   0.0000201410
        0.0000649536   0.0000440784  -0.0001031718   0.0001902841   0.0000588386
       -0.0001571178   0.0000609025  -0.0001770343  -0.0001171944  -0.0001193489
        0.0000084090   0.0000198272  -0.0000250167  -0.0000294115  -0.0000016544
       -0.0000342670  -0.0000122652  -0.0000350591   0.0000053787   0.0000254473
        0.0001211167   0.0000676653  -0.0000136958  -0.0001530100   0.0000151365
       -0.0000979095   0.0000126066   0.0000691974  -0.0001398714  -0.0000144673
        0.0000254349  -0.0000356472  -0.0000300722  -0.0000049382   0.0000233888
       -0.0000053755   0.0000027260  -0.0000202868  -0.0000175921   0.0001130817
        0.0000653964  -0.0035042907   0.0032488354  -0.0016138782  -0.0112015583
       -0.0026229278   0.0067303908   0.0005885617  -0.0028849078  -0.0019465652
        0.0003111668  -0.0011489878   0.0000711698   0.0002136212  -0.0002381092
       -0.0001755157  -0.0002364296   0.0005547545  -0.0004284630   0.0004842261
       -0.0007047876  -0.0009302526   0.0021333438   0.0012621437  -0.0019422754
        0.0007427333   0.0005877715   0.0000839714  -0.0002668063   0.0005526915
       -0.0006743070  -0.0001999017  -0.0005657476  -0.0002969467   0.0002342085
        0.0006493071  -0.0014287391  -0.0000505373  -0.0001140536  -0.0019508568
        0.0009025746   0.0000269729  -0.0004214680   0.0000181363  -0.0000194168
        0.0000035295  -0.0000238733  -0.0000246107  -0.0000253755  -0.0000238852
       -0.0000298804  -0.0000211742  -0.0000241237  -0.0001127203  -0.0000678222
        0.0000178129  -0.0000181700   0.0001129837   0.0000084815  -0.0000217269
        0.0000632884   0.0000152842   0.0000241938   0.0000173740   0.0000021513
        0.0000096870   0.0000015005  -0.0000115448   0.0000168561   0.0000038562
       -0.0000130599  -0.0000049199   0.0000101942  -0.0000004340  -0.0000486989
       -0.0000042214   0.0000043857  -0.0000108652  -0.0000324978  -0.0000139362
        0.0000047387  -0.0000067922  -0.0000189076  -0.0000280997   0.0000103020
       -0.0000207365  -0.0000207232  -0.0000282965  -0.0012169266   0.0001968675
       -0.0002789805  -0.0015929715   0.0008218365  -0.0032545206
        0.0073069781  -0.0034255714   0.0030761143  -0.0607223341   0.0395566468
       -0.0251291891   0.1755168609  -0.1227604153   0.0911654415  -0.0590827164
        0.0552073073   0.0206745867  -0.0018679913   0.0173891757   0.0013067262
       -0.0049536855  -0.0042873625   0.0015050909  -0.0035018188   0.0085959254
       -0.0170878421  -0.0617044813   0.0002307596  -0.0664175196   0.0050820969
       -0.0036313223   0.0019878637   0.0001108330  -0.0002876712  -0.0005485540
       -0.0002266472   0.0006703438  -0.0001209294   0.0002889024  -0.0000019358
       -0.0002334082  -0.0004597936  -0.0000660848  -0.0005337241  -0.0008742377
       -0.0009700605   0.0001893380  -0.0040334239   0.0109051813  -0.0072978596
       -0.0003546650   0.0007503200  -0.0011177233   0.0002805389  -0.0004545129
       -0.0003980084  -0.0002402537   0.0002037495  -0.0000017207   0.0009843593
       -0.0000026294  -0.0001873505  -0.0001813298  -0.0000695979   0.0000009759
        0.0000891004  -0.0000686780   0.0000006888   0.0000051681   0.0000028319
       -0.0000124755   0.0000039267   0.0000031871   0.0000025578  -0.0000034106
        0.0000370428   0.0000270633  -0.0000243212   0.0000652837   0.0000916428
       -0.0001863967   0.0000794533   0.0000255239  -0.0000535013  -0.0000834772
        0.0000318146  -0.0000211038  -0.0000405526   0.0000156493  -0.0000051743
       -0.0000146420   0.0000021589  -0.0000082248   0.0000106190   0.0000134149
        0.0000937435   0.0000646580  -0.0000366746  -0.0001866973   0.0000193244
        0.0000657810  -0.0000382776  -0.0000514530  -0.0001045275   0.0000097874
       -0.0000101124  -0.0000339933  -0.0000002217   0.0000033091  -0.0000062073
        0.0000187233   0.0000086759   0.0000003718   0.0000325674   0.0000951243
        0.0000504814  -0.0007703893  -0.0005270168  -0.0009880504  -0.0031037538
        0.0001363054   0.0023151159   0.0013645804  -0.0051604001  -0.0019947968
        0.0057485549   0.0044282359  -0.0027453400  -0.0004289856  -0.0004993400
        0.0003475764   0.0058279657   0.0042389072  -0.0031823798   0.0007245937
       -0.0003003661   0.0047336181   0.0002428969  -0.0000619037  -0.0000507294
       -0.0000436464  -0.0000855828   0.0000081430   0.0000615505  -0.0001249428
        0.0000569639  -0.0000553842  -0.0001529591  -0.0001788354   0.0001594895
       -0.0002334973   0.0000513946  -0.0005024039   0.0003556050   0.0004040150
        0.0000186710  -0.0000302349   0.0000979126  -0.0000115737   0.0000136347
        0.0000029349  -0.0000301201   0.0000058168  -0.0000203861  -0.0000197783
       -0.0000091134  -0.0000234859   0.0000009801  -0.0000180314  -0.0000222741
       -0.0000207915   0.0000428680   0.0000063515  -0.0000171323  -0.0000593447
       -0.0000014194   0.0000063191   0.0000382394  -0.0000111484  -0.0000166047
        0.0000277251   0.0000050069  -0.0000267834   0.0000215470   0.0000125209
       -0.0000095727  -0.0000029270   0.0000031813   0.0000000780  -0.0000031878
       -0.0000179123   0.0000018156  -0.0000003029   0.0000346688  -0.0000120832
       -0.0000149886   0.0000221924  -0.0000141804  -0.0000286521   0.0000080041
        0.0000064709   0.0000062252  -0.0000073142  -0.0003932729  -0.0000085785
       -0.0000636040   0.0002196112   0.0003334202   0.0002324974
        0.0001801663   0.0059911297  -0.0009459975   0.0361638934  -0.1021380271
        0.0494630143  -0.1227604153   0.5019938193   0.0848181868   0.0437110699
       -0.2546671582  -0.1247596395   0.0308576968  -0.0590945575   0.0313456359
       -0.0038930189  -0.0172479249  -0.0303986565  -0.0043479024   0.0310110860
        0.0183685593   0.0137845571  -0.0869305254  -0.0038256608   0.0054880609
       -0.0092389181   0.0036151821   0.0011349034  -0.0004599335  -0.0009567993
       -0.0006131498   0.0004379393  -0.0007768195   0.0003249353   0.0002966983
        0.0000682299  -0.0008867114   0.0001380014  -0.0008579302  -0.0013129460
       -0.0008373461   0.0011218649   0.0012125607   0.0027788956  -0.0002105025
       -0.0001100773  -0.0001947967   0.0004954578   0.0002481593  -0.0003388492
       -0.0000108929  -0.0002523861   0.0001456374  -0.0000642018   0.0003110138
       -0.0000758973  -0.0000656530  -0.0000576099  -0.0000010099   0.0000037686
        0.0000259680  -0.0000219130  -0.0000090057  -0.0000024973  -0.0000005974
       -0.0000068338   0.0000044506  -0.0000008888  -0.0000004453   0.0000005296
        0.0000119871   0.0000104926   0.0000078551   0.0000101946   0.0000315179
       -0.0000681605   0.0000342029   0.0000132483  -0.0000419697  -0.0000173674
        0.0000316842  -0.0000099587  -0.0000195279   0.0000114208  -0.0000057407
       -0.0000029121   0.0000044112  -0.0000038406   0.0000069141   0.0000066395
        0.0000380510   0.0000220602  -0.0000176465  -0.0000567803   0.0000311992
        0.0000125305  -0.0000125826  -0.0000266980  -0.0000212008   0.0000038488
       -0.0000021656  -0.0000098324  -0.0000024149  -0.0000022973   0.0000000362
        0.0000059991   0.0000034758   0.0000021977   0.0000105177   0.0000258367
        0.0000076615  -0.0001785004  -0.0002070473  -0.0001826273  -0.0006878143
       -0.0000992040   0.0002664180  -0.0005908299  -0.0026744071  -0.0052980291
        0.0042458384  -0.0027653261   0.0021803176  -0.0006644731   0.0002692331
       -0.0006478166   0.0042552325  -0.0021615578   0.0026000525  -0.0057537071
       -0.0035964069  -0.0252926223   0.0001964691  -0.0001779104   0.0003628825
       -0.0000979052  -0.0000646034   0.0000075389   0.0001302242  -0.0001801564
        0.0001569720  -0.0000251853  -0.0000988213  -0.0001412347   0.0003515330
       -0.0002257451   0.0001451531  -0.0001220501   0.0002377765  -0.0004594390
       -0.0000834985  -0.0000057139   0.0000146755  -0.0000046924   0.0000055377
        0.0000020343  -0.0000090483   0.0000012194  -0.0000056776  -0.0000058335
       -0.0000031773  -0.0000052293  -0.0000016985  -0.0000031366  -0.0000036060
       -0.0000128488   0.0000180608  -0.0000002358   0.0000043944  -0.0000322219
       -0.0000115773   0.0000057997   0.0000289112  -0.0000085994  -0.0000030587
        0.0000093988  -0.0000002908  -0.0000023262   0.0000092203   0.0000014993
        0.0000083620   0.0000053184  -0.0000060497   0.0000014847   0.0000061171
       -0.0000049961   0.0000022989  -0.0000018510   0.0000105815   0.0000005699
       -0.0000012748   0.0000029784   0.0000015396  -0.0000041629   0.0000038564
        0.0000031124   0.0000013743   0.0000001263  -0.0001164682   0.0000003457
       -0.0000332455   0.0000770055   0.0000904445  -0.0001478316
       -0.0069722538   0.0131405139  -0.0172664323  -0.0220889885   0.0419705667
       -0.0692157097   0.0911654415   0.0848181868   0.5909502571   0.0035011189
       -0.0756393594  -0.1438638632   0.0197373697  -0.0202760044   0.0529011179
        0.0013715123  -0.0311949053  -0.0439542818  -0.0360147346   0.0722423497
       -0.0369079817  -0.0494063332  -0.0554158019  -0.3067719707   0.0024785385
       -0.0037853428   0.0049024937  -0.0003014578  -0.0007623703  -0.0002569263
       -0.0003496145   0.0003128402  -0.0001207043   0.0001035695  -0.0000592532
       -0.0001296725  -0.0004671320   0.0002069609  -0.0003192145  -0.0004769359
        0.0007345760  -0.0006336833  -0.0011777012   0.0002322257   0.0026802771
       -0.0003694134  -0.0001849488   0.0000786671  -0.0002424709  -0.0001770840
       -0.0000412665   0.0000279896   0.0000333776   0.0000212532  -0.0000249985
        0.0000045235  -0.0000475454   0.0000003271   0.0000015916   0.0000126452
       -0.0000048873  -0.0000007243  -0.0000010891   0.0000032965  -0.0000018905
        0.0000019527   0.0000042931   0.0000002617   0.0000095771  -0.0000018796
       -0.0000026984  -0.0000003420   0.0000010813  -0.0000018009   0.0000076663
        0.0000015660  -0.0000006246   0.0000124415  -0.0000026911   0.0000023426
        0.0000004612  -0.0000000038  -0.0000044546   0.0000010759   0.0000021462
        0.0000032217  -0.0000013625   0.0000072573  -0.0000010087  -0.0000055591
        0.0000015775  -0.0000032210  -0.0000032349  -0.0000015379  -0.0000017034
        0.0000250673  -0.0000018701  -0.0000173290  -0.0000050949  -0.0000015953
       -0.0000006947  -0.0000055118   0.0000009969   0.0000032946  -0.0000066618
        0.0000043674   0.0000113135   0.0000024508   0.0000054275   0.0000070209
       -0.0000068128  -0.0000556690  -0.0001527966   0.0002256542   0.0005157128
        0.0002632194   0.0000008429   0.0049426372  -0.0246636409  -0.0162456552
       -0.0028304009   0.0022134849   0.0000365620   0.0003876525  -0.0006681724
       -0.0002313606  -0.0029382492   0.0022737106  -0.0003925873  -0.0021526066
       -0.0046234595  -0.0162349597  -0.0000390964  -0.0001485449   0.0000431052
       -0.0000393139  -0.0000620203  -0.0000041105   0.0000596899  -0.0000565644
        0.0000826457   0.0000087119  -0.0000039597   0.0000298499   0.0000914503
       -0.0001641605   0.0002393236   0.0012521947  -0.0003392822   0.0002257323
       -0.0000101818  -0.0000064638   0.0000342558  -0.0000040871   0.0000047651
        0.0000000342  -0.0000007584   0.0000030538  -0.0000007564   0.0000007486
        0.0000007264   0.0000004216   0.0000035091   0.0000064531   0.0000047917
       -0.0000006577  -0.0000035263  -0.0000102693  -0.0000095309   0.0000015283
       -0.0000075060  -0.0000014827   0.0000023286  -0.0000031374  -0.0000009661
        0.0000029293  -0.0000016703  -0.0000024380   0.0000018512  -0.0000005668
       -0.0000008353  -0.0000002087   0.0000005133  -0.0000018659   0.0000007252
        0.0000003276  -0.0000018960   0.0000033446   0.0000037708  -0.0000026138
        0.0000001056   0.0000047044  -0.0000017532  -0.0000007672   0.0000005575
       -0.0000008483   0.0000011328   0.0000010519   0.0000732422  -0.0000310410
       -0.0000162065   0.0002483246  -0.0000486981   0.0001721586
        0.0007338233  -0.0010583876  -0.0000958091  -0.0041387827   0.0108544181
        0.0019995051  -0.0590827164   0.0437110699   0.0035011189   0.2002795557