$hessian                                                                        
        0.0645191089  -0.0105036671  -0.1124554169  -0.0683009284   0.0102160866
        0.1030861624   0.0054452099   0.0014046258  -0.0075851950   0.0007485759
       -0.0008183732  -0.0000878780  -0.0007100897  -0.0006815831  -0.0002150664
        0.0000126256  -0.0003100731  -0.0001322778  -0.0009770062   0.0009241236
        0.0002202909   0.0007171255   0.0000993899   0.0010736337   0.0041804756
       -0.0009998404  -0.0058263289   0.0003314027   0.0012522913  -0.0000142027
        0.0005671805   0.0004712071  -0.0005791308   0.0002889284   0.0000584590
       -0.0001792387  -0.0003837007  -0.0004209446  -0.0002100593   0.0000229479
       -0.0010907622  -0.0000092373  -0.0044448883   0.0021717945   0.0222709382
       -0.0036029538  -0.0006675151  -0.0008515366  -0.0007822463   0.0003803434
        0.0003513596  -0.0004895321  -0.0003570716   0.0002997928   0.0004027372
        0.0006877920   0.0002094573  -0.0001300588  -0.0001381842   0.0000056283
        0.0000990478  -0.0000545759  -0.0000097105   0.0000553587   0.0000059898
        0.0000063244   0.0000241295   0.0000252340   0.0000307222  -0.0000414756
        0.0000482826   0.0000074219  -0.0000241257   0.0000314723   0.0000844670
        0.0001254202  -0.0010299659  -0.0001760925  -0.0002401159   0.0002142801
        0.0000515699   0.0001243242  -0.0000683401   0.0000278258  -0.0000510553
        0.0000233778   0.0000255132  -0.0000176645  -0.0001077726   0.0000990777
       -0.0001487025   0.0005281084  -0.0000451126  -0.0001086939  -0.0000084941
       -0.0001572973  -0.0000135212  -0.0000777360  -0.0000362413   0.0000196453
       -0.0000182118  -0.0001067594   0.0000042825   0.0000197300   0.0000406797
        0.0000311815   0.0000572003  -0.0000641293   0.0000194887   0.0000210177
        0.0001622906   0.0009425230  -0.0000796283   0.0008432182   0.0024219388
       -0.0000074907   0.0010761093  -0.0002272635   0.0000491481  -0.0004385653
        0.0000649547  -0.0000515748   0.0000542210   0.0001261633   0.0000624847
       -0.0001231973  -0.0001215551  -0.0000684057  -0.0000502136   0.0001709243
       -0.0000335662  -0.0003490013   0.0006537077  -0.0005111920  -0.0011926304
        0.0000877514   0.0001163209   0.0000167250   0.0000364468  -0.0001377761
       -0.0000983455  -0.0000018788  -0.0001010637  -0.0001728730   0.0001093848
       -0.0003020689  -0.0003278261  -0.0001823583  -0.0000448843   0.0001211018
       -0.0000968829   0.0003221638   0.0002446553   0.0000086640   0.0000073541
        0.0000143466  -0.0000606353   0.0000075904  -0.0000312008  -0.0000363874
       -0.0000236699  -0.0000553848   0.0000161094  -0.0000273943  -0.0000324003
       -0.0000203505   0.0000591334   0.0000033298   0.0000180189  -0.0001183707
       -0.0000071908  -0.0000226126   0.0000882980   0.0000056400  -0.0000448158
        0.0000433331  -0.0000195747  -0.0000566704   0.0000806183   0.0000368178
        0.0000231060  -0.0000222926  -0.0000225060  -0.0000014725  -0.0000073285
       -0.0000602197  -0.0000071051   0.0000090115   0.0000642402  -0.0000189524
       -0.0000383443   0.0000483360  -0.0000227085  -0.0000647153   0.0000101242
        0.0000001811   0.0000086350  -0.0000129876   0.0001072616  -0.0002637755
       -0.0000416521  -0.0011379245  -0.0002382446   0.0011846599
       -0.0105036671   0.0477292876   0.0570427465   0.0129193664  -0.0558635604
       -0.0511988445  -0.0038138184   0.0050922197   0.0132820550  -0.0011721818
        0.0013282547  -0.0002165004   0.0001744308   0.0012966100   0.0003853603
        0.0000231374   0.0001817642   0.0000409408   0.0008628250  -0.0001968401
        0.0004052875   0.0006438675  -0.0022159980   0.0005415299   0.0021464318
        0.0005103601  -0.0183431476   0.0016663332   0.0019997627  -0.0016888698
        0.0011565163   0.0000122742  -0.0002061808   0.0006757803   0.0004753547
       -0.0001983862  -0.0002196354  -0.0018876234   0.0001732577  -0.0026601463
       -0.0014699628   0.0003220239  -0.0030828188   0.0027337083  -0.0008995151
        0.0021613129   0.0018148413  -0.0002731497  -0.0017241225   0.0007719340
       -0.0015102927   0.0007502391  -0.0003321079   0.0001359671  -0.0002399513
        0.0007527732   0.0000844548   0.0000881875   0.0000120147  -0.0000530748
       -0.0000321612   0.0000160104   0.0000286515   0.0000071121  -0.0000207706
       -0.0000066266   0.0000033057   0.0000127318   0.0000155355   0.0000059825
       -0.0000318648  -0.0000318925   0.0000900200  -0.0000269122   0.0000554527
        0.0000594512  -0.0005882561  -0.0000316975  -0.0001805324   0.0001317006
        0.0000720622   0.0000553187  -0.0000381051   0.0000133714  -0.0000001620
       -0.0000045299   0.0000015671  -0.0000250273  -0.0000315507   0.0000446959
       -0.0001117355   0.0002593468  -0.0000191396   0.0000674320  -0.0001293638
        0.0002217751   0.0000071330  -0.0000296037  -0.0001240219  -0.0000272116
       -0.0000547256   0.0000236224   0.0000040798   0.0000181931  -0.0000739854
       -0.0000246100  -0.0000131677   0.0001066479   0.0000293286   0.0001502582
       -0.0000692545  -0.0007103464  -0.0004618588   0.0013673599   0.0008771295
        0.0002228190  -0.0001129118   0.0005311462   0.0000951469   0.0016452938
       -0.0000686437   0.0001447761  -0.0000507004  -0.0000330416  -0.0000641472
        0.0002071317   0.0001534608  -0.0001142016   0.0002465512  -0.0000268243
       -0.0000567829   0.0005580783   0.0000888285  -0.0008374166  -0.0008353244
       -0.0000196075   0.0000211307   0.0000577865  -0.0001537881  -0.0000453361
       -0.0001773631   0.0000134207  -0.0004100458  -0.0001705902  -0.0003153559
        0.0000993061  -0.0003040161   0.0000020093  -0.0001979340   0.0000086992
       -0.0000656831  -0.0004013488  -0.0000754084  -0.0000054561   0.0000119095
        0.0000044205  -0.0000123635   0.0000088120   0.0000009472  -0.0000075077
       -0.0000025080  -0.0000045994   0.0000030519   0.0000213414   0.0000339085
       -0.0000133458  -0.0000132360  -0.0000382847   0.0000209193  -0.0000574931
       -0.0000281406  -0.0000085067   0.0000570201  -0.0000022093  -0.0000065772
        0.0000140249  -0.0000160861  -0.0000080509   0.0000368525   0.0000060291
        0.0000240063   0.0000089778  -0.0000177585  -0.0000032296   0.0000101587
       -0.0000106413   0.0000023683   0.0000002777   0.0000101056   0.0000057208
        0.0000020576  -0.0000004438   0.0000101209   0.0000127484   0.0000008223
        0.0000147591  -0.0000028055   0.0000147112  -0.0000013014  -0.0001794281
       -0.0000506864  -0.0000671222  -0.0002872746  -0.0003191056
       -0.1124554169   0.0570427465   0.5996068975   0.0994941715  -0.0531136632
       -0.5545491678   0.0022803211  -0.0000383893  -0.0176174659  -0.0005337639
       -0.0028175990  -0.0018975946  -0.0005743033  -0.0004628177   0.0005371674
        0.0002242805  -0.0004625957   0.0002152848  -0.0012461296  -0.0002375952
       -0.0003680670   0.0000247983   0.0046031921  -0.0013754720   0.0044159561
       -0.0037543476  -0.0136656859   0.0029943858   0.0006023564  -0.0015158986
        0.0002326659  -0.0000299515   0.0002769254   0.0001245650   0.0005123677
        0.0003808510   0.0007791577  -0.0003855505  -0.0004432082  -0.0034117672
       -0.0033077777  -0.0011278435   0.0064415818   0.0000526012  -0.0121082512
        0.0039717814  -0.0014415332   0.0005053459  -0.0005404886   0.0000317483
       -0.0008886089   0.0005969152   0.0002029504   0.0004883064  -0.0005125557
       -0.0007783586  -0.0008124414   0.0000753748   0.0001681448   0.0001165110
       -0.0000700635   0.0000627021   0.0000318380  -0.0000420308  -0.0000144843
        0.0000080006  -0.0000224195  -0.0000414960  -0.0000027790   0.0000332768
       -0.0001162410  -0.0000261208   0.0001907685  -0.0001008621   0.0000999194
       -0.0001261694   0.0009815526   0.0002847106   0.0002555420  -0.0004127804
        0.0000061761  -0.0001006371   0.0000429113  -0.0000092461   0.0000195004
       -0.0000033295  -0.0000001237   0.0000412160   0.0000826010  -0.0001296565
        0.0002902010  -0.0004974479  -0.0000505177   0.0000994501   0.0000697458
        0.0002076438   0.0000154882  -0.0000359975   0.0000285828   0.0000120095
        0.0000071992   0.0000924611   0.0000114831  -0.0000127540  -0.0000048435
       -0.0000073929  -0.0000470461   0.0000263044  -0.0000041891   0.0000182535
       -0.0001758772  -0.0005062456   0.0002011954  -0.0000565925  -0.0014667077
        0.0021371905  -0.0015635327   0.0005756599   0.0011658550   0.0005977661
        0.0000546247   0.0002697967   0.0000948758   0.0002652216   0.0001628576
        0.0000041857  -0.0002705621   0.0002813844  -0.0001962952   0.0006875539
        0.0005013254   0.0007154956  -0.0013856366   0.0000351611   0.0005775021
       -0.0002517633  -0.0001235737   0.0000866218  -0.0001825686   0.0000424538
        0.0000366564  -0.0001559624  -0.0004001163  -0.0001157418  -0.0007276254
        0.0003628875   0.0007166461  -0.0000168783  -0.0002105416   0.0011294882
        0.0002560778  -0.0001262105   0.0000501309  -0.0000501726   0.0000259842
       -0.0000211350   0.0000265490   0.0000154784   0.0000214681   0.0000233923
        0.0000350785   0.0000384832  -0.0000093017   0.0001213654   0.0000865747
       -0.0000238230  -0.0000007920  -0.0001253860  -0.0000027642   0.0000921473
       -0.0000520894   0.0000344465  -0.0000593361  -0.0000348873   0.0000292189
       -0.0000073010   0.0000126993   0.0000173558  -0.0000580608  -0.0000209713
       -0.0000449414  -0.0000086988   0.0000345066  -0.0000028914   0.0000536025
        0.0000497233  -0.0000007161   0.0000001402   0.0000003425   0.0000055378
        0.0000196749  -0.0000110323   0.0000118349   0.0000461657  -0.0000070850
        0.0000210545   0.0000477874   0.0000264073  -0.0000369613  -0.0003569790
        0.0000593318   0.0001494305  -0.0006343771   0.0017217861
       -0.0683009284   0.0129193664   0.0994941715   0.3592391520  -0.0066276661
       -0.0901369155  -0.0462904397   0.0268038572  -0.0124642361  -0.0025806789
        0.0094105225   0.0003142000   0.0059311048   0.0016192308   0.0007284504
       -0.0002948478   0.0008348764  -0.0003891412   0.0050202005  -0.0020446615
       -0.0030192391  -0.0050242857   0.0049942259  -0.0087796208  -0.0462159455
       -0.0322279176  -0.0115667907  -0.0140091281  -0.0198338172  -0.0014736549
       -0.0009902317  -0.0016457523   0.0047310666  -0.0021837653  -0.0016429378
        0.0005349308   0.0049204943   0.0024534592   0.0022642402   0.0033575242
        0.0015058377  -0.0052313247  -0.1481828516  -0.0042950458   0.0190924554
       -0.0136034106   0.0037713489   0.0164028029   0.0018340815  -0.0042908098
       -0.0006779539   0.0031839477   0.0004250269  -0.0009122084  -0.0013617900
        0.0001881383  -0.0008712871   0.0006827266   0.0003584787  -0.0001137608
       -0.0004051207   0.0001300405   0.0002148429  -0.0001025717  -0.0001211996
       -0.0000922804  -0.0001407216   0.0000086801  -0.0000363539   0.0001669742
       -0.0001642738  -0.0000198874   0.0002856989  -0.0002367299  -0.0000764240
       -0.0007114130   0.0028084688   0.0007790173   0.0008871145  -0.0009528433
       -0.0002926632  -0.0003711949   0.0002005684  -0.0000947176   0.0000772893
        0.0000009652  -0.0000393618  -0.0000059900   0.0003169318  -0.0002442299
        0.0006055044  -0.0015221507  -0.0000083038   0.0004181856  -0.0007591036
        0.0018141837  -0.0001019718   0.0001848012  -0.0006823606  -0.0001722529
       -0.0001033291   0.0004462002  -0.0000104687  -0.0000457509  -0.0006413691
       -0.0001698131  -0.0002929790   0.0009426556   0.0001350026   0.0007989233
       -0.0008013959   0.0008159853  -0.0041772841  -0.0017286441  -0.0317549738
        0.0080403764  -0.0101938964  -0.0014921548  -0.0005007237   0.0006791725
       -0.0001798873  -0.0000486373  -0.0003342284  -0.0011716083  -0.0004697827
        0.0006214939   0.0001421660   0.0004669472   0.0000762702  -0.0011355564
       -0.0004257794   0.0013173583  -0.0016120525   0.0003471058   0.0007934428
       -0.0003723867  -0.0005224919  -0.0003977692  -0.0002742600   0.0006806308
       -0.0002156836   0.0000300549   0.0005934012   0.0007605378  -0.0005879303
        0.0014272103   0.0006982612   0.0012931166   0.0006636514  -0.0013131822
       -0.0005842252  -0.0003409256  -0.0002013469  -0.0000842609   0.0000361671
       -0.0000705474   0.0001754042   0.0000113750   0.0000737957   0.0000937425
        0.0000741353   0.0001551604  -0.0000461565   0.0001518798   0.0001490955
       -0.0000011886  -0.0000770204  -0.0000792992  -0.0001394273   0.0003166696
        0.0000528230   0.0000535558  -0.0003175837   0.0000125459   0.0001421276
       -0.0001614303   0.0000491017   0.0001755197  -0.0002158046  -0.0001265004
       -0.0001322402   0.0001227725   0.0001445953   0.0000369001  -0.0000452505
        0.0000962558   0.0000313996  -0.0000363939  -0.0002210645   0.0000605269
        0.0001191956  -0.0001581557   0.0000863114   0.0002041102  -0.0000181089
        0.0000287980  -0.0000359160   0.0000469984  -0.0004792740   0.0008489286
        0.0002337339   0.0013667952   0.0003436873   0.0000040480
        0.0102160866  -0.0558635604  -0.0531136632  -0.0066276661   0.3330316763
        0.0402632140   0.0364284600  -0.0957468230   0.0395796659   0.0090560674
       -0.0274149762   0.0069695878  -0.0005471583  -0.0036762507  -0.0036581402
        0.0003638519  -0.0012868508   0.0002462494  -0.0009691784   0.0032163025
       -0.0007179502   0.0022227966   0.0015455488   0.0091724390  -0.0401085607
       -0.1052468321  -0.0294570945  -0.0180094200  -0.0184000423   0.0054635846
       -0.0028516788   0.0037005452   0.0018762998  -0.0024930227  -0.0024707939
       -0.0000998532   0.0034331373   0.0060413068  -0.0038005935   0.0008302138
       -0.0142032977  -0.0148571896   0.0050080814  -0.0225059281   0.0017717924
       -0.0093721520  -0.0036105407  -0.0005126277   0.0096789438  -0.0022047249
        0.0099984646  -0.0057351601   0.0022869335   0.0000424316   0.0015496241
       -0.0071141309  -0.0009793136  -0.0006586875   0.0003389276   0.0004333841
       -0.0000327932  -0.0000211620  -0.0003679695  -0.0000619177   0.0001525940
        0.0000787985   0.0000150196  -0.0000889331  -0.0000731864  -0.0000065732
        0.0000477853   0.0000914590   0.0000035846  -0.0000465218  -0.0001960442
       -0.0003263026   0.0044753502   0.0002647856   0.0010160541  -0.0006935603
       -0.0003008766  -0.0004155535   0.0001707886  -0.0000610129   0.0000393737
       -0.0000217201  -0.0000082787   0.0001754235   0.0003559727  -0.0003578609
        0.0007237250  -0.0019012914   0.0001790580  -0.0003990675   0.0012092064
       -0.0015029864  -0.0000104340   0.0001403843   0.0010182924   0.0001899977
        0.0003387507  -0.0001381682  -0.0000293546  -0.0000817992   0.0005351167
        0.0001561955   0.0001064947  -0.0008004712  -0.0002765196  -0.0011192818
        0.0002347825   0.0044620850   0.0044294642  -0.0091583676   0.0014647913
       -0.0005611494   0.0016328469  -0.0000854067  -0.0002104113  -0.0016639470
        0.0003346967  -0.0007514262   0.0005920576   0.0000338460   0.0002183066
       -0.0003424242  -0.0002609221  -0.0000360970  -0.0006630383  -0.0006411681
        0.0000302832  -0.0022983579   0.0007817232   0.0000845414   0.0005757005
        0.0001416972   0.0001098713  -0.0003529561   0.0007311117   0.0000130440
        0.0006240698  -0.0002589341   0.0002322556   0.0004379188   0.0006044213
        0.0002078378   0.0016097626   0.0001756150   0.0003645592   0.0001642659
        0.0001917387   0.0017467733   0.0004314398  -0.0000735674  -0.0000033271
       -0.0000221547   0.0000313376  -0.0000246957   0.0000176775   0.0000295318
        0.0000341557   0.0000407802  -0.0000109503   0.0000280554  -0.0000146942
        0.0000138450   0.0000492182   0.0000763085  -0.0001151414   0.0003135694
        0.0001186451   0.0000538869  -0.0002706537  -0.0000275107   0.0000622320
       -0.0000793162   0.0000995194   0.0001043652  -0.0002584549  -0.0000743659
       -0.0000753371   0.0000063950   0.0000675471   0.0000170284   0.0000358772
        0.0001405803   0.0000004149   0.0000110256  -0.0000461593  -0.0000151931
        0.0000242273  -0.0000147952  -0.0000068823   0.0000192377  -0.0000181185
       -0.0000394966   0.0000503627  -0.0000029165   0.0000011592   0.0010059595
        0.0003348662   0.0001720365  -0.0002590349   0.0005196950
        0.1030861624  -0.0511988445  -0.5545491678  -0.0901369155   0.0402632140
        0.7370391504  -0.0191789647   0.0455054068  -0.0639912086   0.0026635359
        0.0053664271   0.0077421166  -0.0001938753  -0.0032530933   0.0015451979
       -0.0006014753   0.0001689696  -0.0015282953  -0.0025419408  -0.0013303508
       -0.0028387934  -0.0091315102   0.0117810938  -0.0145603426  -0.0207065796
       -0.0343432696  -0.0522350624  -0.0041768702   0.0034139254   0.0067592299
        0.0042513238   0.0008032895   0.0017072174   0.0002095190  -0.0008422279
       -0.0011650163   0.0032669852  -0.0031338758  -0.0006879428  -0.0040041202
       -0.0142545943  -0.0083295416   0.0303973229  -0.0006588331  -0.0405675753
        0.0136106961   0.0044072334  -0.0040543463   0.0040478307   0.0010021297
        0.0002146157  -0.0030682051  -0.0004261192   0.0010853862   0.0011755999
       -0.0008105430   0.0009653430  -0.0002220413  -0.0000469445  -0.0000281610
        0.0000840049  -0.0000744172  -0.0001466132   0.0000087722   0.0000615168
        0.0000250016   0.0000520731  -0.0000025343  -0.0000265516  -0.0000564467
        0.0001369814   0.0000325216  -0.0001718884   0.0001265004  -0.0001575857
       -0.0000672193  -0.0000985103  -0.0002667810  -0.0001160826   0.0003054518
        0.0000009008   0.0000079160  -0.0000362201   0.0000231798  -0.0000054617
       -0.0000170272  -0.0000110270   0.0000141374  -0.0000132681   0.0000734267
       -0.0001498941   0.0001508092   0.0000824136  -0.0002233787   0.0003574906
       -0.0007339613   0.0000113974   0.0000911198   0.0003283415   0.0000387836
        0.0000637869  -0.0001246212  -0.0000248240   0.0000216371   0.0002160403
        0.0000501705   0.0000960763  -0.0003235918  -0.0001084595  -0.0003809726
        0.0002641742  -0.0004300102   0.0019529259  -0.0049385557  -0.0091292099
       -0.0052900757   0.0062148016  -0.0000679705  -0.0027728540  -0.0017837040
        0.0000545578  -0.0009471256   0.0000269902   0.0002322131  -0.0001595969
       -0.0002124103  -0.0001502045   0.0006775335  -0.0004672050   0.0002772198
       -0.0008395674  -0.0007151262   0.0023443189   0.0014460988  -0.0018853101
        0.0006987585   0.0007110441   0.0000364369  -0.0002503021   0.0004252362
       -0.0005765695  -0.0002475002  -0.0005561318  -0.0003162522   0.0003223012
        0.0006426146  -0.0014317484  -0.0005251074   0.0001258499  -0.0020973700
       -0.0000997920  -0.0010064906  -0.0008920149   0.0000532118  -0.0000347101
        0.0000233786  -0.0000162817  -0.0000289466  -0.0000153920  -0.0000125959
       -0.0000304400  -0.0000299534   0.0000106432  -0.0001353760  -0.0000861797
        0.0000465028   0.0000000740   0.0001862546   0.0000022870  -0.0000394005
        0.0000541697  -0.0000159294   0.0000334021   0.0000261536  -0.0000193095
        0.0000010372   0.0000015481   0.0000031581   0.0000150879   0.0000076883
        0.0000560438   0.0000171957  -0.0000493176  -0.0000155870  -0.0000440779
        0.0000053798  -0.0000023477  -0.0000022255  -0.0000169562  -0.0000160533
       -0.0000048216   0.0000011800  -0.0000086862  -0.0000277420   0.0000033950
       -0.0000322302  -0.0000371684  -0.0000146892  -0.0003803290   0.0018522577
        0.0002863935  -0.0007718470   0.0008549791  -0.0031230862
        0.0054452099  -0.0038138184   0.0022803211  -0.0462904397   0.0364284600
       -0.0191789647   0.1704166149  -0.0618097535   0.1403922635  -0.0506923287
        0.0207447921  -0.0044572867   0.0056349496   0.0076917968   0.0091423086
       -0.0069076553  -0.0086572644  -0.0053382591  -0.0065845717   0.0192957014
       -0.0183631864  -0.0728415429  -0.0110323078  -0.0872259983   0.0045277463
       -0.0054686058   0.0015762014   0.0004005851   0.0002612230  -0.0008697343
       -0.0003482182   0.0003570268  -0.0004145189   0.0002976616   0.0001863228
       -0.0001282234  -0.0008343277  -0.0001924352  -0.0004386001  -0.0007192966
       -0.0005190213   0.0002822690  -0.0103550306   0.0085730996  -0.0077383800
        0.0004928711   0.0000704739  -0.0009971275  -0.0000782643   0.0006397935
       -0.0007325046  -0.0001157656  -0.0003348439  -0.0003107457   0.0000044167
        0.0005354722   0.0000558166  -0.0000208076  -0.0000558017  -0.0000333648
        0.0000802502  -0.0000240800   0.0000311777   0.0000050769   0.0000030714
        0.0000048482   0.0000085912   0.0000032721   0.0000027023  -0.0000141170
        0.0000075250  -0.0000071080  -0.0000447904   0.0000511908   0.0000442130
        0.0001442602  -0.0006865840  -0.0001044705  -0.0002038174   0.0001098772
        0.0000730304   0.0000890327  -0.0000318415   0.0000093222  -0.0000265936
        0.0000265391   0.0000088148  -0.0000125023  -0.0000923032   0.0000567697
       -0.0000875704   0.0003113837  -0.0000375487  -0.0000010564  -0.0000399435
       -0.0000433984   0.0000095873  -0.0000366766  -0.0000394284  -0.0000030544
       -0.0000179916  -0.0000248607   0.0000023683   0.0000108509   0.0000271315
       -0.0000010857   0.0000154214  -0.0000268015   0.0000156453   0.0000357104
        0.0000603939  -0.0008449699   0.0006650006   0.0003716826  -0.0019106729
        0.0006503550   0.0020640645   0.0003128878  -0.0081358776  -0.0039481405
        0.0062226876   0.0033521986  -0.0031103683  -0.0004392709  -0.0004543081
        0.0002636040   0.0060587385   0.0031643998  -0.0035253127  -0.0003478710
       -0.0011539748   0.0000840730   0.0002236033  -0.0000224884   0.0000110401
       -0.0000314451  -0.0001069072   0.0000560856   0.0000543053  -0.0001426097
        0.0000765612  -0.0000297055  -0.0001374160  -0.0001334252   0.0000654768
       -0.0003151984   0.0001519930  -0.0006416199   0.0001590687   0.0002630418
        0.0001085733  -0.0000417321   0.0000234520   0.0000188565  -0.0000061949
        0.0000109799  -0.0000202901  -0.0000002802  -0.0000110104  -0.0000107617
       -0.0000100287  -0.0000193865   0.0000051899  -0.0000201262  -0.0000179071
       -0.0000047853   0.0000127690   0.0000017528   0.0000398661  -0.0000580531
       -0.0000310906  -0.0000115705   0.0000592468   0.0000028404  -0.0000202807
        0.0000228504  -0.0000159248  -0.0000299991   0.0000481784   0.0000207621
        0.0000172184  -0.0000199543  -0.0000209038  -0.0000053029   0.0000039778
       -0.0000164977  -0.0000044196   0.0000021072   0.0000284835  -0.0000048908
       -0.0000151132   0.0000187797  -0.0000099859  -0.0000241990   0.0000044949
        0.0000001909   0.0000026525  -0.0000048603  -0.0001922168   0.0000506178
       -0.0000696730   0.0000404333  -0.0000746927  -0.0000662635
        0.0014046258   0.0050922197  -0.0000383893   0.0268038572  -0.0957468230
        0.0455054068  -0.0618097535   0.5221234008   0.0859172241   0.0039440944
       -0.2691072193  -0.1241695863   0.0270463849  -0.0645166171   0.0337343704
       -0.0084421631  -0.0176740834  -0.0305955457   0.0005947447   0.0320922024
        0.0173382086   0.0074159527  -0.0878575504  -0.0051412110   0.0048109154
       -0.0115964520   0.0045202342   0.0015024616  -0.0001579248  -0.0018236554
       -0.0010758028   0.0001948616  -0.0012063650   0.0006845487   0.0007363586
        0.0001327153  -0.0015116813  -0.0002686289  -0.0008658228  -0.0015471412
       -0.0000932791   0.0022149119   0.0020632821   0.0007020493   0.0010655602
        0.0020350260   0.0012450747  -0.0005434738  -0.0019279008   0.0001594168
       -0.0020841773   0.0004378082  -0.0003440130  -0.0003039949   0.0004023779
        0.0026170890   0.0005613035   0.0000552344  -0.0002468949  -0.0000582693
        0.0001421375  -0.0000535933   0.0000795118   0.0000566668  -0.0000150915
       -0.0000093158   0.0000115043   0.0000399272   0.0000220088  -0.0000061041
        0.0000359944  -0.0000059538  -0.0001535100   0.0001082325   0.0000690521
       -0.0000763247  -0.0015663030  -0.0001893266  -0.0003811932   0.0002257445
        0.0001035332   0.0001723720  -0.0000799833   0.0000311212  -0.0000493308
        0.0000085362   0.0000228818  -0.0000598319  -0.0001378202   0.0001563868
       -0.0002166749   0.0007800143  -0.0000841096   0.0000045526  -0.0002338202
        0.0001274026  -0.0000005951  -0.0000541709  -0.0002264647  -0.0000118081
       -0.0000524028  -0.0000589625   0.0000120441   0.0000092804  -0.0000443089
       -0.0000021785   0.0000014706   0.0000790171   0.0000640089   0.0002222191
        0.0001243009  -0.0007334248  -0.0017067346   0.0031931602   0.0018029587
       -0.0003955535  -0.0008218812  -0.0014788815  -0.0033953164  -0.0052236431
        0.0032284357  -0.0033133694   0.0021120027  -0.0006403140   0.0004277981
       -0.0007307368   0.0030953192  -0.0026019698   0.0026543072  -0.0084473535
       -0.0038745255  -0.0252669380   0.0004468827  -0.0002379878   0.0003898241
       -0.0001344309  -0.0001651588   0.0000096210   0.0001792014  -0.0002505605
        0.0001591340  -0.0000627235  -0.0001658028  -0.0001933646   0.0004606591
       -0.0000619047   0.0001248124   0.0002172396  -0.0001685715  -0.0003294019
       -0.0003002320  -0.0004394076  -0.0001683650   0.0000459119  -0.0000073694
        0.0000217813  -0.0000397591   0.0000018679  -0.0000274824  -0.0000203965
       -0.0000303332  -0.0000429611   0.0000118357  -0.0000541226  -0.0000553784
        0.0000063842   0.0000221011   0.0000152506   0.0000318106  -0.0001529674
       -0.0000166143  -0.0000290208   0.0001149605   0.0000090853  -0.0000460015
        0.0000439181  -0.0000308240  -0.0000672436   0.0001073450   0.0000451651
        0.0000270510  -0.0000149467  -0.0000346844  -0.0000117217  -0.0000364517
       -0.0000918278  -0.0000071774  -0.0000004619   0.0000552680  -0.0000121155
       -0.0000408126   0.0000369076  -0.0000196555  -0.0000688300   0.0000129694
       -0.0000053088  -0.0000264233  -0.0000333636   0.0000896179  -0.0002039730
        0.0000055666   0.0000198467   0.0001041426  -0.0001336073
       -0.0075851950   0.0132820550  -0.0176174659  -0.0124642361   0.0395796659
       -0.0639912086   0.1403922635   0.0859172241   0.5592995270  -0.0149595626
       -0.0757806491  -0.1339660634   0.0198402715  -0.0195317426   0.0483836914
       -0.0053911303  -0.0313336764  -0.0399933922  -0.0298645267   0.0732058485
       -0.0369327555  -0.0768937786  -0.0569782718  -0.2919294247   0.0005092871
       -0.0029529643   0.0040750448  -0.0004989585  -0.0009773754  -0.0000420586
       -0.0002037410   0.0002260601   0.0002687662  -0.0000203563  -0.0002172701
       -0.0002062691  -0.0003000256   0.0003004156  -0.0000212617  -0.0000232027
        0.0009263241  -0.0011971788  -0.0042963115   0.0029293322   0.0028614774
        0.0000613483  -0.0015004112  -0.0003124033  -0.0007348396   0.0002580791
        0.0001881613   0.0010408272   0.0002114758   0.0004135016  -0.0005404029
       -0.0011063371  -0.0002434918   0.0000393224   0.0000985597   0.0000295073
       -0.0001073501   0.0000465272  -0.0000299467  -0.0000258830  -0.0000006059
       -0.0000008477  -0.0000033583  -0.0000214015  -0.0000039894   0.0000174537
       -0.0000321942  -0.0000001195   0.0000707414  -0.0000702972  -0.0000533657
        0.0001228610   0.0006344340   0.0000718769   0.0001526316  -0.0000532238
       -0.0000367164  -0.0000759389   0.0000378538  -0.0000189893   0.0000309909
       -0.0000194440  -0.0000142868   0.0000268765   0.0000719510  -0.0000797125
        0.0000492424  -0.0003388646   0.0000609617   0.0000505784   0.0000745323
       -0.0000135727  -0.0000015333   0.0000260202   0.0001123266  -0.0000040435
        0.0000258127   0.0000322410  -0.0000068861  -0.0000060880  -0.0000063398
       -0.0000097721  -0.0000036155  -0.0000068310  -0.0000266679  -0.0001027333
       -0.0000816358  -0.0006251538   0.0002722054  -0.0005002963   0.0003878716
       -0.0010239280   0.0003824450   0.0004559953  -0.0249399098  -0.0148858712
       -0.0029150907   0.0022763794   0.0004625610   0.0003109950  -0.0007816151
       -0.0002545634  -0.0034127848   0.0023608342   0.0000237197  -0.0039343123
       -0.0047494697  -0.0150172626  -0.0002092658  -0.0001209417   0.0000131185
       -0.0000430636  -0.0000278407   0.0000053872   0.0000097864   0.0000050497
        0.0000555143   0.0000747912   0.0000506974   0.0001041308  -0.0000491543
       -0.0002714985   0.0002237057   0.0009684072  -0.0004130081   0.0000635540
        0.0002505896   0.0002317892   0.0001281773  -0.0000261915   0.0000060724
       -0.0000115665   0.0000226974   0.0000011372   0.0000170208   0.0000142530
        0.0000148793   0.0000267725  -0.0000062984   0.0000371796   0.0000358359
       -0.0000075452  -0.0000177896  -0.0000227901  -0.0000134142   0.0000679869
        0.0000007878   0.0000105466  -0.0000483673  -0.0000092396   0.0000210748
       -0.0000192645   0.0000109041   0.0000317493  -0.0000503008  -0.0000251182
       -0.0000120467   0.0000084759   0.0000151592   0.0000061796   0.0000239784
        0.0000419803   0.0000020741   0.0000031822  -0.0000295421   0.0000092417
        0.0000242643  -0.0000217294   0.0000120284   0.0000421116  -0.0000067990
        0.0000040378   0.0000128992   0.0000195494   0.0001410316   0.0001929049
       -0.0000283314   0.0001539751   0.0000069012   0.0001850301
        0.0007485759  -0.0011721818  -0.0005337639  -0.0025806789   0.0090560674
        0.0026635359  -0.0506923287   0.0039440944  -0.0149595626   0.1936860969