$hessian                                                                        
        0.5240460238  -0.0124407767   0.0203481564  -0.0726434488  -0.0127327568
        0.0306642542  -0.0102268900  -0.0034923168   0.0222883113   0.0019204827
        0.0068649037  -0.0208644454  -0.0037441290  -0.0071491207   0.0094842769
        0.0000886607  -0.0019767401  -0.0002824240  -0.0001561136  -0.0004381807
        0.0003992118   0.0000479300  -0.0000428662   0.0001762022  -0.0000917364
       -0.0000279235  -0.0000235452   0.0001344384   0.0000021119   0.0000324755
       -0.0000168419   0.0000095793  -0.0000227613   0.0000306960   0.0000016859
       -0.0000001172  -0.0000027072  -0.0000123695   0.0000009825  -0.0000022069
       -0.0000034716   0.0000048324  -0.0000022844   0.0000030385  -0.0000009760
       -0.0000029798  -0.0000018481  -0.0000017556  -0.0000069382  -0.0000028039
       -0.0000032807   0.0000024557  -0.0000044074  -0.0000010427  -0.0000114465
       -0.0000130259  -0.0000023994   0.0000150585   0.0000147489   0.0000017430
       -0.0000057270  -0.0000053734  -0.0000030413   0.0000007168  -0.0000022165
       -0.0000003732   0.0000017638  -0.0000036198   0.0000004028   0.0000032381
        0.0000010810   0.0000003706  -0.0000008136   0.0000007658   0.0000003033
       -0.0000001684  -0.0000002476  -0.0000009044  -0.0000006482  -0.0000004884
        0.0000008130  -0.0000024417   0.0000011180   0.0000001531  -0.0000027476
       -0.0000033329   0.0000006270   0.0000092894   0.0000001360   0.0000007324
       -0.0000206645  -0.0000467489  -0.0000022475  -0.0000009776  -0.0000000370
        0.0000006873  -0.0000002910  -0.0000007095  -0.0000011613  -0.0000008695
        0.0000001447  -0.0000000122  -0.0000003314   0.0000008215  -0.0000002045
        0.0000008576   0.0000009159   0.0000006039   0.0000000435   0.0000001187
       -0.0000004154   0.0000006369  -0.0000001083   0.0000002173   0.0000005151
       -0.0000006929   0.0000004826  -0.0000008654  -0.0000000771  -0.0000000523
       -0.0000004353  -0.0000013830   0.0000015357   0.0000354445   0.0000403696
        0.0000027564  -0.0000215558  -0.0000425007  -0.0000007636  -0.0000138393
        0.0000703183   0.0000028373   0.0000000432  -0.0000431946   0.0000639005
        0.0000239569   0.0000374933  -0.0000481770   0.0000107883  -0.0000148825
       -0.0000046849  -0.0000053019  -0.0000115960  -0.0000090347  -0.0000031299
       -0.0000184388   0.0000041382  -0.0000030372   0.0000072297  -0.0000162661
       -0.0000250529   0.0000014004   0.0000026981   0.0000038653  -0.0000013677
        0.0000062567  -0.0000082134  -0.0000006710   0.0000023740  -0.0000002923
        0.0000008599   0.0000023611   0.0000007058   0.0000025413   0.0000021659
       -0.0000017606   0.0000007562   0.0000015373  -0.0000048435  -0.0000103551
       -0.0000013571   0.0000070531   0.0000002586   0.0000061958   0.0000008285
        0.0000018210   0.0000017761  -0.0000005291  -0.0000015829  -0.0000012761
        0.0000003062  -0.0000014492   0.0000002448  -0.0000001477   0.0000004136
        0.0000005384   0.0000012650   0.0000034832   0.0000038040  -0.0000004648
       -0.0000028283  -0.0000013928   0.0000127416  -0.0000018676   0.0000015704
       -0.0000000891   0.0000018832  -0.0000090919   0.0000034315   0.0000006685
        0.0000073371  -0.0000062484   0.0000007500  -0.0000076558  -0.0000018141
       -0.0000032895   0.0000118244  -0.0000318847   0.0000150149  -0.0000472067
        0.0000246405  -0.0000067560   0.0000098746  -0.0000449577   0.0000720972
        0.0000021827  -0.0000231106  -0.0000139647  -0.0000032924   0.0001055083
        0.0000465970   0.0003696630  -0.0008603077  -0.0000093087  -0.0001426832
       -0.1906685369   0.0098959876  -0.1164459409  -0.0743360643  -0.0776575702
       -0.0128719405  -0.1692702579   0.0978252220   0.0688231067   0.0004294190
       -0.0008396659  -0.0001026371  -0.0032438442   0.0023038079   0.0027696244
        0.0004899462  -0.0005006883   0.0009137256   0.0005440601   0.0007857894
       -0.0006938680  -0.0031669985   0.0005829421  -0.0041450710   0.0006989048
        0.0000116382  -0.0009566290  -0.0000684321   0.0000453010  -0.0000359370
       -0.0001200840  -0.0001207889  -0.0000010614   0.0000211609  -0.0000044656
        0.0000252605  -0.0000151222   0.0000073876   0.0000017937  -0.0000032934
       -0.0000004849  -0.0000001270   0.0000010887   0.0000032462  -0.0000031814
        0.0000011493  -0.0000005078   0.0000005116  -0.0000041586  -0.0000006474
        0.0000008052   0.0000009556   0.0000028676  -0.0000053371   0.0000021815
        0.0000024243   0.0000031007   0.0000001741  -0.0000025554  -0.0000002741
        0.0000001254   0.0000053832   0.0000033015  -0.0000022314   0.0000003749
       -0.0000020224  -0.0000044621  -0.0000024996  -0.0000009480   0.0000010000
        0.0000013676   0.0000003119   0.0000007836  -0.0000003018  -0.0000005506
        0.0000001983   0.0000005500  -0.0000006202  -0.0000018546  -0.0000006151
        0.0000003732   0.0000009181   0.0000007451  -0.0000000234  -0.0000019639
       -0.0000006834   0.0000007442   0.0000001328   0.0000003464  -0.0000008341
       -0.0000019968  -0.0000004470  -0.0000000840   0.0000009352   0.0000009761
        0.0000003688   0.0000008048  -0.0000005078  -0.0000007027   0.0000005107
       -0.0000012648  -0.0000000324   0.0000006047  -0.0000002002   0.0000000736
        0.0000001386   0.0000007363  -0.0000005469   0.0000007442  -0.0000002628
        0.0000003460  -0.0000004950  -0.0000008448  -0.0000001316  -0.0000002516
        0.0000000414  -0.0000006114   0.0000009531  -0.0000006863  -0.0000000151
       -0.0000002835  -0.0000001600   0.0000008550  -0.0000003653   0.0000000969
       -0.0000002542   0.0000008147  -0.0000005189   0.0000002099  -0.0000005096
       -0.0000000389  -0.0000001783   0.0000005056  -0.0000007933   0.0000001661
       -0.0000000342   0.0000002521  -0.0000003226   0.0000007490   0.0000001395
       -0.0000000832   0.0000006053   0.0000008975   0.0000004153   0.0000007037
       -0.0000038977   0.0000003693   0.0000077776   0.0000110263   0.0000029843
        0.0000098674   0.0000041462   0.0000195004  -0.0000040051   0.0000003110
        0.0000080085   0.0000036157   0.0000025242   0.0000013788  -0.0000002409
        0.0000008345  -0.0000012129   0.0000016422   0.0000004295  -0.0000010359
        0.0000023428   0.0000010475  -0.0000008409   0.0000035941   0.0000020886
       -0.0000012808   0.0000000386  -0.0000043977  -0.0000075032   0.0000009839
       -0.0000006730   0.0000005821   0.0000016627  -0.0000022537   0.0000009627
        0.0000012483  -0.0000026872  -0.0000001370  -0.0000005628  -0.0000013849
       -0.0000012173   0.0000006707   0.0000035029   0.0000029697   0.0000029068
        0.0000000034   0.0000008439   0.0000033388  -0.0000008030   0.0000040240
       -0.0000014508  -0.0000010075   0.0000044332  -0.0000015820   0.0000016483
       -0.0000011451  -0.0000157697   0.0000028536  -0.0000135226   0.0000120782
        0.0000263709  -0.0000011448   0.0001507150  -0.0009984332   0.0002984853
       -0.0124407767   0.5118332463   0.0281925598  -0.0130361664  -0.0804334741
        0.0407738317   0.0056714627   0.0033411463  -0.0133015248   0.0005429822
       -0.0007889664   0.0043212172  -0.0098627728  -0.0154149888   0.0230225655
       -0.0019064489  -0.0041849360  -0.0009558854  -0.0005673597  -0.0009481851
        0.0009634112  -0.0000778080   0.0000283545   0.0003906695  -0.0000314785
       -0.0002285383  -0.0000232398   0.0002429730   0.0000049654   0.0000489586
       -0.0000488605   0.0000501468  -0.0000141059   0.0000655445   0.0000079202
        0.0000107529  -0.0000038501  -0.0000421597   0.0000013256   0.0000046175
       -0.0000022423   0.0000035901  -0.0000079748   0.0000022007   0.0000002927
       -0.0000053941  -0.0000024469  -0.0000017804  -0.0000087122  -0.0000010707
        0.0000001520  -0.0000304510   0.0000029628  -0.0000047680   0.0000129802
       -0.0000524904  -0.0000019469  -0.0000053930   0.0000615848  -0.0000014478
       -0.0000116416  -0.0000327092  -0.0000015475   0.0000154682   0.0000068579
       -0.0000008014   0.0000073961  -0.0000157127   0.0000006906   0.0000044756
        0.0000024183  -0.0000005384  -0.0000027443  -0.0000002495   0.0000011866
       -0.0000006785  -0.0000002839  -0.0000013665  -0.0000014424  -0.0000000116
        0.0000021323  -0.0000180049   0.0000007839   0.0000026022   0.0000052105
        0.0000085096   0.0000001900  -0.0000197670  -0.0000083747   0.0000044265
        0.0000111200  -0.0000510795  -0.0000092463  -0.0000216614   0.0000148782
        0.0000053569   0.0000048240  -0.0000051539  -0.0000010416  -0.0000007480
        0.0000014408  -0.0000022599  -0.0000026929   0.0000022709   0.0000001102
       -0.0000030132   0.0000004390   0.0000016867   0.0000009059  -0.0000022672
       -0.0000004125   0.0000019882  -0.0000027409   0.0000009456   0.0000024289
        0.0000000560  -0.0000003995   0.0000026914  -0.0000013342   0.0000025354
        0.0000023935  -0.0000017784   0.0000015001   0.0000098786   0.0000563297
        0.0000008973  -0.0000080580  -0.0000686788  -0.0000104413  -0.0001319893
        0.0000900855  -0.0000002335   0.0000844989   0.0000646187  -0.0000959238
       -0.0000546108  -0.0000776130   0.0001077259  -0.0000445178   0.0000128852
       -0.0000119693   0.0000045499   0.0000061831   0.0000237647   0.0000029752
        0.0000188764  -0.0000012886   0.0000048474  -0.0000160334   0.0000338509
        0.0000453136   0.0000078675  -0.0000139454   0.0000014339   0.0000046628
       -0.0000137639  -0.0000046693  -0.0000081471  -0.0000042369   0.0000015345
        0.0000028727   0.0000000383  -0.0000002714  -0.0000011824  -0.0000016573
        0.0000048969   0.0000020691  -0.0000006250   0.0000016504   0.0000022011
       -0.0000026070   0.0000026171   0.0000022631  -0.0000088003   0.0000032903
       -0.0000008081  -0.0000008878   0.0000006862  -0.0000005783  -0.0000019199
       -0.0000002740   0.0000026246  -0.0000004157   0.0000019467   0.0000002789
        0.0000005517   0.0000009755  -0.0000033790  -0.0000020471   0.0000015288
        0.0000045586   0.0000005602  -0.0000136849   0.0000038777   0.0000047198
        0.0000063140  -0.0000033110   0.0000144489   0.0000041991   0.0000018236
       -0.0000057179  -0.0000023564   0.0000004904  -0.0000064069  -0.0000115061
       -0.0000045188   0.0000036638   0.0000145668   0.0000005250   0.0000154228
        0.0001303482  -0.0000221928  -0.0000161690  -0.0002589713   0.0001861581
        0.0000226930   0.0000122114  -0.0000514403  -0.0000024144  -0.0000945221
        0.0002509072   0.0008771253  -0.0001078843  -0.0011931312  -0.0001283351
        0.0097897139  -0.0439423017   0.0067471687  -0.0776540478  -0.2470921631
       -0.0325843243   0.0980003891  -0.1192423390  -0.0545920740   0.0008008292
        0.0007562702  -0.0010975850   0.0028350895  -0.0014414106  -0.0023369331
       -0.0001710279   0.0002521284  -0.0004313126  -0.0003299765   0.0005319759
       -0.0010002825   0.0002168010   0.0003275651   0.0001184795  -0.0002616222
        0.0000398275   0.0003341762   0.0000492263   0.0000182225  -0.0000102596
       -0.0001302050  -0.0003898420   0.0000356138   0.0000447919  -0.0000274407
        0.0000156149  -0.0000121735   0.0000039614  -0.0000019937  -0.0000067920
       -0.0000018078  -0.0000007538   0.0000020661   0.0000022712  -0.0000034375
        0.0000021605   0.0000004131   0.0000017876  -0.0000081839  -0.0000006438
        0.0000006788   0.0000023077   0.0000012897  -0.0000038425   0.0000039284
       -0.0000018706  -0.0000002314   0.0000017483  -0.0000002491   0.0000017703
        0.0000032828  -0.0000010905   0.0000025533  -0.0000070626  -0.0000000724
       -0.0000028149  -0.0000086675  -0.0000064128  -0.0000026425   0.0000034560
        0.0000016700  -0.0000013047   0.0000013275  -0.0000007475  -0.0000009266
        0.0000007077   0.0000000642  -0.0000007507  -0.0000026963  -0.0000016707
        0.0000005843   0.0000020101  -0.0000011613  -0.0000010127  -0.0000032829
       -0.0000017785   0.0000009506   0.0000009926   0.0000000351  -0.0000004733
       -0.0000031960  -0.0000012124   0.0000000160   0.0000020931  -0.0000008556
        0.0000007423   0.0000013049  -0.0000006535  -0.0000012628   0.0000002977
       -0.0000040089  -0.0000002519   0.0000021613  -0.0000048300  -0.0000000279
       -0.0000008780   0.0000006605  -0.0000026614   0.0000008523  -0.0000018551
        0.0000009814  -0.0000013190   0.0000012362  -0.0000000071  -0.0000006327
        0.0000001011  -0.0000015729   0.0000021541  -0.0000019860   0.0000002770
       -0.0000007540   0.0000013565  -0.0000011306  -0.0000002530   0.0000007660
       -0.0000000179   0.0000009765  -0.0000013413  -0.0000005237  -0.0000006040
        0.0000007351  -0.0000002633   0.0000014022  -0.0000025284   0.0000000436
       -0.0000000702   0.0000007137  -0.0000017752   0.0000005490  -0.0000016042
       -0.0000025148  -0.0000014789   0.0000005764   0.0000004025   0.0000061459
       -0.0000122481   0.0000019368   0.0000040627   0.0000002393   0.0000098358
       -0.0000168210  -0.0000029717  -0.0000155385   0.0000154350  -0.0000004492
       -0.0000166736   0.0000039625  -0.0000025766  -0.0000044297  -0.0000008215
        0.0000002639   0.0000026097  -0.0000002145   0.0000014631   0.0000024423
       -0.0000004312  -0.0000012505   0.0000015977   0.0000031576   0.0000017352
        0.0000042891  -0.0000055402  -0.0000034420   0.0000083774  -0.0000007791
       -0.0000006468   0.0000006337  -0.0000015220   0.0000009163  -0.0000008616
       -0.0000015478   0.0000016673   0.0000005686  -0.0000002345   0.0000008254
        0.0000014642  -0.0000031785  -0.0000025093  -0.0000012542   0.0000044053
       -0.0000020148   0.0000015243   0.0000030899  -0.0000004664  -0.0000006647
        0.0000018496   0.0000004401  -0.0000043970   0.0000072234   0.0000050089
       -0.0000053169  -0.0000535760   0.0000165164   0.0000186945   0.0000192054
        0.0000547232   0.0000037253  -0.0012421363  -0.0022433187   0.0006085278
        0.0203481564   0.0281925598   0.4702895677   0.0299598857   0.0389809928
       -0.1595813602   0.0098660117   0.0021488923  -0.0182293905  -0.0004540321
        0.0085749636  -0.0261494701   0.0017555030   0.0041482440   0.0000453486
       -0.0001923818  -0.0006759615   0.0002386234   0.0000396133   0.0000221388
       -0.0001221850   0.0000323092   0.0000646450   0.0000003764  -0.0000757739
       -0.0001828785  -0.0000188017   0.0002238125   0.0000127434   0.0000389372
       -0.0000466940  -0.0000166868  -0.0000129941   0.0000490566   0.0000266339
        0.0000085317   0.0000001610  -0.0000228802   0.0000008446  -0.0000052175
       -0.0000010645  -0.0000025712  -0.0000012380  -0.0000013688   0.0000004178
       -0.0000078623  -0.0000047850   0.0000014769  -0.0000035509  -0.0000041084
       -0.0000054816  -0.0000042737  -0.0000053998  -0.0000002667  -0.0000001448
       -0.0000336601   0.0000007185   0.0000067512   0.0000441620  -0.0000033371
       -0.0000097057  -0.0000275561   0.0000022909   0.0000149996   0.0000071858
       -0.0000014411   0.0000073618  -0.0000095698  -0.0000011460   0.0000016387
        0.0000011850  -0.0000007750  -0.0000014809  -0.0000007999   0.0000001156
       -0.0000014137  -0.0000017119   0.0000004616  -0.0000019449  -0.0000006357
        0.0000002153  -0.0000096758   0.0000029588   0.0000014608   0.0000030057
        0.0000056310   0.0000003288  -0.0000142413  -0.0000037927   0.0000027345
       -0.0000024280  -0.0000437284  -0.0000058779  -0.0000066761   0.0000042661
       -0.0000001938   0.0000021741  -0.0000024416   0.0000019718   0.0000013612
       -0.0000008927  -0.0000010449  -0.0000030236   0.0000029269  -0.0000016852
       -0.0000014785   0.0000004374   0.0000003976   0.0000005447  -0.0000006185
       -0.0000004144   0.0000004615  -0.0000002783  -0.0000003930   0.0000006045
       -0.0000001262  -0.0000004828  -0.0000008044   0.0000012668   0.0000027842
        0.0000041381  -0.0000034055  -0.0000024243   0.0000092889   0.0000554358
        0.0000002958  -0.0000187329  -0.0000447554  -0.0000021661  -0.0000687366
        0.0000875963   0.0000052068   0.0000488778   0.0000156625  -0.0000013547
       -0.0000158494  -0.0000289706   0.0000243081  -0.0000099651   0.0000040727
       -0.0000057649  -0.0000138753   0.0000034293   0.0000026040   0.0000083800
        0.0000093330  -0.0000057633   0.0000103490   0.0000009561   0.0000008390
        0.0000082172   0.0000000085   0.0000038770   0.0000031861  -0.0000021656
       -0.0000026909  -0.0000033462  -0.0000031784  -0.0000004427   0.0000008881
        0.0000015131   0.0000000870  -0.0000022066   0.0000012626   0.0000009147
        0.0000017568   0.0000010551   0.0000003514   0.0000001495   0.0000009770
        0.0000002274   0.0000081256   0.0000000661  -0.0000036725   0.0000006398
       -0.0000047585  -0.0000025056   0.0000002931   0.0000012792   0.0000009129
       -0.0000002501  -0.0000016062  -0.0000012419  -0.0000007552   0.0000025536
       -0.0000001496   0.0000009779   0.0000000768   0.0000009993  -0.0000013326
        0.0000025970  -0.0000019234   0.0000043282   0.0000026219   0.0000029946
        0.0000047731  -0.0000000923   0.0000020770   0.0000038398   0.0000016490
        0.0000026692  -0.0000065671   0.0000018140  -0.0000055851  -0.0000019113
       -0.0000023411   0.0000096827  -0.0000151369   0.0000021707  -0.0000221522
        0.0000763444  -0.0000575204  -0.0000007557  -0.0001778973   0.0001512952
        0.0000112645  -0.0000055034  -0.0000336233  -0.0000020542  -0.0000546129
       -0.0001033736   0.0002284044  -0.0004571236  -0.0009668998  -0.0004269997
       -0.1161024963   0.0070010817  -0.1350106305  -0.0129607285  -0.0328293845
       -0.0474430990   0.0687529943  -0.0542266816  -0.0815910565  -0.0003458086
        0.0008664859   0.0001807556   0.0024353707  -0.0015752292  -0.0013514155
       -0.0008558903   0.0004838584   0.0006923640   0.0009931787   0.0005464652
        0.0002797420  -0.0033187700   0.0005334906  -0.0031822506   0.0009798328
       -0.0001800853   0.0006809500  -0.0000086116   0.0000476866   0.0000790426
       -0.0000336233  -0.0000421424   0.0000567070   0.0000069775   0.0000048589
        0.0000061543  -0.0000099842   0.0000044003  -0.0000000754  -0.0000007673
        0.0000003713  -0.0000001809   0.0000015082   0.0000010234  -0.0000000477
        0.0000021711   0.0000014012   0.0000005910  -0.0000014586   0.0000004639
        0.0000011846   0.0000013160  -0.0000000757  -0.0000000019   0.0000020380
       -0.0000018075   0.0000009179   0.0000025264  -0.0000003381   0.0000004303
        0.0000021178  -0.0000006490   0.0000010362  -0.0000017573   0.0000003468
       -0.0000005050  -0.0000036880   0.0000026261  -0.0000010464   0.0000008108
        0.0000004794  -0.0000000721   0.0000001645   0.0000011558   0.0000002275
        0.0000002192   0.0000004944  -0.0000006036  -0.0000009414  -0.0000003943
        0.0000001836   0.0000011432  -0.0000012427  -0.0000004820  -0.0000014054
        0.0000000602   0.0000008587   0.0000002197   0.0000004035  -0.0000006229
       -0.0000011207   0.0000000338  -0.0000002386   0.0000010150  -0.0000004780
        0.0000000533   0.0000004676   0.0000010667   0.0000004936   0.0000001810
       -0.0000000740  -0.0000001444  -0.0000002686  -0.0000004812  -0.0000003728
        0.0000002883  -0.0000005694  -0.0000028988  -0.0000000871  -0.0000002382
       -0.0000001003  -0.0000007120  -0.0000002900  -0.0000005916  -0.0000006747
       -0.0000001546  -0.0000005050   0.0000006428  -0.0000002467  -0.0000000828
       -0.0000007298  -0.0000001123  -0.0000003834   0.0000002145   0.0000010364
        0.0000002981   0.0000000328  -0.0000000665  -0.0000003759   0.0000000202
        0.0000007870  -0.0000003189   0.0000003459  -0.0000007980  -0.0000003517
       -0.0000003760   0.0000003215  -0.0000006302  -0.0000001508   0.0000002841
       -0.0000003081  -0.0000003902   0.0000008932   0.0000023294   0.0000010295
       -0.0000040626   0.0000007332   0.0000065185   0.0000010288   0.0000065436
       -0.0000000292   0.0000020298  -0.0000001874  -0.0000009008   0.0000010344
        0.0000012609  -0.0000005900  -0.0000015757   0.0000012367  -0.0000022079
        0.0000020865   0.0000018966  -0.0000021354   0.0000015459   0.0000016732
       -0.0000030604  -0.0000003617   0.0000008189   0.0000036420   0.0000002672
       -0.0000000668  -0.0000002346  -0.0000040130   0.0000005471  -0.0000000321
       -0.0000009938  -0.0000001328  -0.0000008825   0.0000009766  -0.0000000952
       -0.0000004296   0.0000012307   0.0000008688  -0.0000001601   0.0000015292
        0.0000015946  -0.0000007877  -0.0000006132   0.0000006826  -0.0000010873
       -0.0000003377   0.0000003595  -0.0000001856  -0.0000006589  -0.0000002494
        0.0000001383  -0.0000007834   0.0000008745   0.0000043855   0.0000003898
       -0.0000035901  -0.0000126233   0.0000099042  -0.0000010354  -0.0000008625
       -0.0000064061  -0.0000079347  -0.0003349826  -0.0009378772   0.0002909134
       -0.0726434488  -0.0130361664   0.0299598857   0.4633413328   0.0093122176
       -0.0087510975  -0.1191312137   0.0536616102   0.0338132672  -0.1369163838
       -0.0021387634  -0.0561160670  -0.0730650009  -0.0427651012  -0.0023153112
       -0.0055855595  -0.0108343426   0.0027026282   0.0051485158  -0.0021039025
        0.0022709509   0.0003138334  -0.0005720009   0.0000593347  -0.0015501349
        0.0008369069  -0.0001959401  -0.0001433801  -0.0002593383  -0.0000139714
        0.0000266196  -0.0000991747   0.0000009845  -0.0000614034  -0.0000551664
       -0.0000133628   0.0000049932   0.0000682808   0.0000017403   0.0000163302
       -0.0000033277   0.0000045998   0.0000027907   0.0000084519   0.0000002883
        0.0000025006  -0.0000041152  -0.0000034787  -0.0000035417  -0.0000043033
        0.0000046062   0.0000493263  -0.0000162781   0.0000040565  -0.0001549889
        0.0000571436  -0.0000221950   0.0000503973  -0.0000930361   0.0000083831
        0.0000024928   0.0000548264  -0.0000063073  -0.0000190878  -0.0000199244
        0.0000001912  -0.0000101263   0.0000187556   0.0000024778   0.0000017645
       -0.0000040121   0.0000008571   0.0000015094   0.0000002943   0.0000002961
        0.0000002701  -0.0000009312   0.0000006047   0.0000005513  -0.0000022050
       -0.0000010964   0.0000218814  -0.0000031105  -0.0000032758  -0.0000159847
       -0.0000207005   0.0000005501   0.0000652936   0.0000216495  -0.0000061014
       -0.0000524480   0.0000215387   0.0000084323   0.0000138960  -0.0000076979
       -0.0000002519  -0.0000077194   0.0000041879  -0.0000040073  -0.0000021157
       -0.0000009507   0.0000041550   0.0000044901  -0.0000043011   0.0000006527
        0.0000062804  -0.0000007109  -0.0000003538  -0.0000005626   0.0000025479
        0.0000004111  -0.0000002188   0.0000016849  -0.0000009490  -0.0000018257
       -0.0000015007   0.0000020081  -0.0000022556  -0.0000008529  -0.0000043954
       -0.0000069022   0.0000034720   0.0000047725   0.0000500095  -0.0000281141
        0.0000067507  -0.0000072587   0.0000346508   0.0000008609   0.0001161808
       -0.0000814449   0.0000024817  -0.0001018265  -0.0000641934   0.0000179545
        0.0000308212   0.0000708121  -0.0000634475   0.0000152288  -0.0000223748
        0.0000146526   0.0000239538  -0.0000027758  -0.0000100744  -0.0000125157
       -0.0000219912   0.0000039926  -0.0000136334  -0.0000015006  -0.0000167574
       -0.0000298062  -0.0000081593  -0.0000061140  -0.0000056264   0.0000050414
       -0.0000004456   0.0000141583   0.0000078682   0.0000035120  -0.0000039740
       -0.0000012165   0.0000016291  -0.0000005347   0.0000048931   0.0000042813
       -0.0000050592  -0.0000045062  -0.0000006350  -0.0000013934  -0.0000008830
        0.0000061748  -0.0000163860   0.0000045184   0.0000165093  -0.0000036727
        0.0000120416   0.0000063061   0.0000014576  -0.0000060120   0.0000016273
       -0.0000028638  -0.0000000189  -0.0000010124  -0.0000017559   0.0000019851
        0.0000019632   0.0000022991   0.0000006171   0.0000062984  -0.0000013378
       -0.0000083150  -0.0000024816  -0.0000089857  -0.0000089235  -0.0000031131
       -0.0000066012  -0.0000045047   0.0000017911  -0.0000054728  -0.0000053026
       -0.0000077062   0.0000092825  -0.0000044398  -0.0000023959   0.0000088310
       -0.0000078238  -0.0000104969   0.0000048887   0.0000035918   0.0000252489
       -0.0000945065   0.0001217380  -0.0000131628   0.0004008845   0.0000390686
        0.0000078754  -0.0000935964   0.0000961734  -0.0000013411   0.0062390150
       -0.0019410261   0.0007774621   0.0005414524  -0.0043553463  -0.0029856422
        0.0049268946   0.0087784123  -0.0204420634  -0.0042613211  -0.0066678865
        0.0099856057  -0.0087327381  -0.0064557597   0.0202847028   0.0054626319
       -0.0034382827  -0.0021983635  -0.0076769260   0.0046534886   0.0061685001
       -0.0215093150   0.0159344427   0.0069600038  -0.0135122638  -0.0036009994
       -0.0095961980   0.0045245885   0.0005269585   0.0017991954  -0.0219304756
        0.0028098526  -0.0117215632  -0.0019089912   0.0008962398  -0.0007521062
       -0.0000577384  -0.0003486849  -0.0000357673   0.0000447651   0.0000258452
        0.0000071469  -0.0000221160   0.0000146611  -0.0000048026   0.0000000847
       -0.0000002936   0.0000005126  -0.0000012904  -0.0000000804  -0.0000027251
       -0.0000028881   0.0000010175   0.0000024489   0.0000026431   0.0000001093
        0.0000020927  -0.0000032516  -0.0000014311  -0.0000037447  -0.0000061777
        0.0000125228   0.0000005772  -0.0000055021  -0.0000001741   0.0000036095
       -0.0000049679   0.0000109726  -0.0000044616   0.0000029677  -0.0000000339
       -0.0000003652  -0.0000006504   0.0000008897   0.0000009868  -0.0000044472
       -0.0000018753   0.0000016054  -0.0000001935  -0.0000006702   0.0000011284
       -0.0000008633  -0.0000002578  -0.0000009273   0.0000002804  -0.0000007210
       -0.0000001191  -0.0000006460   0.0000019662   0.0000006103   0.0000005135
       -0.0000014918  -0.0000001717  -0.0000013165  -0.0000009432  -0.0000018599
        0.0000002269  -0.0000014806   0.0000000024  -0.0000004920   0.0000000967
       -0.0000005748  -0.0000005649  -0.0000012892   0.0000016883  -0.0000002136
       -0.0000000709   0.0000005983  -0.0000009073   0.0000036132   0.0000011550
        0.0000022050  -0.0000006772   0.0000029126   0.0000001013   0.0000012203
       -0.0000013480   0.0000008749  -0.0000026716   0.0000004236   0.0000012175
       -0.0000004910   0.0000001775  -0.0000017257   0.0000008211  -0.0000003945
        0.0000007507  -0.0000023972   0.0000027312  -0.0000002665  -0.0000019903
       -0.0000007608  -0.0000008309   0.0000012420   0.0000008581  -0.0000002736
       -0.0000021739  -0.0000002384  -0.0000006479   0.0000017488   0.0000002699
        0.0000009784  -0.0000013028   0.0000009609   0.0000006504   0.0000002507
        0.0000022782   0.0000020956  -0.0000012106  -0.0000026364  -0.0000031777
        0.0000039335   0.0000016008  -0.0000078186   0.0000058310  -0.0000025490
        0.0000046050   0.0000019943   0.0000062671  -0.0000039256  -0.0000002302
        0.0000080926  -0.0000026974   0.0000034126   0.0000045732   0.0000028489
       -0.0000046204  -0.0000053346   0.0000047141  -0.0000031695  -0.0000037429
        0.0000030908   0.0000010958  -0.0000018642  -0.0000039447  -0.0000090105
       -0.0000093837   0.0000110976  -0.0000017097  -0.0000127336  -0.0000011583
        0.0000005947  -0.0000027144   0.0000024694  -0.0000021821   0.0000008948
        0.0000024910  -0.0000052051  -0.0000014781  -0.0000009202  -0.0000031890
       -0.0000044780   0.0000019015   0.0000044618   0.0000015627  -0.0000012729
        0.0000040537  -0.0000006998   0.0000000324   0.0000035097   0.0000033494
       -0.0000012556   0.0000023932   0.0000034810  -0.0000068277   0.0000050350
        0.0000063573   0.0000111945  -0.0000869595  -0.0000003170  -0.0001418692
        0.0001103944   0.0000834974  -0.0019364681   0.0009827550   0.0002835098
       -0.0127327568  -0.0804334741   0.0389809928   0.0093122176   0.4770947265
       -0.0132153018   0.0465236306  -0.1035680174  -0.0248809480   0.0041897980
       -0.0602958253   0.0046885805  -0.0421352552  -0.1624720854  -0.0091209611
       -0.0090457081  -0.0200553749   0.0077808220  -0.0020466177   0.0020702651
        0.0019658475  -0.0005413737  -0.0010347382  -0.0004803159   0.0008208741
        0.0002159338   0.0002129413  -0.0003908822   0.0000600877  -0.0000579007
        0.0000882904   0.0000515920   0.0000099933  -0.0000948636  -0.0000860004
       -0.0000246172   0.0000068883   0.0000616247   0.0000022131   0.0000266527
       -0.0000020426   0.0000102466  -0.0000028561   0.0000067906  -0.0000024797
        0.0000199929   0.0000128553  -0.0000087741   0.0000028732   0.0000124536
        0.0000131534   0.0000118665   0.0000346622  -0.0000021552   0.0000208961
        0.0000813881  -0.0000036195  -0.0000283454  -0.0001084052  -0.0000070093
        0.0000286138   0.0000632661  -0.0000011615  -0.0000285755  -0.0000100172
        0.0000023324  -0.0000181195   0.0000203955   0.0000050790  -0.0000065792
       -0.0000080609   0.0000019363   0.0000037677  -0.0000023998   0.0000009591
        0.0000029225   0.0000049754   0.0000007887   0.0000037340   0.0000006711
       -0.0000028224   0.0000207079  -0.0000116551  -0.0000024140  -0.0000013849
       -0.0000085028  -0.0000013850   0.0000074048   0.0000087207  -0.0000074461
        0.0000394495   0.0001301787   0.0000162733   0.0000093696  -0.0000099197
       -0.0000014406  -0.0000087327   0.0000098391  -0.0000083914  -0.0000014221
        0.0000008216   0.0000107529   0.0000077505  -0.0000096176   0.0000017823