$hessian                                                                        
        0.4708899756   0.0116408382  -0.0122512665  -0.2101601668   0.0170275673
       -0.0499100023  -0.0221277637  -0.0026112223   0.0010619606  -0.0030421913
       -0.0006559581   0.0003391347  -0.0010027887   0.0003554592  -0.0005467815
       -0.0004030145  -0.0008687061  -0.0011419817  -0.0006641829   0.0000078165
        0.0000893748   0.0000023517   0.0000471666  -0.0001693804   0.0000581428
       -0.0000189128  -0.0000175928   0.0000247438  -0.0000503552   0.0000091550
        0.0000596449   0.0000188283   0.0000012674   0.0000148281   0.0000643254
        0.0000160456   0.0000578741  -0.0000399862  -0.0000252451   0.0000445748
        0.0000324249  -0.0000048647  -0.0000330584  -0.0000478869   0.0000631329
        0.0000268775  -0.0000273996  -0.0000726346  -0.0000024615  -0.0000280504
       -0.0000173334  -0.0000259763  -0.0000059381   0.0000566603  -0.0000036264
       -0.0000183768   0.0000270887  -0.0108229468   0.0036394155  -0.0076261654
        0.0000296746  -0.0004762253   0.0018238456   0.0002699575   0.0001599605
       -0.0001369459  -0.0000774397  -0.0000972905   0.0000475454  -0.0000756689
       -0.0001493872  -0.0000547493   0.0000403402  -0.0000000684  -0.0000778894
        0.0000173561   0.0001079307   0.0000689912   0.0000510194  -0.0000859945
        0.0001192127  -0.0001613057   0.0001084072   0.0000243542  -0.0000210956
       -0.0000072247   0.0003138047   0.0000938152  -0.0000883300   0.0000042347
       -0.0000051729  -0.0002756303  -0.0000939692   0.0000180250   0.0001771670
        0.0000851256   0.0002418022  -0.0000944130  -0.0000728285  -0.0705997724
        0.0722089686   0.0285985208  -0.1116655537  -0.0987545131   0.0479908792
       -0.0406332016  -0.0019880732  -0.0079391213  -0.0001129676   0.0000597471
        0.0000565179  -0.0001820808  -0.0000954536  -0.0000824765   0.0000109210
        0.0000332026  -0.0002501226   0.0000005876   0.0000075186   0.0000078741
       -0.0000350505   0.0000269390   0.0000131400  -0.0000499372   0.0000047198
        0.0000133000  -0.0000264584  -0.0000103242   0.0000065120  -0.0000380821
        0.0000671199   0.0000173610   0.0000453055  -0.0000465902  -0.0000922996
       -0.0000048352   0.0000371578   0.0000149617   0.0000041302   0.0000582829
       -0.0000008391   0.0000114229   0.0000440899  -0.0000192442  -0.0000138712
        0.0000093424  -0.0000064147  -0.0001187348   0.0004093695  -0.0001909579
        0.0000170469   0.0000385636   0.0000242345   0.0000082227   0.0000234999
        0.0000018228  -0.0000048057   0.0000292175  -0.0000030627   0.0000208221
       -0.0000147647  -0.0000118411  -0.0000095974   0.0000435071  -0.0000279610
        0.0000338795   0.0000160147   0.0000017810   0.0000235636   0.0000190296
       -0.0000065871   0.0000537375   0.0000090209  -0.0000252849  -0.0000468342
        0.0000244566  -0.0000219959
        0.0116408382   0.4902380441  -0.0128102468   0.0116056063  -0.0543726366
        0.0072046035  -0.0105716133   0.0001159278  -0.0026058759  -0.0005708554
       -0.0006887968   0.0030952947  -0.0005999090   0.0011149535  -0.0002392037
        0.0009513013   0.0044885734   0.0040260328   0.0002956372   0.0003244737
       -0.0000391249  -0.0000288800  -0.0001480131   0.0000982305   0.0000939994
        0.0000137589   0.0000169759  -0.0000285136  -0.0000042556  -0.0000121374
        0.0000008824   0.0000001019  -0.0000031834  -0.0000061637  -0.0000118760
       -0.0000029801   0.0000699294  -0.0000074314  -0.0000148906  -0.0000180876
        0.0000303403  -0.0000514852   0.0000083174   0.0000138096   0.0000167007
       -0.0000107832  -0.0000122013   0.0000181593   0.0000067702   0.0000323291
        0.0000040997   0.0000164220   0.0000145536  -0.0000285750   0.0000221642
        0.0000132289  -0.0000219445   0.0106272178  -0.0030224677   0.0027939798
        0.0008188488  -0.0007309902  -0.0004446332  -0.0004994468  -0.0003173125
        0.0003635873   0.0002964233   0.0001614776  -0.0003194879   0.0000873697
        0.0000726323   0.0001204695   0.0000019951   0.0000119101  -0.0000067567
        0.0000009879  -0.0000431019  -0.0000118314  -0.0000130725  -0.0000727633
       -0.0000116757   0.0003388206   0.0000900458  -0.0001792931  -0.0000788907
        0.0000694960  -0.0001156894   0.0000306006  -0.0000243397   0.0000161784
       -0.0000095109  -0.0000856613   0.0000094917  -0.0000481920   0.0000296381
        0.0000521960   0.0000206281   0.0000426108  -0.0003030096   0.0769972462
       -0.2162391408  -0.0656988930  -0.0996765639  -0.1782291419   0.0680232591
       -0.0017178324  -0.0423258232  -0.0032378730   0.0003408926   0.0001196799
        0.0000909196  -0.0004347923  -0.0000039667   0.0000128746   0.0001812587
       -0.0000569888  -0.0001553984  -0.0000139133   0.0000123026   0.0000007770
        0.0000153045  -0.0000011055   0.0000004499   0.0000103423   0.0000085152
        0.0000009851   0.0000118143   0.0000177364   0.0000038003  -0.0000206071
        0.0000025168   0.0000089489  -0.0000273600   0.0000033238   0.0000309944
        0.0000011460  -0.0000041870   0.0000028276   0.0000024824  -0.0000139959
        0.0000013339  -0.0000016608  -0.0000090665   0.0000124440   0.0000026916
        0.0000111141   0.0000025142  -0.0000054593  -0.0005636775   0.0002096061
        0.0000012177  -0.0000076667   0.0000216842  -0.0000410526  -0.0000616165
        0.0000192506  -0.0000256307  -0.0000513562   0.0000280260  -0.0000262632
       -0.0000395801   0.0000332465  -0.0000186962   0.0000095416   0.0000231984
       -0.0000119493   0.0000409735  -0.0000016673   0.0000050308   0.0000299186
       -0.0000025998  -0.0000222442   0.0000292833   0.0000066894   0.0000237570
       -0.0000136503  -0.0000513736
       -0.0122512665  -0.0128102468   0.5066317514  -0.0488056138   0.0094636043
       -0.0756213727   0.0115244346  -0.0019236101   0.0034054512   0.0013092892
        0.0021398555  -0.0021487043   0.0005004349  -0.0002044418   0.0004187535
       -0.0021939472   0.0046506825  -0.0006936607  -0.0007803775  -0.0000276004
        0.0000608141  -0.0001036464   0.0001880525  -0.0002553858  -0.0000658462
       -0.0000483825  -0.0000083087  -0.0000254688  -0.0000174990   0.0000329448
        0.0000026451   0.0000160506   0.0000048506   0.0000223386   0.0000064360
        0.0000361467  -0.0000189015  -0.0000021070  -0.0000085641   0.0000122120
       -0.0000973804   0.0000025007   0.0000184518   0.0000131503  -0.0000268646
        0.0000014724   0.0000084575  -0.0000176975   0.0000032770  -0.0000081534
       -0.0000083904  -0.0000146692  -0.0000187509   0.0000134288   0.0000117991
        0.0000015535   0.0000051667  -0.0212670905   0.0018756818  -0.0067307490
       -0.0000625046  -0.0010698053   0.0002316170  -0.0000949246  -0.0002887103
        0.0000403836   0.0002386927   0.0000556022  -0.0001078695  -0.0000240494
        0.0000079879   0.0000369761   0.0000079253   0.0000077309  -0.0000233163
       -0.0000190630  -0.0000397881  -0.0000291336  -0.0000159992  -0.0000195860
        0.0000295153   0.0003556928  -0.0001203970  -0.0012734993   0.0000106382
        0.0004016166  -0.0005170436  -0.0000091587   0.0001613281   0.0000133321
       -0.0001426873  -0.0000547267   0.0000136541  -0.0002094703   0.0001342758
        0.0000185888  -0.0001733092  -0.0001627025  -0.0004544187   0.0309695682
       -0.0672070684  -0.0654046043   0.0491108448   0.0682209534  -0.0762249528
       -0.0080716050  -0.0031822353  -0.2817943664   0.0000649920  -0.0000210035
        0.0000528747   0.0000874836  -0.0000053705   0.0000376311  -0.0000653978
       -0.0000718734   0.0001472654   0.0000039995   0.0000075369  -0.0000062999
       -0.0000279481   0.0000128291   0.0000066440  -0.0000250835   0.0000019402
       -0.0000004486  -0.0000200078  -0.0000134861  -0.0000003645   0.0000106836
        0.0000363392   0.0000000913   0.0000070161   0.0000199974  -0.0000445335
       -0.0000036743   0.0000256282   0.0000283717  -0.0000013119   0.0000221190
        0.0000158317  -0.0000022009   0.0000169292   0.0000038963  -0.0000061010
       -0.0000109987   0.0000249489  -0.0000699813  -0.0001068589   0.0001607123
       -0.0000010297   0.0000470029   0.0000759981  -0.0000059483   0.0000124547
        0.0000301891   0.0000074433   0.0000256334   0.0000226287  -0.0000145450
       -0.0000179429   0.0000416805   0.0000408873   0.0000362118  -0.0000702265
        0.0000431985  -0.0000301814  -0.0000321124   0.0000692569  -0.0000232265
       -0.0000294831   0.0000865215  -0.0000033281  -0.0000390790   0.0000716296
       -0.0000101793  -0.0000731898
       -0.2101601668   0.0116056063  -0.0488056138   0.5362733803  -0.0553812120
        0.1538161331  -0.0982163084  -0.0323889476   0.0447893572  -0.0218234136
        0.0003177582  -0.0028628842  -0.0032438987   0.0001607421  -0.0018005711
       -0.0340993107   0.0091632035  -0.0203361053  -0.0041648520  -0.0008461401
        0.0002690942  -0.0004251876   0.0006225284  -0.0010904626  -0.0000585728
       -0.0001341890  -0.0000072778  -0.0000249931  -0.0000296859   0.0001239508
        0.0000145638   0.0000119290  -0.0000064103   0.0000490424   0.0000125853
        0.0000791405   0.0000588778   0.0000750531   0.0000298992   0.0001593900
       -0.0001522515   0.0001563396   0.0000900113  -0.0000852846   0.0001300734
       -0.0000089501   0.0000263635   0.0000196490  -0.0000064982   0.0000417233
        0.0000320871  -0.0000203709  -0.0000026904  -0.0000392010   0.0000407721
       -0.0000187095  -0.0000710784  -0.1141886996   0.0617311586  -0.1161075110
        0.0045467156  -0.0019922353   0.0048566486  -0.0007024347  -0.0005478604
        0.0003853563  -0.0005520383  -0.0004137637   0.0000481743  -0.0000419672
       -0.0000828374  -0.0000014675   0.0000456989   0.0000065363  -0.0000532919
        0.0000167229   0.0000679658   0.0000221613  -0.0002632143  -0.0003666909
       -0.0001486771   0.0008001645  -0.0007764719  -0.0002451239  -0.0002085009
        0.0006047948   0.0000766068  -0.0000743343   0.0000811880   0.0000360976
       -0.0002342513   0.0000974261   0.0000101107  -0.0000965426  -0.0000881267
       -0.0000556684  -0.0006932906   0.0000102218  -0.0001108931  -0.0211112853
        0.0090817201  -0.0039219228  -0.0239958837  -0.0024484900  -0.0023721650
       -0.0069433435   0.0018993978  -0.0062149712  -0.0007439550   0.0001684166
        0.0001496976  -0.0007236723  -0.0004530545   0.0002350423  -0.0000525665
        0.0003182795  -0.0006009948  -0.0000273347  -0.0000436692  -0.0000451144
       -0.0000368086   0.0000025309   0.0000023407  -0.0000235756   0.0000011122
       -0.0000222973  -0.0000155124   0.0000014179  -0.0000011356  -0.0000530814
        0.0001212738   0.0000065733  -0.0000975517   0.0000355273  -0.0001563824
        0.0000019155   0.0000211493  -0.0000186005   0.0000029781  -0.0000063154
       -0.0000018058  -0.0000102908  -0.0000009246   0.0000137751  -0.0000240008
        0.0000272541   0.0000404571   0.0006744410   0.0000964464  -0.0001035944
        0.0000164216  -0.0000206965  -0.0000603640   0.0000124640  -0.0000264213
       -0.0000162447   0.0000013973  -0.0000386305   0.0000172324   0.0000375610
        0.0000361594  -0.0001106047   0.0001643324  -0.0000559932  -0.0000820158
        0.0000432763   0.0000062336   0.0000409511   0.0000357139  -0.0000038313
        0.0000125023   0.0000371331   0.0000002484   0.0000430904   0.0000436853
       -0.0000488280   0.0000279086
        0.0170275673  -0.0543726366   0.0094636043  -0.0553812120   0.2085624571
       -0.1869421183  -0.0366273319  -0.0427985193   0.0259266856  -0.0031111400
        0.0003807465   0.0046653658   0.0003835192  -0.0002743572   0.0016595436
        0.0265318525   0.0021684585   0.0036861000   0.0007788691   0.0018066036
       -0.0008490338  -0.0002868081   0.0001420480   0.0004880523  -0.0002261591
       -0.0000834077  -0.0000183691   0.0000327632   0.0000238626  -0.0000463982
        0.0000462853  -0.0000426783  -0.0000089909  -0.0000146758   0.0000336569
       -0.0000263667  -0.0000849625   0.0000474285   0.0000231279  -0.0002501127
       -0.0002649440   0.0000539924  -0.0000754066  -0.0000279474  -0.0001136266
        0.0000633328  -0.0000285508  -0.0000705136  -0.0000471085  -0.0000845870
        0.0000214624  -0.0000418097  -0.0000559697   0.0000926764  -0.0001238185
       -0.0000993464   0.0001860500   0.0454564989  -0.1024592959   0.1257480635
       -0.0023144080  -0.0106394192   0.0156515007   0.0011353535   0.0005760427
       -0.0012753538  -0.0001098557  -0.0007605139   0.0000661401  -0.0001687600
       -0.0002508968  -0.0000950817  -0.0000443117  -0.0000901961  -0.0000526030
       -0.0000217251   0.0000643629  -0.0000086491  -0.0000159707   0.0003175904
        0.0006699071   0.0002814416   0.0005980321  -0.0015534128   0.0003843560
        0.0001853121  -0.0000992902  -0.0000365549   0.0001796971   0.0001339881
        0.0000428470   0.0000638385   0.0000224622  -0.0000251266  -0.0001514081
        0.0001655111  -0.0001793283  -0.0004695523  -0.0001288426   0.0266487948
       -0.0028936878   0.0078428835  -0.0206208030   0.0015328589  -0.0057401910
        0.0012723736   0.0000176853   0.0013574300  -0.0003571926  -0.0001305560
       -0.0000707225  -0.0000181102   0.0000317333   0.0002815673  -0.0003267353
       -0.0000726583   0.0000556690   0.0000365618   0.0000274971   0.0000300244
       -0.0000305108   0.0000202613   0.0000060126  -0.0000231065  -0.0000019178
        0.0000149015  -0.0000198980  -0.0000115970  -0.0000028491   0.0000412288
       -0.0000160420  -0.0000031730   0.0000281453   0.0000512342  -0.0001026981
        0.0000100402   0.0000495082   0.0000167711   0.0000036754   0.0000564053
       -0.0000032501   0.0000281676   0.0000505375  -0.0000264166   0.0000389824
       -0.0000083534  -0.0000416852  -0.0003637821  -0.0015264723  -0.0007387341
        0.0000431995   0.0001019358   0.0000963755   0.0000537346   0.0001049552
        0.0000327110   0.0000765133   0.0001787524  -0.0000451386   0.0000399663
       -0.0000657613  -0.0001164935   0.0002362890   0.0002444999  -0.0001226161
        0.0000408189  -0.0000536930  -0.0000610301   0.0000753786  -0.0000170249
       -0.0000344478   0.0001134502   0.0000146769  -0.0000070926  -0.0000052822
        0.0001193116  -0.0000533907
       -0.0499100023   0.0072046035  -0.0756213727   0.1538161331  -0.1869421183
        0.4448575448   0.0537846098   0.0262526100  -0.0629405077   0.0010746746
        0.0053042415  -0.0083339872  -0.0010901851   0.0027331923  -0.0016859843
       -0.0522048104   0.0006382097  -0.0047336480  -0.0022296955  -0.0007205591
        0.0015429719   0.0004381118   0.0000064434  -0.0005596643   0.0001730101
        0.0000923986  -0.0000026146   0.0000373111   0.0000070430   0.0000641065
       -0.0000576705  -0.0000097725  -0.0000062980  -0.0000034645  -0.0000169777
        0.0000273558   0.0001426136  -0.0000604556  -0.0000073656   0.0003819182
        0.0008125576  -0.0000930768   0.0000888611   0.0000410947   0.0001796849
       -0.0001085031   0.0000474369   0.0000406029   0.0000619907   0.0001746607
        0.0000052037   0.0000504142   0.0000309788  -0.0002072140   0.0001969525
        0.0002796285  -0.0002025790  -0.0879083913   0.1268025469  -0.2617748408
        0.0063172808   0.0159043797  -0.0284079071  -0.0017935199  -0.0020913120
        0.0012574646  -0.0008008072  -0.0006766263   0.0009614210   0.0000008245
        0.0002608313   0.0002639699   0.0000178205   0.0000643520   0.0001290099
        0.0000268026  -0.0001516823  -0.0001344952  -0.0000069162  -0.0003707306
       -0.0009373319  -0.0011165437  -0.0008938477   0.0018157058   0.0000775303
       -0.0006371703  -0.0004296434  -0.0000819022  -0.0001633185  -0.0002482108
        0.0000786311   0.0000246032   0.0000072294  -0.0000338767   0.0000298177
       -0.0002351367  -0.0000028702   0.0008783093   0.0001172996   0.0035492175
        0.0018020854   0.0039391360   0.0086392613  -0.0002984580   0.0037968421
       -0.0317521408   0.0041025530  -0.0128489067   0.0010858400   0.0002416319
        0.0000621485  -0.0004863902  -0.0001079474  -0.0002836026   0.0003108297
        0.0000792339  -0.0000881181  -0.0000590067  -0.0000598237  -0.0000365149
        0.0000232174  -0.0000254100  -0.0000175019   0.0000202232  -0.0000082897
       -0.0000216655   0.0000162555  -0.0000001825   0.0000031616  -0.0000882807
        0.0000216966  -0.0000180118  -0.0000291147  -0.0001026484   0.0000913146
       -0.0000274114  -0.0000698629  -0.0000114734  -0.0000006158  -0.0000657761
        0.0000069524  -0.0000493559  -0.0000578303   0.0000314616  -0.0000241463
       -0.0000069801   0.0000389458   0.0002337616   0.0007487799   0.0007582058
       -0.0000427634  -0.0001590831  -0.0001467528  -0.0000627476  -0.0001559547
       -0.0000262931  -0.0001092700  -0.0002178352   0.0000683226  -0.0001158276
        0.0000172830   0.0001299545   0.0000295235  -0.0004928787  -0.0003410578
       -0.0000687707   0.0001439265   0.0000685782  -0.0001520032   0.0000460966
        0.0000792363  -0.0002248102  -0.0000243925   0.0000369915  -0.0000318066
       -0.0002053021   0.0000209541
       -0.0221277637  -0.0105716133   0.0115244346  -0.0982163084  -0.0366273319
        0.0537846098   0.2481138872   0.0165155931   0.0019141334  -0.0885185868
        0.0267936870  -0.0555471085  -0.0225167966   0.0081794903  -0.0132120216
       -0.0020541945   0.0172318441  -0.0311224291   0.0014108224  -0.0017812713
        0.0024188781   0.0002517490   0.0000512166  -0.0000913034  -0.0001839205
       -0.0001706450  -0.0001059675   0.0000742007  -0.0000804989  -0.0000076786
       -0.0000139474   0.0000384427   0.0000169833   0.0001628151   0.0000622530
        0.0000263069  -0.0002911474   0.0002067160   0.0000283794  -0.0007516981
        0.0006445469  -0.0003621906   0.0003387688   0.0005565861  -0.0004406832
       -0.0000296781  -0.0001736684   0.0001135173   0.0000000416  -0.0000797155
       -0.0000739832   0.0001351011   0.0000162298   0.0000419439  -0.0000174572
        0.0002362098   0.0003228934  -0.0055676514  -0.0210589937   0.0342901558
        0.0023140380   0.0019647255  -0.0039788171  -0.0008660695  -0.0005469808
        0.0007629066  -0.0005006560  -0.0003440423   0.0005022967   0.0000963311
        0.0001547847  -0.0000330428   0.0000474843   0.0000971510   0.0000463304
       -0.0000090740  -0.0000543444   0.0000573772  -0.0001413275  -0.0004666063
       -0.0004491021  -0.0000538797  -0.0003790461   0.0003310589  -0.0003751022
        0.0000278402  -0.0000946756   0.0000235155  -0.0000916739  -0.0000570221
        0.0000169388   0.0000423090  -0.0000035464   0.0000852476  -0.0000402818
       -0.0000744971  -0.0002373517   0.0002887012   0.0001781511  -0.0007083690
       -0.0003285756   0.0004093736  -0.0046338901   0.0008062787  -0.0009962374
        0.0003389997  -0.0002099543  -0.0003251497  -0.0012254252   0.0004174294
       -0.0004976748  -0.0044639865  -0.0012297138   0.0003673562  -0.0000073931
        0.0000624355   0.0003947393   0.0000412395  -0.0000095208  -0.0000123156
       -0.0000208099   0.0000038694  -0.0000084063  -0.0000103056  -0.0000198698
       -0.0000237148  -0.0000210140  -0.0000622475  -0.0000333869   0.0000533696
       -0.0000434196  -0.0000857433  -0.0001141987   0.0001079991   0.0000020413
       -0.0000268634   0.0000545233   0.0000673423  -0.0000291033   0.0000011755
        0.0000332663   0.0000078070   0.0000566752   0.0000028879  -0.0000629325
       -0.0000801844   0.0000089528   0.0001845381  -0.0002118513   0.0000135105
       -0.0000158610  -0.0000564709  -0.0000897122  -0.0000003075  -0.0000011668
       -0.0000259481  -0.0000336808  -0.0000629727   0.0000024802   0.0000001136
        0.0000879964  -0.0000564842   0.0001410658   0.0000018466   0.0000674988
        0.0000053337   0.0000787030   0.0000345998  -0.0000132847   0.0000201385
        0.0000174204  -0.0000335423   0.0000015410   0.0000145804   0.0000501702
       -0.0000262775   0.0000124356
       -0.0026112223   0.0001159278  -0.0019236101  -0.0323889476  -0.0427985193
        0.0262526100   0.0165155931   0.1009688508  -0.1195469710   0.0233689255
       -0.0358218084   0.0226201573   0.0003291126   0.0014443241  -0.0025354691
       -0.0063720852  -0.0136019894   0.0307272862   0.0001027955   0.0014725782
        0.0066416036  -0.0004569423   0.0000877795  -0.0007102902   0.0001696327
        0.0000827509   0.0000521015  -0.0000636413   0.0000753103   0.0001079925
       -0.0000016096  -0.0000280627  -0.0000115437  -0.0001700730  -0.0000727476
        0.0000693046   0.0003114692   0.0000178588  -0.0000590208   0.0002025053
        0.0005955025  -0.0010687676  -0.0002821539  -0.0004100659   0.0002255096
       -0.0000156885   0.0000142292  -0.0001204236   0.0000681067   0.0001810980
       -0.0000738695   0.0000873015   0.0001539463  -0.0000915618   0.0001034291
        0.0001582571  -0.0001187887   0.0017947617  -0.0150937314   0.0362967185
        0.0001773851   0.0026321441   0.0043186697   0.0001112464   0.0007677574
       -0.0008706058  -0.0002833814  -0.0004420630   0.0002263624   0.0001345798
        0.0000708398  -0.0001460133   0.0000909553   0.0001589963  -0.0000821727
        0.0001139278   0.0001770441  -0.0000248058   0.0000034720   0.0000012694
       -0.0001492088   0.0003106441  -0.0002998962   0.0000950431  -0.0003168440
        0.0000668382  -0.0001527890   0.0000309067  -0.0000974801   0.0000264499
        0.0000361002   0.0000331108   0.0000195222   0.0001543557  -0.0000342492
       -0.0000313926  -0.0001730216   0.0002107138   0.0001371014   0.0004903588
       -0.0004869382   0.0003614168  -0.0007138470   0.0003303457  -0.0000582773
        0.0003121258   0.0003910810   0.0000316841  -0.0008786454  -0.0006979413
        0.0001480880   0.0004456564   0.0001802335  -0.0000525704  -0.0007431532
        0.0003271327  -0.0002011346  -0.0000344584  -0.0000736481  -0.0000353333
        0.0000178852  -0.0000444437  -0.0000138407   0.0000259340  -0.0000008756
       -0.0000259703   0.0000109673   0.0000240417   0.0000177609  -0.0000414049
        0.0000055813   0.0000350925   0.0002201503  -0.0001593803  -0.0001144175
        0.0000106674  -0.0000748226  -0.0000920694   0.0000069752  -0.0000258995
       -0.0000342501  -0.0000178053  -0.0000242631   0.0000273285  -0.0000039154
        0.0001069643  -0.0000269910  -0.0001782603  -0.0004475592  -0.0001118779
       -0.0000066332  -0.0000582976  -0.0000856504   0.0000111289  -0.0000047452
       -0.0000418957  -0.0000078067  -0.0000223124   0.0000217347   0.0000262778
        0.0000922342   0.0000136797   0.0000251978  -0.0000585958   0.0001104602
       -0.0000104617   0.0000232783   0.0000291913  -0.0000228191   0.0000039083
       -0.0000027675  -0.0000331561  -0.0000366065  -0.0000000470   0.0000074464
       -0.0000549858   0.0000015280
        0.0010619606  -0.0026058759   0.0034054512   0.0447893572   0.0259266856
       -0.0629405077   0.0019141334  -0.1195469710   0.2336199179  -0.0476933269
        0.0231642298  -0.0711042835  -0.0032097724  -0.0014329300   0.0018095982
        0.0077231227   0.0339460055  -0.0533578667  -0.0001369752   0.0035568827
       -0.0005497122   0.0002891291  -0.0000795426   0.0003524895  -0.0002887407
       -0.0001748669  -0.0000412219   0.0001432659  -0.0000705511  -0.0000443521
        0.0000915954  -0.0000595854   0.0000049833   0.0000321759   0.0000699233
        0.0000177252  -0.0003435482   0.0002090730   0.0001518267  -0.0009823677
        0.0007866903  -0.0014445111   0.0004265540   0.0005026546  -0.0006998146
        0.0000830603  -0.0001937964   0.0000251330  -0.0000760587  -0.0002388430
       -0.0000144966   0.0001399599  -0.0000578018   0.0002221371  -0.0002484399
        0.0003097771   0.0005723956  -0.0027169629   0.0325851287  -0.0514461241
       -0.0011546896   0.0027890559  -0.0004357926   0.0001714943   0.0001140621
       -0.0010979868   0.0003540836   0.0002609713  -0.0005803254  -0.0000996379
       -0.0001354930   0.0000684836  -0.0001345101  -0.0002375819   0.0000909947
       -0.0000283016  -0.0001472597   0.0000011974   0.0002293601   0.0004016758
        0.0005894618  -0.0004878997   0.0000829797   0.0007195010   0.0004780123
        0.0000290239   0.0002405031   0.0000401867  -0.0000240546  -0.0000405662
       -0.0001710341  -0.0000496533   0.0000038419  -0.0002100143   0.0000969745
       -0.0000516894   0.0003020579  -0.0003027246  -0.0001361527   0.0001333067
        0.0004001137   0.0000838728  -0.0014291713  -0.0002306333   0.0002007078
       -0.0008800303  -0.0002862280   0.0006157449  -0.0002433357   0.0004294774
        0.0000032585   0.0010275599  -0.0003451725   0.0002681796   0.0014486022
       -0.0003351033   0.0008351913   0.0001042919   0.0000585499   0.0000078820
       -0.0000151855   0.0000561388   0.0000083251  -0.0000220188  -0.0000056533
        0.0000087089  -0.0000208367  -0.0000488551  -0.0000178013   0.0000767621
       -0.0001097396  -0.0001251892  -0.0003072272   0.0001992309   0.0000704472
       -0.0000060735   0.0001174166   0.0001005196  -0.0000281789   0.0000682309
        0.0000179911   0.0000611862   0.0001064374  -0.0000531325  -0.0000502378
       -0.0000690890   0.0000130863   0.0000139371   0.0003619576   0.0001718329
        0.0000157191   0.0000839515   0.0000623184  -0.0000048038   0.0000300237
        0.0000344475   0.0000314328   0.0000856070  -0.0000464982  -0.0000340946
       -0.0000350108  -0.0000031444  -0.0001512629  -0.0000080258  -0.0001892682
        0.0000089061  -0.0000645040  -0.0000320489   0.0000004942  -0.0000261064
        0.0000098554   0.0000384224   0.0000331474   0.0000050478  -0.0000553934
        0.0000595758   0.0000394279
       -0.0030421913  -0.0005708554   0.0013092892  -0.0218234136  -0.0031111400
        0.0010746746  -0.0885185868   0.0233689255  -0.0476933269   0.5433977577
        0.1123680490  -0.1322982430  -0.2102569706  -0.0303360487   0.0367065006
       -0.1266886967  -0.0778849080   0.1189273168   0.0046499624   0.0021528965
       -0.0013988934   0.0012960977  -0.0000231349   0.0006023183  -0.0005253639
        0.0003189724   0.0001131250   0.0000335842   0.0000909850   0.0000002373
       -0.0001737251  -0.0001480033  -0.0000084800  -0.0002427008  -0.0001444406
       -0.0000243126  -0.0004480418  -0.0004453770   0.0003723572  -0.0005750470
        0.0015051125  -0.0008930739  -0.0000703399   0.0004188390  -0.0005409767
       -0.0000479398  -0.0001797971  -0.0000388206   0.0000234307  -0.0000519998
       -0.0000145856   0.0001424277   0.0000082458   0.0001223407   0.0000331911
        0.0002266707   0.0004054222  -0.0386393899  -0.0133385962   0.0163001201
       -0.0041091142  -0.0000057219  -0.0005402696  -0.0002451883  -0.0002286000
        0.0002593413   0.0000528706   0.0000091710   0.0000741136   0.0000300102
        0.0000645764  -0.0000090407  -0.0000027273  -0.0000205598  -0.0000003865
       -0.0000026156  -0.0000553572  -0.0000080761   0.0000470230  -0.0000398733
       -0.0000519572  -0.0005851484  -0.0004363822   0.0007576434  -0.0000259772
       -0.0001102303  -0.0000435720   0.0000306252  -0.0000224531  -0.0000631196
        0.0000116192  -0.0000220524   0.0000062659  -0.0000370096   0.0000543948
       -0.0000758659   0.0000285007   0.0001252902   0.0000168464  -0.0005180470
       -0.0002908039  -0.0000876535  -0.0007381922   0.0003449767  -0.0004029788
       -0.0000688174  -0.0002511269   0.0005340045  -0.0190845831  -0.0104222964
       -0.0001015845  -0.0256315841  -0.0000032498   0.0016421281  -0.0081712629
       -0.0030923581   0.0050252484   0.0001051788  -0.0000109605  -0.0000031905
        0.0000419656   0.0000005149  -0.0000356461   0.0000559998   0.0000082070
       -0.0000222464   0.0000085767   0.0000203600  -0.0000494712   0.0002701909
       -0.0001218185  -0.0001006811   0.0003884262   0.0002908802   0.0001017632
       -0.0000025702   0.0000383619   0.0000445042  -0.0000034245   0.0000382892
        0.0000084203   0.0000146933   0.0000660153  -0.0000335143  -0.0000656374
       -0.0000310381  -0.0000381636  -0.0001825008  -0.0001066421   0.0000960579
       -0.0000093152  -0.0000289652   0.0000016590  -0.0000049544  -0.0000097158
       -0.0000036094  -0.0000103873  -0.0000174287  -0.0000066964  -0.0000043369
       -0.0000019286  -0.0000391596  -0.0000790864  -0.0000464605   0.0000667319
       -0.0000197158   0.0000148573   0.0000069376  -0.0000124790   0.0000083387
        0.0000191692  -0.0000264916   0.0000131512   0.0000032034   0.0000314423
        0.0000542433   0.0000298556
       -0.0006559581  -0.0006887968   0.0021398555   0.0003177582   0.0003807465
        0.0053042415   0.0267936870  -0.0358218084   0.0231642298   0.1123680490
        0.2222361776  -0.1916114330  -0.0339441593  -0.0590306873   0.0128044462
       -0.0599167028  -0.1151797386   0.1322375037   0.0000821058  -0.0082105377
        0.0122165021   0.0002027456   0.0003069443  -0.0011342553  -0.0000356135
       -0.0002392438  -0.0001604745   0.0000431951  -0.0000702949   0.0000878209
       -0.0000239545  -0.0000521438  -0.0000046554   0.0000277621   0.0000601809
        0.0001072920   0.0000267518   0.0001574144   0.0002233622  -0.0006833610
        0.0002593378  -0.0006031396   0.0001097401  -0.0002514387   0.0000956601
        0.0001545768  -0.0002055000  -0.0000408401  -0.0000406758  -0.0001081431
       -0.0000318393   0.0000401311  -0.0000284394   0.0000824888  -0.0001570080
        0.0000219056   0.0004810693  -0.0311816882  -0.0018999631   0.0021793948
       -0.0006306044   0.0021525958  -0.0009531738  -0.0000830890  -0.0003878866
        0.0000520105  -0.0000237642  -0.0000281564   0.0000811843   0.0000033790