$hessian                                                                        
        0.4919382393   0.0188754071  -0.0090626295  -0.1476108582   0.0792805707
        0.0034916815  -0.0033799087   0.0067815791  -0.0024028120   0.0029594766
        0.0011382297   0.0018903033  -0.0001009003  -0.0000371551   0.0000086024
       -0.0008271377   0.0004739155  -0.0006798911   0.0000434518  -0.0006307351
       -0.0002927921  -0.0000661779   0.0000854334   0.0001398627  -0.0000535986
       -0.0000325125  -0.0000032358  -0.0000111444   0.0000125827   0.0000116512
        0.0000044200  -0.0000320888  -0.0000500196   0.0000240655   0.0000148591
        0.0000134638   0.0000093275   0.0000234324   0.0000088590  -0.0000051596
        0.0000599010   0.0000486071   0.0000222282  -0.0000418830  -0.0000040309
        0.0000372926  -0.0000426251  -0.0000618417   0.0000027205  -0.0000060765
       -0.0000368757   0.0000619943  -0.0000126282   0.0000188751   0.0000472951
       -0.0000308440   0.0000196291  -0.0000567933   0.0000167944  -0.0000498568
       -0.0000145546  -0.0000225199   0.0000028253  -0.0000153353  -0.0000125880
       -0.0000013701   0.0000348653  -0.0000112818   0.0000599319   0.0000131734
        0.0000348632   0.0000107398  -0.0000146068   0.0000176288  -0.0000140833
       -0.0001824790   0.0003295071   0.0053161720  -0.0010467862   0.0006269831
        0.0001021822  -0.0236622910   0.0180412564   0.0048787020  -0.2151296960
       -0.0853502969   0.0653492109  -0.0542289438  -0.0481979258  -0.0370882860
       -0.0491510542   0.0102694460  -0.0298825297   0.0004631012  -0.0017818350
       -0.0000741675   0.0000083906   0.0000069522   0.0000410143  -0.0000000228
       -0.0000623910  -0.0000242664  -0.0000308997   0.0000013769   0.0000617207
        0.0000054536   0.0000026358  -0.0000118154   0.0000041632  -0.0000119273
       -0.0000105209  -0.0000074138  -0.0000136087  -0.0000104188  -0.0000086300
       -0.0000017083   0.0000182908  -0.0000116863   0.0000084249  -0.0000197934
       -0.0000085816   0.0000114337  -0.0000104434  -0.0000123637   0.0000045277
       -0.0000008264  -0.0000186140  -0.0000009748  -0.0000225811  -0.0000102840
       -0.0000154829   0.0000202342  -0.0000675311  -0.0000202019  -0.0000022878
        0.0000293282   0.0000607503   0.0000716176   0.0000139470  -0.0000327231
       -0.0000318879  -0.0000784218  -0.0000119269  -0.0000327524   0.0000186014
        0.0000599841  -0.0000046406  -0.0000013204  -0.0000044534   0.0000189252
        0.0000098428   0.0000090006  -0.0000015352  -0.0000012114   0.0000203148
        0.0000175485   0.0000047720   0.0000030125  -0.0000060487  -0.0000116049
        0.0000030890  -0.0000144808   0.0000145640  -0.0000115882   0.0000082760
       -0.0000022202  -0.0000006573   0.0000107666  -0.0000083135   0.0000003027
        0.0000147638  -0.0000517365   0.0000513817   0.0001185573   0.0000493079
        0.0000836760  -0.0001767500  -0.0002112788  -0.0000901222   0.0001428664
        0.0002795382   0.0001115093  -0.0018304100
        0.0188754071   0.4803558650  -0.0194761380   0.0753952108  -0.1324215616
        0.0014528406   0.0193625297  -0.0218138133   0.0046366464   0.0001338504
        0.0003413316   0.0054655583   0.0006795583  -0.0009460278   0.0000706574
        0.0008769030  -0.0010832545  -0.0008266372  -0.0010135894   0.0000651896
       -0.0004247240   0.0000541176   0.0000301361  -0.0001099324   0.0000191911
        0.0000587266   0.0000291131   0.0000164790  -0.0000096985  -0.0000149528
       -0.0000024651   0.0000456804   0.0000751322  -0.0000455132  -0.0000253836
       -0.0000071182  -0.0000000217  -0.0000153996  -0.0000156553   0.0000352818
       -0.0000732290  -0.0000663222  -0.0000210521   0.0000100590  -0.0000042665
       -0.0000239283   0.0000576617   0.0000265881   0.0001413694  -0.0001377196
        0.0002823100  -0.0000207600   0.0000579166   0.0000008000  -0.0000520671
        0.0000257713  -0.0000619968   0.0000802021  -0.0000091464   0.0000658238
        0.0000257002   0.0000653520   0.0000016302   0.0000160403   0.0000026138
       -0.0000011642  -0.0000323929  -0.0000116755  -0.0000617370  -0.0000724907
       -0.0000726049  -0.0000304507   0.0000176913  -0.0000103692   0.0000068181
        0.0007523621   0.0040881961   0.0030684876  -0.0002512292  -0.0000830529
       -0.0000309681   0.0054250970  -0.0000644858  -0.0018638099  -0.0859497070
       -0.0834400686   0.0348764692  -0.0436225505  -0.1713209334  -0.1059092847
        0.0111102984  -0.0729395144   0.0813892630  -0.0000081468  -0.0002103689
       -0.0018834148  -0.0000695795  -0.0002047488   0.0001370016   0.0000662120
       -0.0000353014   0.0001202348   0.0000793732   0.0000367019  -0.0001420562
        0.0000045411  -0.0000041135   0.0000059809  -0.0000181113   0.0000179564
        0.0000084863  -0.0000069296   0.0000048169   0.0000163792   0.0000137204
       -0.0000028092  -0.0000242144   0.0000159404  -0.0000108492   0.0000230227
        0.0000132776  -0.0000142012   0.0000116687   0.0000245776   0.0000016840
       -0.0000023978   0.0000248315   0.0000059272   0.0000297963  -0.0000296520
        0.0000179802  -0.0000410003   0.0000745149   0.0000330797   0.0000077504
       -0.0000189766  -0.0000881856  -0.0000173910  -0.0000293762  -0.0000081375
        0.0000321384   0.0000733539   0.0000492346   0.0000671742  -0.0000224590
       -0.0000713124  -0.0000036900  -0.0000096378   0.0000012475  -0.0000294569
       -0.0000196113  -0.0000110283   0.0000030530   0.0000041946  -0.0000277724
       -0.0000234922  -0.0000047642  -0.0000041666   0.0000116647   0.0000174688
       -0.0000216172   0.0000233825  -0.0000066774   0.0000095432  -0.0000165289
       -0.0000100835  -0.0000068200  -0.0000130171   0.0000119986  -0.0000014988
       -0.0000081590  -0.0000793903  -0.0000017293   0.0000229810  -0.0000046085
       -0.0000332615   0.0000145610  -0.0000205609   0.0000265274   0.0000598490
       -0.0019749625  -0.0001733383  -0.0009332862
       -0.0090626295  -0.0194761380   0.5104135160   0.0011640463   0.0034041790
       -0.0632845830  -0.0127559291   0.0147899131   0.0002459508   0.0027411417
        0.0053557162   0.0010930817  -0.0008087525   0.0005217160  -0.0001795134
        0.0000463361  -0.0004734998  -0.0007144551  -0.0006940463  -0.0003099332
       -0.0004482596  -0.0000183835   0.0000952273   0.0000377707  -0.0000723890
        0.0000306244   0.0000305951  -0.0000023398  -0.0000107826   0.0000079152
       -0.0000022977   0.0000029051   0.0000189011  -0.0000274880  -0.0000068403
        0.0000079772   0.0000242459   0.0000119393  -0.0000053488   0.0000015951
       -0.0000113878   0.0000012200  -0.0000271688  -0.0000463261  -0.0000322955
       -0.0000122084   0.0000174879  -0.0000118830   0.0000966731  -0.0001362794
        0.0001724125   0.0000454055   0.0000370424   0.0000090875   0.0000037002
       -0.0000072819  -0.0000128013   0.0000041083  -0.0000113974   0.0000033961
        0.0000092552   0.0000185643   0.0000060643  -0.0000033432  -0.0000193649
       -0.0000010958   0.0000065745  -0.0000261071   0.0000127302  -0.0000597268
       -0.0000188543  -0.0000262467  -0.0000126587   0.0000041071   0.0000009047
        0.0041489729   0.0033709113   0.0007349225   0.0006124801  -0.0006410889
       -0.0000818727   0.0154179775  -0.0116261260  -0.0012202067   0.0660138018
        0.0342276499  -0.0700325070  -0.0342030490  -0.1085432659  -0.1295627723
       -0.0304387142   0.0819864340  -0.2463679356  -0.0020555977  -0.0007123460
       -0.0003821309  -0.0000649350   0.0001641458  -0.0001071561   0.0000224799
        0.0000295046  -0.0000333386  -0.0000591835  -0.0000825200   0.0000954103
        0.0000087540  -0.0000022149  -0.0000054360  -0.0000020548  -0.0000083357
        0.0000021092  -0.0000047074   0.0000198367   0.0000073500   0.0000071413
       -0.0000021717  -0.0000062262   0.0000030438  -0.0000022037   0.0000041922
        0.0000042625  -0.0000042969   0.0000021756   0.0000050824   0.0000035427
       -0.0000014422   0.0000097185   0.0000071731   0.0000032844   0.0000104214
       -0.0000203599   0.0000131316   0.0000117573   0.0000052538   0.0000156177
        0.0000160203  -0.0000059624  -0.0000356665  -0.0000158445   0.0000091304
        0.0000253824  -0.0000062207   0.0000290455  -0.0000245413  -0.0000161529
       -0.0000171240   0.0000004481  -0.0000051364  -0.0000036661  -0.0000049403
       -0.0000041481  -0.0000028200   0.0000003268   0.0000008295  -0.0000042785
       -0.0000026330  -0.0000004053  -0.0000006657   0.0000013086   0.0000034204
       -0.0000161965   0.0000032482  -0.0000046955   0.0000075621  -0.0000037551
        0.0000169762   0.0000027573   0.0000000347   0.0000049345  -0.0000062336
        0.0000105248   0.0000278223   0.0000189102  -0.0000501375  -0.0000437470
       -0.0000415217   0.0000674917   0.0001376397  -0.0000281276  -0.0000829267
       -0.0001426649  -0.0018455605  -0.0003263750
       -0.1476108582   0.0753952108   0.0011640463   0.5125669324  -0.1332875792
       -0.1735697655  -0.0804313260   0.0365543675  -0.0069633610   0.0207960699
        0.0066513943  -0.0230496080  -0.0004475173   0.0051917203   0.0021798840
       -0.0088911603  -0.0189998230   0.0194504519  -0.0013876714   0.0014611660
        0.0001611686   0.0003733878   0.0000350341  -0.0002427237   0.0000152061
        0.0000730468   0.0000705779   0.0000088569   0.0000136024   0.0000264552
        0.0000269446   0.0000261683   0.0000317314  -0.0001167908  -0.0000219823
        0.0000335963   0.0000346882   0.0000236037  -0.0000229721   0.0000795684
       -0.0000622474  -0.0000707410  -0.0001088832  -0.0000890813   0.0000458070
        0.0000551449  -0.0000020886  -0.0000373372   0.0000929942  -0.0006087285
        0.0001510235   0.0001970563   0.0001003443   0.0000189568  -0.0000513318
       -0.0000552391   0.0000506477   0.0000300826  -0.0000135701   0.0000508084
        0.0000359603   0.0001100396   0.0000373116  -0.0000050066  -0.0000560070
       -0.0000241323  -0.0000448992  -0.0000862823  -0.0000303477  -0.0002160327
        0.0001182751  -0.0001083810   0.0000109708   0.0000273395  -0.0000046047
       -0.0514249432   0.0405309126   0.0041885155   0.0002804446   0.0047769031
        0.0023298857  -0.2120203123  -0.0281396089   0.1504601363  -0.0250972732
        0.0177747044   0.0043584383   0.0032918246   0.0028461299   0.0028014891
       -0.0044205868   0.0073177074  -0.0026332057  -0.0028957713  -0.0167606188
        0.0167267264  -0.0000244960  -0.0000634685   0.0000510601  -0.0002445441
        0.0009685508  -0.0006184567  -0.0002682138  -0.0000644115   0.0003100920
        0.0000261413  -0.0000083915  -0.0000469341  -0.0000307007  -0.0000300816
        0.0000090913  -0.0000295713  -0.0000149804  -0.0000242786   0.0000404489
       -0.0000140554  -0.0000375242   0.0000143440   0.0000031865   0.0000219005
        0.0000265671  -0.0000164993  -0.0000023047   0.0000169761   0.0000241549
       -0.0000134119   0.0000157780   0.0000346041   0.0000159251  -0.0000168237
        0.0000061155  -0.0000297180   0.0000662999   0.0000382692   0.0000368080
       -0.0001572945  -0.0000465889  -0.0001203478  -0.0001088931   0.0000083164
        0.0000553139   0.0001768070   0.0001585759  -0.0000053632   0.0000284608
       -0.0000623200  -0.0000968586  -0.0000332861  -0.0000335686  -0.0000250754
       -0.0000249949  -0.0000164209   0.0000033372   0.0000078996  -0.0000314394
       -0.0000154380   0.0000032554  -0.0000164954   0.0000152161   0.0000215002
       -0.0000512248   0.0000192045   0.0000243823   0.0000085220   0.0000011349
       -0.0000183699   0.0000141571  -0.0000185526   0.0000188993  -0.0000301956
        0.0000293276   0.0004092180  -0.0000607811  -0.0000642132   0.0002160808
        0.0000252017  -0.0000969758  -0.0014998778  -0.0002910195   0.0008870466
       -0.0013817613  -0.0012825250   0.0021795171
        0.0792805707  -0.1324215616   0.0034041790  -0.1332875792   0.4916657202
       -0.1883582249  -0.0153199994  -0.2112033094   0.1506209549   0.0473390697
       -0.0467612039   0.0020640581   0.0048346369   0.0013075579   0.0026359638
       -0.0192498617  -0.0125151557   0.0214736417   0.0017455641  -0.0011567578
        0.0002831322  -0.0006070783   0.0000203659   0.0001774002   0.0001378375
       -0.0002218033  -0.0001077460   0.0000216155   0.0000165966  -0.0000013393
       -0.0000836262  -0.0000649934  -0.0000519999   0.0001096718   0.0000747368
        0.0000169142  -0.0000438651  -0.0000266421   0.0000185266  -0.0000141660
        0.0000432457   0.0000627959   0.0000590990   0.0002180966   0.0000471897
       -0.0000374286  -0.0000832237   0.0000198372  -0.0000346480   0.0003662081
       -0.0003368530  -0.0000612613  -0.0001281368   0.0000540933   0.0000035844
        0.0000578404  -0.0000192954  -0.0000931302   0.0000826948  -0.0000835511
        0.0000005847  -0.0001346355   0.0000154474  -0.0000001523   0.0000344411
        0.0000147873   0.0000221714   0.0000229374   0.0000452563   0.0000841388
        0.0000658689   0.0000762997   0.0000081939   0.0000175842   0.0000228814
       -0.0008022967   0.0253555958  -0.0233082533   0.0053609857   0.0005708659
        0.0025039916   0.0237075143  -0.0791047624   0.0084274700  -0.0052554508
        0.0075155162  -0.0016418985   0.0192293256  -0.0226052514  -0.0040904997
        0.0099085368  -0.0126632031   0.0040680168  -0.0011518208  -0.0029605619
        0.0043249948  -0.0001386844  -0.0015618737   0.0009197807  -0.0001413375
        0.0005068987  -0.0001475714  -0.0000236400   0.0002171873  -0.0000652110
       -0.0000314477   0.0000168925   0.0000237776   0.0000071111   0.0000190853
       -0.0000011248   0.0000134412  -0.0000184804  -0.0000275418  -0.0000540828
        0.0000251712   0.0000195271  -0.0000199005   0.0000015254  -0.0000273109
       -0.0000232531   0.0000133900  -0.0000058214  -0.0000310907  -0.0000269536
        0.0000189556  -0.0000383897  -0.0000375440  -0.0000354176   0.0000170510
       -0.0001045529   0.0000622099  -0.0000777033   0.0000199089  -0.0000973501
        0.0001264427   0.0002046607  -0.0000053213   0.0000031818  -0.0000157825
       -0.0000347043  -0.0000331168  -0.0001590440  -0.0001213993   0.0000373631
        0.0000768099   0.0000254303   0.0000327543   0.0000106855   0.0000182871
        0.0000270706   0.0000126159  -0.0000104094  -0.0000165519   0.0000370281
        0.0000198646  -0.0000026664   0.0000194935  -0.0000244957  -0.0000179423
        0.0000438828  -0.0000448575  -0.0000236803  -0.0000365810   0.0000118494
       -0.0000135374  -0.0000324042  -0.0000247553  -0.0000114042   0.0000237637
       -0.0000450146   0.0010615634  -0.0001440876  -0.0006515862  -0.0000126074
       -0.0002663844   0.0003064410  -0.0002199150  -0.0000725770   0.0001489753
       -0.0162057644  -0.0041574048   0.0174166232
        0.0034916815   0.0014528406  -0.0632845830  -0.1735697655  -0.1883582249
        0.4398411792   0.0375288969   0.1101546500  -0.1713105209  -0.0583473586
        0.0332266965   0.0154002381   0.0027461778   0.0016002938   0.0031290484
        0.0199200324   0.0221671284  -0.0373664990  -0.0000462100  -0.0002323979
       -0.0002470390   0.0001936550  -0.0000741364   0.0001024755  -0.0001404331
        0.0001372020   0.0000459153  -0.0000360906  -0.0000227950  -0.0000271872
        0.0000550629   0.0000194814  -0.0000110673   0.0000194472  -0.0000293157
       -0.0000420856   0.0000087119   0.0000023869   0.0000067182  -0.0000625826
        0.0000256351   0.0000174632   0.0000474628  -0.0000764667   0.0000004973
        0.0000077801   0.0000399498  -0.0000339460  -0.0001121272   0.0002280959
        0.0000081434  -0.0000965131   0.0000268183  -0.0000143577   0.0000669735
        0.0000112755  -0.0000107792   0.0000081184  -0.0000607649   0.0000001592
       -0.0000378547  -0.0000080358  -0.0000455369  -0.0000005311   0.0000046932
        0.0000047938   0.0000264781   0.0000638723   0.0000078366   0.0001919514
       -0.0001162520   0.0000636069  -0.0000227825  -0.0000342384  -0.0000305895
        0.0387853409  -0.0543130337   0.0153295263   0.0013876004   0.0028651329
        0.0031321902   0.1052865197   0.0478266595  -0.1716176159   0.0089416291
       -0.0062409724  -0.0008641199   0.0131091403  -0.0134082629   0.0004356282
       -0.0201007592   0.0203645536  -0.0013586589   0.0037789403   0.0160497551
       -0.0156224631   0.0006431814  -0.0002310869   0.0005474989   0.0001200660
        0.0010058378  -0.0007686196  -0.0000348606  -0.0001364070   0.0000548316
        0.0000038450  -0.0000085319   0.0000110971   0.0000223985   0.0000000954
       -0.0000148949   0.0000007090   0.0000013900   0.0000240068   0.0000083584
       -0.0000112606   0.0000189950  -0.0000042239  -0.0000022614  -0.0000063966
       -0.0000030005   0.0000052055   0.0000022220  -0.0000003610  -0.0000016479
        0.0000005863   0.0000013954  -0.0000109930  -0.0000027785   0.0000175535
        0.0000651784  -0.0000050101  -0.0000186085  -0.0000641441   0.0000409848
        0.0000636733  -0.0000904696   0.0001797557   0.0000737389   0.0000235859
       -0.0000188627  -0.0001167812   0.0000503744   0.0001730013  -0.0000553539
       -0.0000064117   0.0000451213  -0.0000042014   0.0000056291   0.0000080838
        0.0000019313   0.0000033474   0.0000053917   0.0000059214   0.0000016709
        0.0000030986  -0.0000008084   0.0000037925   0.0000013407  -0.0000148607
        0.0000159917   0.0000111957   0.0000031206   0.0000153610  -0.0000110021
        0.0000066698  -0.0000049732   0.0000295856  -0.0000093631   0.0000040892
        0.0000099924   0.0010099018   0.0002052558  -0.0007741571  -0.0001261406
       -0.0000523186   0.0000564213  -0.0002954159   0.0006013516   0.0005311373
        0.0156729229   0.0053201253  -0.0157909966
       -0.0033799087   0.0193625297  -0.0127559291  -0.0804313260  -0.0153199994
        0.0375288969   0.5144716721  -0.1544556189  -0.1812739506  -0.2044909327
        0.1528455072  -0.0081068161  -0.0007651282   0.0064928532  -0.0014588236
       -0.0484510415   0.0033606393   0.0387813028   0.0011211168   0.0001773170
        0.0035084161  -0.0004029312  -0.0000116898  -0.0006817277   0.0002371643
       -0.0000725933  -0.0000404612   0.0000150597   0.0000836719   0.0000189755
        0.0000061050  -0.0001394380  -0.0000914446   0.0000297445   0.0000376882
        0.0000429102   0.0000072848   0.0000175874  -0.0000053792   0.0000265686
       -0.0000259537   0.0000466108  -0.0001584535   0.0002058070   0.0002066635
        0.0002076641  -0.0000303080   0.0000410857  -0.0000598807   0.0001231843
       -0.0006588318  -0.0000817067   0.0000356497  -0.0000778655  -0.0001424663
       -0.0000595168   0.0000206697   0.0000162854   0.0000041610   0.0000388535
        0.0000058581   0.0000170785   0.0000321747  -0.0000055979  -0.0000500196
       -0.0000076233  -0.0000405200  -0.0000110808  -0.0000176383  -0.0000973759
        0.0001899372  -0.0000552332   0.0000827601   0.0000239188   0.0000157637
       -0.0105892102   0.0207126900  -0.0136623037  -0.0006308003   0.0001148309
        0.0005197296   0.0185218640  -0.0244050965   0.0077419288   0.0009153022
        0.0013523188  -0.0013269142  -0.0003874316   0.0014585137  -0.0008037293
       -0.0030043502   0.0036520967  -0.0004838742  -0.1819879108  -0.0133884769
        0.1254590714  -0.0000872045  -0.0002157405   0.0002927757  -0.0005375410
       -0.0008690882   0.0002535291   0.0007310783  -0.0018964508   0.0012187834
        0.0000092000  -0.0000029138  -0.0000372305  -0.0000032568  -0.0000112431
        0.0000137483  -0.0000156704  -0.0000381635  -0.0000680395   0.0000264383
       -0.0000011812   0.0000042005  -0.0000080728   0.0000064575  -0.0000079074
        0.0000015426   0.0000044454  -0.0000097075  -0.0000053545   0.0000033739
       -0.0000057403  -0.0000132511  -0.0000057649  -0.0000080158  -0.0000094035
        0.0001122177  -0.0001611096   0.0000716908   0.0000100053   0.0000014942
       -0.0001744846  -0.0001106178  -0.0000228517  -0.0000308133   0.0000534692
       -0.0000466400   0.0002385023   0.0000962192   0.0001272069   0.0001194986
       -0.0000462786  -0.0001116816   0.0000006136   0.0000028168   0.0000110028
       -0.0000005541   0.0000006931   0.0000022588   0.0000043717  -0.0000095585
        0.0000104144   0.0000077551  -0.0000148926   0.0000062157   0.0000142869
       -0.0000054595   0.0000042396   0.0000539308  -0.0000227556   0.0000239896
       -0.0000567686   0.0000335487  -0.0000197185   0.0000147281  -0.0000293521
        0.0000137064   0.0002712987  -0.0001250670   0.0001054263   0.0001623324
        0.0000902423  -0.0001005127  -0.0000033589  -0.0004097446   0.0000443436
       -0.0013390115   0.0011025943   0.0059713123
        0.0067815791  -0.0218138133   0.0147899131   0.0365543675  -0.2112033094
        0.1101546500  -0.1544556189   0.4913687538  -0.2048516110   0.0993081020
       -0.1815472947   0.0348223469   0.0185411524  -0.0236375216   0.0076880643
        0.0388214381   0.0225114022  -0.0435366896  -0.0008238224   0.0034400715
        0.0017083659   0.0009052080  -0.0003122078  -0.0008382631  -0.0000178530
        0.0002349630   0.0001231261  -0.0000475456   0.0000015014   0.0000078689
        0.0001253127  -0.0000105165  -0.0000131308  -0.0000704635  -0.0000701774
       -0.0000423975   0.0000261411   0.0000288111  -0.0000030692  -0.0000894107
        0.0000092513   0.0000285750  -0.0000982960  -0.0003385470  -0.0001295004
       -0.0001854260   0.0000496259   0.0000813911  -0.0005705182  -0.0001161006
        0.0003238443   0.0001714584   0.0000440997   0.0001373670   0.0000672805
        0.0000719019   0.0002016638   0.0000701601  -0.0000848406   0.0000163317
       -0.0000352080   0.0001170633  -0.0000461078  -0.0000197609  -0.0000307457
       -0.0000187120   0.0000412649   0.0000817675  -0.0000810114   0.0001677639
        0.0000180311  -0.0000134602  -0.0000132244  -0.0000222053  -0.0000688676
        0.0228042340  -0.0448016655   0.0174526773  -0.0000414428  -0.0001946576
       -0.0004676130  -0.0602454402   0.0093321139   0.0386442880  -0.0013391730
        0.0002063284   0.0005487808   0.0004057341  -0.0002373221   0.0010754385
        0.0024136942  -0.0019183553   0.0004648802  -0.0133977127  -0.0416823913
        0.0183158513   0.0008157180  -0.0021529113   0.0014377968   0.0006659431
       -0.0013355952   0.0012173519   0.0012857869   0.0000459744  -0.0012942762
        0.0000226439  -0.0000115558  -0.0000167650   0.0000118702   0.0000048208
        0.0000057805   0.0000124572   0.0000030809   0.0000415533   0.0000619373
       -0.0000077112  -0.0000013793   0.0000037831   0.0000013266   0.0000042866
       -0.0000016929   0.0000021713   0.0000037063   0.0000129042   0.0000200896
       -0.0000101768   0.0000285641   0.0000276859   0.0000118412   0.0001266183
       -0.0000720004   0.0000596501  -0.0000147576  -0.0000428740   0.0000601917
        0.0000627508   0.0000814858   0.0000269535   0.0000791980   0.0000071216
       -0.0000018113  -0.0001677346  -0.0000548202  -0.0001175081  -0.0000886486
        0.0000475036   0.0000405071  -0.0000284168  -0.0000143079  -0.0000035320
       -0.0000050830  -0.0000001268   0.0000121807   0.0000111656  -0.0000206575
       -0.0000134170  -0.0000040784   0.0000060193   0.0000084348  -0.0000257127
        0.0000108977   0.0000176564   0.0000091593   0.0000228661  -0.0000131560
       -0.0000615635  -0.0000873371  -0.0000146729  -0.0000258223   0.0000088998
        0.0000068393  -0.0001750257   0.0002423681  -0.0001187710  -0.0001575925
        0.0001271534  -0.0002255440   0.0001775727   0.0006268452  -0.0002035794
        0.0016140812   0.0030195730   0.0026048679
       -0.0024028120   0.0046366464   0.0002459508  -0.0069633610   0.1506209549
       -0.1713105209  -0.1812739506  -0.2048516110   0.4260512414   0.0374361858
       -0.0046704834  -0.0726690977  -0.0118624276   0.0181752584  -0.0029577991
        0.0054204895  -0.0192846537   0.0153690533   0.0056610132   0.0012138114
        0.0007303718   0.0001357142  -0.0008821057   0.0004104523   0.0003206625
       -0.0000828326  -0.0000719707   0.0000210273  -0.0000146707   0.0000037290
       -0.0000694287   0.0000438876  -0.0000727439   0.0000530648   0.0000331827
       -0.0000086062  -0.0000349300  -0.0000487458   0.0000212550  -0.0000485737
        0.0000532248  -0.0000182450   0.0001944598   0.0001828365  -0.0000463952
       -0.0000204902  -0.0001044862   0.0001401518  -0.0004023530   0.0006339416
       -0.0006581489  -0.0001762839  -0.0000743968  -0.0000648660  -0.0000428347
        0.0000718191   0.0000150833  -0.0000369683  -0.0000190769  -0.0000224447
       -0.0000021131  -0.0000901435  -0.0000055875   0.0000177673   0.0000466970
        0.0000171565  -0.0000456574   0.0000183976  -0.0000234967   0.0000559019
        0.0000991243   0.0000146257  -0.0000182868  -0.0000266394   0.0000669720
       -0.0151420475   0.0177185862  -0.0097690575   0.0005461635  -0.0000434923
       -0.0001750218   0.0385234986   0.0113293887  -0.0374443859   0.0011049874
       -0.0009901410   0.0004621090   0.0006883825  -0.0006534567  -0.0006461636
        0.0000885846   0.0001800968   0.0000264620   0.1257241496   0.0180190881
       -0.1460075247  -0.0005440538   0.0029759686  -0.0023052624  -0.0007762428
        0.0015740438  -0.0008866153  -0.0018813989   0.0014093582   0.0004287610
       -0.0000280148   0.0000126304   0.0000328491   0.0000022179   0.0000197475
        0.0000020753   0.0000195536   0.0000051707   0.0000001218  -0.0000178908
        0.0000217623  -0.0000059931   0.0000022005  -0.0000054861   0.0000031188
       -0.0000100338  -0.0000028176   0.0000040126  -0.0000117201  -0.0000250169
        0.0000125461   0.0000038615  -0.0000150082   0.0000069516   0.0000421335
       -0.0000000506   0.0000505141  -0.0000036126   0.0000534325  -0.0000654531
        0.0000679256   0.0000627921  -0.0001082102   0.0000438646   0.0000239138
        0.0000111355   0.0000310858  -0.0001602214  -0.0000479631   0.0000191417
        0.0000073734   0.0000170706   0.0000287616   0.0000289469   0.0000071060
        0.0000080698   0.0000059938  -0.0000080470  -0.0000106931   0.0000128740
       -0.0000005072  -0.0000017406   0.0000015324  -0.0000066909   0.0000124230
        0.0000365653  -0.0000116198  -0.0000539822   0.0000196479   0.0000130712
        0.0000904094   0.0000382711  -0.0000052739   0.0000128521   0.0000023381
       -0.0000234683  -0.0000050475  -0.0000927661   0.0000188528   0.0000456226
       -0.0001678271   0.0002605187  -0.0001607786  -0.0001666622   0.0000768143
        0.0056255525   0.0030834871   0.0009270466
        0.0029594766   0.0001338504   0.0027411417   0.0207960699   0.0473390697
       -0.0583473586  -0.2044909327   0.0993081020   0.0374361858   0.5098074088
       -0.1472566966  -0.1540752784  -0.0646952063  -0.0018133402   0.0064407887
       -0.1890998654   0.0182954133   0.0952053831  -0.0247072140   0.0104535250
        0.0092929417   0.0000306989   0.0017298834  -0.0019297836  -0.0006835757
        0.0003979280   0.0002947935   0.0000083754   0.0000287201   0.0000016494
        0.0002894119  -0.0000083056   0.0003302783  -0.0000970370  -0.0001951519
       -0.0001794591   0.0000846357   0.0000172351  -0.0000709718  -0.0001345904
       -0.0001628379   0.0000563716  -0.0004754878  -0.0006270833  -0.0001442063
       -0.0002530991   0.0002246651   0.0002347037  -0.0002402719  -0.0026923262
        0.0004951689   0.0009094573   0.0004286420   0.0004854921  -0.0002797571
       -0.0003564589  -0.0002264633   0.0000542395  -0.0001774065   0.0001572771
        0.0001094833   0.0002434517   0.0000679556   0.0000160781  -0.0001294968
       -0.0000504449  -0.0002137974  -0.0002740281  -0.0002424644  -0.0006023507
        0.0006235654  -0.0005514167  -0.0000289789  -0.0000242849   0.0000248785
        0.0213008415  -0.0598118336   0.0364802810   0.0031678536   0.0019405635
        0.0006784105  -0.0491988459   0.0165261911   0.0186954267   0.0001519094
       -0.0003894119   0.0000486623  -0.0009051069   0.0006576359   0.0004151306
        0.0005836201  -0.0001108309   0.0004955272  -0.0204268784   0.0149999888
        0.0042491234   0.0002569335   0.0203329672  -0.0181714494   0.0008703697
       -0.0057700653   0.0046575840  -0.0037376452  -0.0147634459   0.0156607895
        0.0000257526  -0.0000418417  -0.0000523213  -0.0000369676  -0.0000286423
        0.0000434505  -0.0000535370  -0.0000044217   0.0000258395   0.0000824556
       -0.0000190798  -0.0000593193   0.0000232214  -0.0000300031   0.0000476492
        0.0000261468  -0.0000267155   0.0000364530   0.0000697421   0.0000218195
       -0.0000089693   0.0000984084   0.0000418142   0.0000644699  -0.0003954297
        0.0000408341  -0.0006145245   0.0002221791   0.0001444647   0.0000715956
       -0.0002223700  -0.0006188828   0.0000367184  -0.0000288354   0.0000669896
        0.0002335171   0.0003982344   0.0001165097  -0.0000311151  -0.0001581570
       -0.0002577168  -0.0000803611  -0.0000518717  -0.0000717002  -0.0000759709
       -0.0000499602  -0.0000463480   0.0000196656   0.0000058225  -0.0000938062
       -0.0000469624  -0.0000177127  -0.0000042961   0.0000248549   0.0000509795
       -0.0000891327   0.0000543711  -0.0000083759   0.0000847895   0.0000295804
        0.0000804571   0.0001466664  -0.0001147357   0.0000829377  -0.0000853015
        0.0000310400  -0.0001203331   0.0004502618  -0.0004324680  -0.0003768144
        0.0001693579  -0.0000890844  -0.0003294565   0.0009594299   0.0000555668
       -0.0004427383   0.0000565580   0.0001744118
        0.0011382297   0.0003413316   0.0053557162   0.0066513943  -0.0467612039
        0.0332266965   0.1528455072  -0.1815472947  -0.0046704834  -0.1472566966
        0.4773791860  -0.1612324323  -0.0046102022  -0.1434273175   0.0780743593