61
 energy: -75.896633583654 gnorm: 0.000035734169 xtb: 6.7.1 (edcfbbe)
C           -4.36161716809822        3.96964918775913        0.00946489677053
C           -3.26083002035543        2.95305340229870       -0.00267478432292
C           -3.25385481633076        1.89708608718401        0.89540939174517
C           -2.23572079189882        0.95654312271627        0.90339349573600
C           -2.31191909190556       -0.16222388587021        1.90360491300833
C           -1.16268210196680        1.05755758112896        0.00130050247535
B            0.00049481841174        0.00117314563314        0.00019020721486
C            1.49739865973907        0.47897591012075       -0.00170390850162
C            2.43123022608654       -0.05847515470070       -0.90415047755264
C            2.03526182758746       -1.10770777495762       -1.90427622395492
C            3.74802278036626        0.37422313558735       -0.89667483594092
C            4.19330814049466        1.33175319054103        0.00143679554713
C            5.61688027670619        1.79935654442476       -0.01141424369254
C            3.27601319886384        1.85974806269944        0.89681539239679
C            1.94989630564214        1.45647603226420        0.90116455098284
C            1.02055471848994        2.08495889120197        1.90081281363422
C           -0.33342293007671       -1.53428143243765        0.00114323205485
C           -1.26872055879729       -2.07587799591260       -0.89839121447344
C           -1.98417887798106       -1.20936859919197       -1.89599341406836
C           -1.54948901887690       -3.43240719674482       -0.88992165519572
C           -0.93731306925459       -4.29662050536939        0.00608036894574
C           -1.25254786419101       -5.76147887000892       -0.01011974738317
C           -0.02037485714214       -3.76509022628998        0.89814875428562
C            0.29069940392856       -2.41355541790867        0.90174810055664
C            1.30178313037426       -1.92234004676325        1.89893375996518
C           -1.16793605817504        2.13471131378010       -0.90159832859475
C           -0.06122822008845        2.32034130322468       -1.90093769522492
C           -2.20669132800981        3.05240933588970       -0.89759830948025
H           -5.29101236651933        3.53125187791861        0.36646255734378
H           -4.10044409301910        4.79374312890870        0.67489575737513
H           -4.52259125083422        4.37961479486595       -0.98524655189799
H           -4.06677000353328        1.80228085219158        1.60298133025434
H           -1.35661601549829       -0.32387347745422        2.39613197801390
H           -2.58675076693542       -1.09342354006113        1.40994101815440
H           -3.06067422498198        0.05525984011901        2.66265097903144
H            2.80597715424987       -1.22039401610440       -2.66414728343731
H            1.89932487027562       -2.06905613835675       -1.41060231964172
H            1.09852652682604       -0.85810546628011       -2.39576862328864
H            4.44785606032398       -0.04942599186884       -1.60466120411436
H            5.93207641743259        2.11156535689687        0.98185360743756
H            6.28082769739375        1.01239314295311       -0.36256749953811
H            5.72259113970417        2.65329233783553       -0.68205997132858
H            3.60370408026670        2.60720199817416        1.60699640832380
H            0.40670052608928        1.33945931366516        2.39972776533970
H            1.58407207814032        2.63058283140978        2.65500803022790
H            0.34779474853450        2.78354268117864        1.40518794686002
H           -1.30145866032699       -0.52555627179363       -2.39368968847284
H           -2.74439714691353       -0.60812074644305       -1.39913571010590
H           -2.47314480027290       -1.82147390489350       -2.65118109174731
H           -2.26782470727011       -3.82932722717088       -1.59485823333343
H           -2.32555828411875       -5.92317939915487       -0.09770726874578
H           -0.77308755367855       -6.23828458770223       -0.86577187055776
H           -0.89589809114116       -6.24711938658551        0.89507474412051
H            0.46760672557928       -4.42069194984665        1.60702082781394
H            2.24501977662090       -1.69806613650890        1.40255626752739
H            0.96830708918729       -1.01281161447278        2.39174809899417
H            1.48762646912445       -2.67942632084028        2.65812803878645
H            0.84047580095259        2.67745945133414       -1.40527427806927
H           -0.34741686807570        3.04988883724210       -2.65586789677876
H            0.18833882547078        1.38696645128140       -2.39893786295311
H           -2.19405691330132        3.86845112014707       -1.60776867246995
