$hessian                                                                        
        0.6725665663   0.0218034162  -0.0535211095  -0.2063525443   0.1473008071
        0.0204473187  -0.0857214027  -0.0103550494   0.0095954060  -0.0005216120
        0.0255487294   0.0003428021   0.0006827821  -0.0351989321  -0.0012921957
       -0.0053200408  -0.0016139893   0.0012981188  -0.0000939513   0.0001890946
       -0.0002467970   0.0001524241  -0.0000628905  -0.0002189237   0.0000048477
        0.0003362638   0.0000031360  -0.0001929816  -0.0005361512   0.0001477779
        0.0000047898   0.0001228854   0.0000390297  -0.0000147081  -0.0000074320
        0.0000010026   0.0000076120   0.0000050156  -0.0000025563   0.0000066370
        0.0000142237  -0.0000185127  -0.0000400731  -0.0000520909  -0.0000273976
        0.0000356508   0.0000140102  -0.0000083265  -0.0000057102   0.0000243754
        0.0000466824   0.0002011356   0.0002029467  -0.0000138857  -0.0003564867
       -0.0001708636   0.0002122249   0.0001905628  -0.0000171544  -0.0002334838
       -0.0000033031  -0.0000237082  -0.0000042814   0.0000171211  -0.0000410075
       -0.0000139200  -0.0000137581   0.0000983069  -0.0000677764  -0.0000087830
        0.0000738056  -0.0000578088   0.0001207952  -0.0001631442   0.0000244468
       -0.0001730470   0.0001398533  -0.0002377389   0.0001841846  -0.0000350553
        0.0003055294  -0.0000142493   0.0000616619  -0.0001386936   0.0000706777
       -0.0001795700   0.0000172716  -0.0001195579  -0.0000265469   0.0000466236
        0.0003686762  -0.0002140780   0.0001800600  -0.0003199397   0.0001837702
       -0.0001908054   0.0000123140  -0.0001030541   0.0001443956  -0.0000550551
        0.0001119942   0.0000034090   0.0000505371   0.0000839160  -0.0000468003
        0.0000069237  -0.0000032671  -0.0000106611  -0.0000375039  -0.0000573902
        0.0000255646   0.0001256708   0.0000055564   0.0000052016   0.0000643075
        0.0000155625  -0.0000026512  -0.0000851383  -0.0001547759   0.0000465205
       -0.0000087281   0.0000467245  -0.0000479105   0.0000090703   0.0000003125
        0.0000033832  -0.0001022115   0.0000880339  -0.0000021041  -0.0000660173
       -0.0001762401   0.0000016978   0.0001180020   0.0001411283  -0.0000008972
        0.0001282381  -0.0001189853   0.0000002172  -0.0000761800   0.0001812709
       -0.0000036049  -0.0000888526  -0.0000852250   0.0000016818   0.0000144477
        0.0000111174  -0.0000013909  -0.0000064542  -0.0000486190   0.0000447888
       -0.0000766265   0.0001468550  -0.0000385693  -0.0000357533   0.0000526306
       -0.0000216199   0.0000661598  -0.0000085117  -0.0000005641   0.0000902474
       -0.0002591430  -0.0004560930  -0.0001386922  -0.0007332294  -0.0000012004
       -0.1076209415  -0.0909195477   0.0017998115  -0.2753928476  -0.0761602390
        0.0206650915   0.0027367489  -0.0012821076   0.0001767159   0.0010690001
        0.0001783619  -0.0001831007  -0.0000358458  -0.0000550597   0.0002639798
        0.0000191128   0.0000087735   0.0000039811  -0.0000000166   0.0000129751
       -0.0000026390  -0.0000051524   0.0000054737   0.0000025830   0.0000012487
       -0.0000052988   0.0000009725  -0.0000100415   0.0000014081   0.0000210145
       -0.0000067758   0.0000078471  -0.0000327308  -0.0000035261   0.0000255137
       -0.0000211800   0.0000004405  -0.0000172996   0.0000421962  -0.0000009079
        0.0000084880  -0.0000149776   0.0000078508   0.0000149538   0.0000042950
        0.0000370051  -0.0000035504  -0.0000506259  -0.0000021300   0.0000210942
        0.0000179679   0.0000302939   0.0000154486  -0.0000068669  -0.0000080391
        0.0000833562   0.0000517124  -0.0000378932  -0.0001016122   0.0000232576
       -0.0000348144  -0.0000124451  -0.0000073314   0.0000456310  -0.0000109186
        0.0000406578   0.0000059491  -0.0000368397  -0.0000355597   0.0000003358
        0.0000041209   0.0000022379   0.0000391358   0.0000018565   0.0000003157
       -0.0000034178   0.0000124201   0.0000009595  -0.0000014260   0.0000075220
        0.0000010068   0.0000108236   0.0000080040  -0.0000000092   0.0000139707
        0.0000063394  -0.0000005521   0.0000063750   0.0000072931  -0.0000016693
        0.0000057730  -0.0000047401  -0.0000016437   0.0000458177   0.0000027312
        0.0000010738   0.0000001707  -0.0000028226   0.0000009853   0.0000006955
        0.0000395601   0.0000516409   0.0000113233  -0.0000421123   0.0000399538
       -0.0000184937  -0.0000117075   0.0001376656   0.0038435481   0.0216345956
        0.0009527997
        0.0218034162   0.6415832832   0.0212561585   0.0651023770  -0.1916176559
       -0.0108252169   0.0605359742   0.0580141104  -0.0050020177   0.0118340050
       -0.0601587272  -0.0036116662  -0.0864333015  -0.0106540951   0.0075812130
       -0.0003551840   0.0060052476  -0.0005806078   0.0011702635  -0.0009217775
        0.0001274825   0.0003316368   0.0007998224   0.0003122121   0.0002983413
       -0.0010593098  -0.0002081787  -0.0000140072   0.0003853045   0.0000432997
       -0.0000448139  -0.0000693986  -0.0000960884   0.0000126612   0.0000538482
       -0.0000203110   0.0000210118   0.0000052841  -0.0000291445  -0.0000144633
        0.0000136278   0.0000182712  -0.0000472375  -0.0000803913  -0.0000350772
        0.0000445193   0.0000551651   0.0000130927   0.0000093514   0.0000191076
        0.0000167903   0.0001315781   0.0001816267   0.0000475447  -0.0002111996
       -0.0001134927   0.0000872909   0.0001216409  -0.0000457603  -0.0001669873
        0.0000023218  -0.0000511807   0.0000034234   0.0000044589  -0.0000165219
        0.0000407243  -0.0000186085  -0.0003441969   0.0003316997   0.0001499217
        0.0003014853  -0.0005601329   0.0006941969  -0.0004194166   0.0002433941
       -0.0006251886   0.0006652285  -0.0012567263   0.0006765824  -0.0005129191
        0.0013298925   0.0001417418   0.0003662405  -0.0008085746   0.0005486022
       -0.0004643176   0.0002167079  -0.0004592012   0.0001540533  -0.0002083869
        0.0005416140  -0.0005165416   0.0004850129  -0.0010050574   0.0004832185
       -0.0003096254  -0.0002068055  -0.0003395202   0.0008081483  -0.0004923941
        0.0004892102  -0.0001799752  -0.0000108319  -0.0000589836   0.0000314670
        0.0000741300  -0.0000179892  -0.0000140389  -0.0000389951  -0.0000830843
        0.0000110837   0.0002400927   0.0000096773  -0.0000058714  -0.0000481582
        0.0000009716  -0.0000010479  -0.0000508589  -0.0001087055   0.0000518647
       -0.0000190107   0.0000396215  -0.0000480166   0.0000240602   0.0000179668
        0.0000003606  -0.0001258694   0.0001216402  -0.0000057312  -0.0000629112
       -0.0002148613   0.0000048040   0.0001147991   0.0001774092  -0.0000048757
        0.0001347146  -0.0001634511   0.0000060289  -0.0000823379   0.0002253792
       -0.0000068114  -0.0001081692  -0.0001164502   0.0000061273   0.0000330809
       -0.0000114240   0.0000025705   0.0000025854  -0.0000289760   0.0000443409
       -0.0000497666   0.0001188168  -0.0000484007  -0.0000615218   0.0000875389
       -0.0000243417   0.0001079819   0.0000410487   0.0000277589  -0.0004358711
        0.0011832863  -0.0000783341  -0.0019935680  -0.0018599153  -0.0004475212
       -0.0142181001  -0.3249887410  -0.0108427340  -0.0770370898  -0.0681050102
        0.0058000150   0.0200688831  -0.0238517457  -0.0031375893   0.0003557364
       -0.0002922366   0.0001979738   0.0001574235  -0.0002515328  -0.0000635358
        0.0000542213   0.0000509758   0.0000769564  -0.0000104878  -0.0000056714
        0.0000071776  -0.0000013134  -0.0000189500  -0.0000076269   0.0000005580
       -0.0000075752   0.0000050421  -0.0000246258  -0.0000106170   0.0000258819
       -0.0000008795   0.0000088051  -0.0000427003  -0.0000095250   0.0000279567
       -0.0000302191  -0.0000033563  -0.0000187463   0.0000394469  -0.0000025856
       -0.0000207529   0.0000112686   0.0000011953   0.0000119513  -0.0000070779
        0.0000330222  -0.0000077495  -0.0000337638  -0.0000213493   0.0000462650
        0.0000296744   0.0000077467   0.0000320292   0.0000160186   0.0000182603
        0.0001252164   0.0001006913  -0.0000155419  -0.0001535516  -0.0000101381
       -0.0000385953  -0.0000575277  -0.0000209185   0.0000354582  -0.0000037653
        0.0000466480   0.0000017567  -0.0000511487  -0.0000719078  -0.0000048371
        0.0000079904   0.0000012187   0.0000397068   0.0000095394  -0.0000019534
       -0.0000035624   0.0000067399   0.0000018246  -0.0000104602   0.0000000744
        0.0000021151   0.0000018945   0.0000097378  -0.0000002364   0.0000045490
        0.0000052479  -0.0000003892  -0.0000066128   0.0000148061  -0.0000028592
        0.0000093749  -0.0000004732  -0.0000031933   0.0000444106  -0.0000025799
        0.0000025984  -0.0000155577  -0.0000106132  -0.0000074139   0.0000003548
        0.0000366484   0.0000476385   0.0000451203  -0.0000677242  -0.0000598756
        0.0003522658  -0.0000620968   0.0001336766  -0.0016997873  -0.0239553316
       -0.0007667920
       -0.0535211095   0.0212561585   0.1177130277   0.0173957052  -0.0197492074
       -0.0546068473   0.0124685063   0.0035424541   0.0171345488   0.0001878417
       -0.0055375167  -0.0088778089  -0.0049307897   0.0047035718  -0.0012245773
        0.0010359814  -0.0014280966   0.0082427483  -0.0003925478  -0.0008075724
       -0.0001287061   0.0004160303  -0.0001625414  -0.0002039454  -0.0001378735
        0.0000859616   0.0000115664  -0.0000024874   0.0000439751   0.0000140044
       -0.0000077921   0.0000080998   0.0000169588   0.0000050488  -0.0000130827
       -0.0000108168   0.0000078919  -0.0000041275  -0.0000023616   0.0000108918
        0.0000076037  -0.0000037781  -0.0000155924  -0.0000164769  -0.0000053067
        0.0000147686   0.0000137968  -0.0000045771   0.0000020681   0.0000088359
        0.0000131796   0.0000755705   0.0000726236  -0.0000123842  -0.0001892867
       -0.0001026376   0.0001204958   0.0000812970   0.0000130239  -0.0000855798
        0.0000007275   0.0000035923  -0.0000012463   0.0000006116   0.0000034285
       -0.0000193435  -0.0000038219   0.0000105151  -0.0000224283  -0.0000097017
       -0.0000080091   0.0000322798  -0.0000020744   0.0000126405  -0.0000033793
        0.0000123350  -0.0000116519   0.0000148342  -0.0000069865  -0.0000037665
       -0.0000020861   0.0000121537   0.0000058677  -0.0000100066   0.0000091890
        0.0000148401   0.0000025241   0.0000017875   0.0000107290  -0.0000037033
       -0.0000475605   0.0000273799  -0.0000249242   0.0000151501  -0.0000170302
        0.0000228367  -0.0000032247   0.0000076067  -0.0000090791   0.0000284419
       -0.0000153393  -0.0000011986  -0.0000174162  -0.0000085251   0.0000044018
        0.0000229764  -0.0000006866  -0.0000038976  -0.0000070967  -0.0000052778
        0.0000049124   0.0000787748   0.0000027857  -0.0000003717   0.0000068472
       -0.0000047477   0.0000003263  -0.0000408892  -0.0000489956   0.0000105082
        0.0000061261  -0.0000011058   0.0000113117   0.0000005796  -0.0000045773
        0.0000020575  -0.0000136733   0.0000133641  -0.0000026011  -0.0000090338
       -0.0000425909   0.0000101441   0.0000147668   0.0000217755  -0.0000078177
        0.0000192295  -0.0000246480   0.0000068490  -0.0000144613   0.0000412687
       -0.0000085553  -0.0000129853  -0.0000176564   0.0000041923  -0.0000005393
        0.0000013570  -0.0000020450   0.0000050969   0.0000014207  -0.0000111892
       -0.0000532418   0.0000480182  -0.0000109625  -0.0000071610   0.0000028740
       -0.0000072762   0.0000123104   0.0000095486   0.0000023383   0.0006093108
       -0.0002570053  -0.0002332213   0.0006794451   0.0014223671   0.0001605089
        0.0054011433  -0.0045445325  -0.0478671517   0.0205549107   0.0059205994
       -0.0358324841   0.0007455284  -0.0008811716   0.0027395904  -0.0000788084
       -0.0000019842   0.0000557670  -0.0001207150  -0.0001001432   0.0000351933
       -0.0000428223  -0.0000758449   0.0000269958  -0.0000013367  -0.0000019130
        0.0000034711  -0.0000000768  -0.0000019704   0.0000007130  -0.0000018315
        0.0000013055  -0.0000020140   0.0000087163   0.0000013464  -0.0000119527
       -0.0000016441  -0.0000081172   0.0000026871   0.0000005280  -0.0000054677
        0.0000107947   0.0000008172   0.0000047604  -0.0000092773   0.0000000958
       -0.0000014018   0.0000012734   0.0000039097  -0.0000000452  -0.0000023770
       -0.0000083581  -0.0000001322   0.0000098372   0.0000013528   0.0000026131
       -0.0000019645  -0.0000078703  -0.0000006916  -0.0000005429   0.0000011288
       -0.0000121857  -0.0000123876   0.0000117269   0.0000168409  -0.0000123317
        0.0000039337  -0.0000005157   0.0000000805  -0.0000169835   0.0000019468
       -0.0000066676  -0.0000035234   0.0000110200   0.0000087271   0.0000026086
       -0.0000009743  -0.0000081481  -0.0000177617   0.0000021521  -0.0000016265
        0.0000003482   0.0000017534  -0.0000002578   0.0000056695   0.0000031864
       -0.0000007073   0.0000038127  -0.0000016695   0.0000001906   0.0000030069
       -0.0000017852   0.0000004260   0.0000038997  -0.0000065114   0.0000011498
       -0.0000017788  -0.0000046664   0.0000008919  -0.0000200616  -0.0000042186
        0.0000020207   0.0000026763   0.0000000714   0.0000080580  -0.0000020776
       -0.0000118925  -0.0000097526   0.0000182605   0.0000844535   0.0000211065
       -0.0000993516   0.0000825238   0.0001368221  -0.0001391874  -0.0035913499
        0.0027093145
       -0.2063525443   0.0651023770   0.0173957052   0.6347461568   0.0096469154
       -0.0486863105  -0.3334514273  -0.0296980425   0.0256141935  -0.0158657099
       -0.1112206663  -0.0026503927  -0.0624091513   0.0210272745   0.0058098255
       -0.0008413661  -0.0000823452  -0.0004701520   0.0000338264   0.0010585058
       -0.0002860580  -0.0004237253  -0.0001291232  -0.0003088051   0.0003619453
        0.0002080777   0.0000566289  -0.0002440340  -0.0006709712   0.0001290980
       -0.0000519547   0.0001247468   0.0000503264  -0.0000397397   0.0001011007
       -0.0000611961  -0.0000816769   0.0000203889   0.0000266521  -0.0000771515
       -0.0000626949  -0.0000871657  -0.0000291244  -0.0000107405   0.0000384183
       -0.0000067328  -0.0000721990   0.0000133613  -0.0000429623  -0.0000086049
        0.0000302577  -0.0003351570  -0.0003053417   0.0000909227   0.0012152387
        0.0007665993  -0.0007240576  -0.0003261761  -0.0002082850   0.0002166557
       -0.0000435614  -0.0001279268   0.0000569552  -0.0000306247  -0.0001458611
        0.0002533780  -0.0001556886   0.0000040944  -0.0000861972   0.0000930318
        0.0000970326   0.0000095027   0.0000246060  -0.0002561255  -0.0000327074
       -0.0002003796   0.0002051176  -0.0000034427   0.0000597437  -0.0000652997
        0.0001355429   0.0000493793   0.0001046340   0.0000194768  -0.0000685764
       -0.0001663266  -0.0000490955   0.0001457338  -0.0002074663   0.0001182620
        0.0002693397  -0.0003387432   0.0000439779  -0.0001695048   0.0000053807
       -0.0000940914   0.0001129133  -0.0002319587   0.0000158058  -0.0001621487
        0.0002120536   0.0002031481   0.0000190894   0.0001118410  -0.0000659653
       -0.0000148310  -0.0000623923  -0.0000104030  -0.0000724678  -0.0002325465
        0.0000488162   0.0001069607   0.0000247320   0.0000087165  -0.0001509456
        0.0000808575  -0.0000011591   0.0001006008  -0.0000500842   0.0001121886
       -0.0001251682   0.0001174456  -0.0003522178   0.0000032277   0.0001388585
       -0.0000115958  -0.0003038051   0.0003991416   0.0000119463  -0.0001151760
       -0.0004972882  -0.0000832362   0.0003156922   0.0004834758   0.0000769182
        0.0003341015  -0.0003716516  -0.0000587452  -0.0001393615   0.0005720149
        0.0000652477  -0.0002179482  -0.0003226539  -0.0000228546   0.0000429698
       -0.0000978911   0.0000347970  -0.0000939228  -0.0000807110   0.0003458535
        0.0002839820   0.0000721033  -0.0000932307  -0.0001032496   0.0002463660
       -0.0000509525   0.0003178502   0.0000028726   0.0000615269  -0.0000405219
        0.0002502998  -0.0000795155   0.0001570480  -0.0002595348  -0.0003192308
        0.0494622859   0.0703805395  -0.0015332550  -0.0223969667   0.0154166965
        0.0026395596  -0.0461494127  -0.0348867355  -0.0006326674  -0.0003673052
       -0.0032499219   0.0012513055   0.0002346584  -0.0001330645   0.0000203126
        0.0003996549   0.0000112348   0.0003113232  -0.0000129312   0.0000070207
       -0.0000349284  -0.0000123296  -0.0000415365  -0.0000309671  -0.0000014772
       -0.0000558071   0.0000367257  -0.0001798641  -0.0000677798   0.0001954823
       -0.0000030792   0.0000889023  -0.0002665083  -0.0000425389   0.0002291636
       -0.0002168124  -0.0000063781  -0.0000933012   0.0003310565   0.0000539542
       -0.0000166197  -0.0000601976  -0.0000132750   0.0000383253  -0.0000057427
        0.0002274595  -0.0000596643  -0.0002930153  -0.0000312313  -0.0001374478
       -0.0000059964   0.0002787247  -0.0000496318   0.0000346189  -0.0000427870
        0.0002974217   0.0003401254  -0.0002990541  -0.0003277943   0.0003267192
       -0.0000594011   0.0000173463  -0.0000115264   0.0003922261   0.0000068312
        0.0003070561   0.0000660718  -0.0003464763  -0.0003714550  -0.0000675275
        0.0000564951   0.0001060241   0.0004087503   0.0000101728   0.0000129464
       -0.0000074052   0.0000017065   0.0000203480  -0.0001269258  -0.0000576255
        0.0000286650  -0.0000471567   0.0000712021   0.0000022240  -0.0000242388
        0.0000290296  -0.0000035818  -0.0000922752   0.0001593597  -0.0000313820
        0.0000554869   0.0000791165  -0.0000357807   0.0004583853   0.0000372838
       -0.0000247162  -0.0000868290  -0.0000403326  -0.0001155351   0.0000381052
        0.0003296379   0.0003424795   0.0000554375   0.0000011625   0.0000191199
        0.0004374876  -0.0000090875   0.0001484855   0.0014947798  -0.0028966539
        0.0007941629
        0.1473008071  -0.1916176559  -0.0197492074   0.0096469154   0.6718126419
        0.0201047544  -0.0838391273  -0.1081770815   0.0061543971  -0.0462051069
       -0.0263238421   0.0037550384   0.0118487622   0.0063074103  -0.0001191390
       -0.0006325203  -0.0039671156   0.0001319412  -0.0010649965   0.0013278180
       -0.0004166634  -0.0003590696  -0.0007617022  -0.0002409880  -0.0004328304
        0.0008578673   0.0005291302   0.0004448339   0.0009008533  -0.0004786789
        0.0000631321  -0.0002100114   0.0001134264   0.0000055444  -0.0001298193
       -0.0000423983   0.0000027217  -0.0001098466  -0.0000045772   0.0000871820
        0.0000456464  -0.0000030118  -0.0000047467   0.0000011431   0.0000172482
       -0.0000178153  -0.0000602592  -0.0000565627  -0.0000277714   0.0000071315
        0.0000511916   0.0003157057  -0.0000097729  -0.0003862411  -0.0008356377
       -0.0004561369   0.0005587790   0.0003611849   0.0003774859  -0.0000684516
        0.0000063393   0.0000941175  -0.0000216533  -0.0000468308   0.0002239713
       -0.0000514662  -0.0000061019   0.0002517250  -0.0004584916  -0.0003159075
       -0.0005647788   0.0010183877  -0.0014718898   0.0008891370  -0.0002924007
        0.0012409919  -0.0012757578   0.0024048894  -0.0013421085   0.0008690568
       -0.0025923764  -0.0003564684  -0.0007054774   0.0016125871  -0.0011340097
        0.0009559749  -0.0003115317   0.0010519842  -0.0003531183   0.0004319056
       -0.0013026257   0.0010307157  -0.0009830661   0.0021978253  -0.0009269172
        0.0005593446   0.0005569832   0.0006346642  -0.0016055888   0.0009547017
       -0.0009071333   0.0002038099  -0.0002195720  -0.0001727964   0.0001010568
       -0.0000277364   0.0000842310   0.0001350196   0.0000707728   0.0002775435
        0.0000129477  -0.0002770812  -0.0000077499  -0.0000111852  -0.0000075505
       -0.0000970710   0.0000067988   0.0000970175   0.0002299026  -0.0000959519
        0.0001867347  -0.0001509034   0.0001071731  -0.0000879439  -0.0001839456
        0.0000160482   0.0002961203  -0.0004732044   0.0000392684   0.0000421437
        0.0007170312  -0.0000481260  -0.0003564708  -0.0005888249   0.0000389303
       -0.0003405330   0.0005355847  -0.0000348777   0.0000614615  -0.0007300742
        0.0000517272   0.0002327731   0.0004605823  -0.0000417356  -0.0000862410
        0.0001904813  -0.0000277613   0.0002096349   0.0001675346  -0.0001123776
       -0.0000187683  -0.0001671968   0.0000773445   0.0000522939  -0.0002714031
       -0.0000231227  -0.0001565085  -0.0000729515  -0.0000710922   0.0003546913
       -0.0011066760   0.0001952526   0.0016823283   0.0008612142   0.0000804801
        0.0068957098  -0.0568167197  -0.0036677820  -0.0065393553   0.0057327114
        0.0009665640  -0.0346048173  -0.2858254384  -0.0060145444  -0.0024369252
       -0.0065498834  -0.0006489536  -0.0001343460   0.0000331495  -0.0001557561
       -0.0000820459  -0.0000480983  -0.0000410703   0.0000172996  -0.0000492588
       -0.0000184853   0.0000058298   0.0000215529   0.0000211120   0.0000327862
        0.0000301536  -0.0000323387   0.0001052683   0.0000755472  -0.0000651288
       -0.0000293701  -0.0000230365   0.0001032117  -0.0000231103  -0.0000820169
        0.0000679592  -0.0000113825   0.0000195819  -0.0000288047  -0.0000035443
       -0.0000604164   0.0000278267   0.0000284750  -0.0000525642   0.0000101077
       -0.0000453690   0.0000231491   0.0000527139   0.0000758049  -0.0001279942
       -0.0000715674   0.0000206759  -0.0000329738  -0.0000721629  -0.0000620922
       -0.0002537055  -0.0002411866  -0.0000028708   0.0003299153   0.0000545082
        0.0000328761   0.0001415116   0.0000474778  -0.0001442633   0.0000064147
       -0.0000062505  -0.0000491684   0.0000600941   0.0000487151   0.0000459019
       -0.0000323305  -0.0000171219  -0.0001079933  -0.0000045819   0.0000039270
       -0.0000050202   0.0000350681  -0.0000111997   0.0000612736   0.0000416480
       -0.0000080747   0.0000457825  -0.0000251336   0.0000004709   0.0000329542
       -0.0000079836  -0.0000006025   0.0000605045  -0.0000829578   0.0000097862
       -0.0000182798  -0.0000975792   0.0000222883  -0.0001486167  -0.0000036960
        0.0000011121   0.0000295718   0.0000320220  -0.0000058734  -0.0000404514
       -0.0000693612  -0.0000973811  -0.0001071749   0.0000161892   0.0000214640
       -0.0000278777  -0.0000423879   0.0001928438  -0.0012642566  -0.0058428331
       -0.0006079577
        0.0204473187  -0.0108252169  -0.0546068473  -0.0486863105   0.0201047544
        0.1339494987   0.0240789450  -0.0005521198  -0.0584915819  -0.0004751592
        0.0108524944   0.0040029023   0.0062208692  -0.0017022690  -0.0099358849
        0.0001208592  -0.0000039994  -0.0005332281  -0.0000170360  -0.0000298473
        0.0001008092   0.0000351529   0.0000641120   0.0000309821  -0.0001060046
       -0.0000139748  -0.0000032530   0.0000403109   0.0001152289   0.0000139790
        0.0000118873  -0.0000131038  -0.0000030008   0.0000039166  -0.0000279063
       -0.0000082230   0.0000237504  -0.0000106521  -0.0000170675   0.0000286329
        0.0000254161  -0.0000031144  -0.0000273182  -0.0000367702  -0.0000158602
        0.0000342702   0.0000278236  -0.0000172194   0.0000043981   0.0000253880
        0.0000339029   0.0001979087   0.0001792068  -0.0000422310  -0.0005012575
       -0.0002729920   0.0003093245   0.0001998428   0.0000425795  -0.0001988402
       -0.0000016652   0.0000045518   0.0000039573   0.0000057371   0.0000212372
       -0.0000545270  -0.0000141939   0.0000523800  -0.0001158824  -0.0000594135
       -0.0000310410   0.0000904760  -0.0000382361   0.0000267630   0.0000010048
        0.0000525098  -0.0000460320   0.0000611466  -0.0000251256   0.0000197527
       -0.0000309626   0.0000045350  -0.0000127652   0.0000130569  -0.0000187941
        0.0000340757  -0.0000061693   0.0000236588   0.0000034592   0.0000338882
       -0.0000993915   0.0000700476  -0.0000595863   0.0000687207  -0.0000247381
        0.0000225084   0.0000159033   0.0000269432  -0.0000421775   0.0001101198
       -0.0000565768  -0.0000164134  -0.0000348460  -0.0000275966   0.0000088445
        0.0000516532   0.0000123401  -0.0000000696  -0.0000105656   0.0000072048
        0.0000152402   0.0001982370   0.0000060090  -0.0000006005   0.0000443255
       -0.0000176012  -0.0000025423  -0.0001217859  -0.0001413875   0.0000252962
        0.0000314504  -0.0000082624   0.0000381140  -0.0000060514  -0.0000291121
        0.0000053474  -0.0000217728   0.0000035580  -0.0000070606  -0.0000270144
       -0.0000739256   0.0000252937   0.0000242690   0.0000218286  -0.0000207590
        0.0000373244  -0.0000330782   0.0000171438  -0.0000399894   0.0000692588
       -0.0000228370  -0.0000230976  -0.0000169031   0.0000091147  -0.0000079975
        0.0000173346  -0.0000083524   0.0000250187   0.0000099374  -0.0000414376
       -0.0001629228   0.0001384854  -0.0000230260  -0.0000179805  -0.0000090028
       -0.0000226620   0.0000091292   0.0000113147  -0.0000022180  -0.0000311095
       -0.0000259448  -0.0000113925   0.0001322360  -0.0000041370   0.0001376283
       -0.0049778692  -0.0097616705   0.0019470039   0.0019287707  -0.0012490095
       -0.0003046724  -0.0002308244  -0.0060812614  -0.0352710460   0.0011192172
       -0.0003915376   0.0099563899  -0.0000728697  -0.0000001597  -0.0000420997
       -0.0000481487   0.0000006127  -0.0000390909   0.0000009025  -0.0000014107
        0.0000048289  -0.0000003004   0.0000044239   0.0000061607  -0.0000016590
        0.0000073619  -0.0000062508   0.0000308937   0.0000109748  -0.0000334769
       -0.0000039684  -0.0000188588   0.0000212492   0.0000044189  -0.0000215964
        0.0000361141   0.0000024538   0.0000122466  -0.0000366164  -0.0000081438
       -0.0000052692   0.0000121197   0.0000138644   0.0000001171  -0.0000001173
       -0.0000229732   0.0000080308   0.0000254951   0.0000079421   0.0000161810
       -0.0000001373  -0.0000233453   0.0000040036  -0.0000083546  -0.0000005880
       -0.0000316757  -0.0000437297   0.0000281839   0.0000439071  -0.0000367792
       -0.0000002270   0.0000042250   0.0000006971  -0.0000556665  -0.0000004628
       -0.0000210202  -0.0000125708   0.0000359341   0.0000333811   0.0000133608
       -0.0000091262  -0.0000246408  -0.0000591380   0.0000058356  -0.0000039436
        0.0000007897   0.0000087264  -0.0000025393   0.0000235147   0.0000151132
       -0.0000040315   0.0000164034  -0.0000072856   0.0000000392   0.0000134128
       -0.0000047233   0.0000012311   0.0000188732  -0.0000270906   0.0000053671
       -0.0000074496  -0.0000195880   0.0000063613  -0.0000670985  -0.0000144550
        0.0000089499   0.0000117607   0.0000042845   0.0000246045  -0.0000089680
       -0.0000407033  -0.0000343604  -0.0000253147  -0.0000115821  -0.0000048720
       -0.0001071356   0.0000143342  -0.0000480047   0.0007916448  -0.0004453753
        0.0092913587
       -0.0857214027   0.0605359742   0.0124685063  -0.3334514273  -0.0838391273
        0.0240789450   0.5277526396   0.1248480149  -0.0388527456  -0.1035069941
       -0.0213182543   0.0038359516   0.0531855268  -0.0014892328  -0.0028662425
       -0.0009406258   0.0044614791   0.0017221510  -0.0000966627  -0.0005754503
       -0.0002001831   0.0007165070   0.0000661799   0.0002923632  -0.0007421642
       -0.0007081364   0.0004707989   0.0009191519   0.0029773614  -0.0007095767
        0.0001063479  -0.0006089642  -0.0000785402   0.0000859804  -0.0002264561
       -0.0000071406   0.0001131799  -0.0001636978  -0.0000806089   0.0001616686
        0.0001267530   0.0001527102   0.0000402887  -0.0000066185  -0.0000328329
       -0.0000133993   0.0000558196  -0.0000575515   0.0000359667   0.0000103929
       -0.0000181936   0.0006072206   0.0002413854  -0.0004901388  -0.0020872936
       -0.0013139205   0.0012590627   0.0006448612   0.0006713241  -0.0001432142
        0.0000680791   0.0002389683  -0.0000954882  -0.0000247433   0.0004714918
       -0.0003096865   0.0001734811  -0.0002120743  -0.0000740552  -0.0003377110
       -0.0004783183   0.0006156569  -0.0011194475   0.0010113533  -0.0000330518
        0.0011486747  -0.0011337473   0.0016401817  -0.0010561022   0.0005399063
       -0.0019271800  -0.0002844961  -0.0006051754   0.0010794998  -0.0006820202
        0.0009615195  -0.0000993144   0.0007306260   0.0001061863   0.0000104402
       -0.0016951072   0.0011615974  -0.0007185298   0.0019754353  -0.0006869034
        0.0005723773   0.0003225502   0.0007330656  -0.0011405750   0.0008294943
       -0.0008676746  -0.0002263305  -0.0003909563  -0.0005035486   0.0002865081
        0.0000980695   0.0001676619   0.0001891518   0.0001697979   0.0005919866
       -0.0000533083  -0.0002782496  -0.0000267857  -0.0000326832   0.0000421902
       -0.0002551940   0.0000089440   0.0000319930   0.0003933950  -0.0002435293
        0.0003646297  -0.0003657224   0.0005483912  -0.0001164411  -0.0003581950
        0.0000279486   0.0007168669  -0.0010119313   0.0000274389   0.0002141198
        0.0014104354   0.0000452385  -0.0008459828  -0.0012581622  -0.0000487583
       -0.0008065832   0.0010505214   0.0000350370   0.0002401859  -0.0015132987
       -0.0000196776   0.0005387470   0.0008973779  -0.0000162675  -0.0001557463
        0.0003409462  -0.0000736082   0.0004136021   0.0003459017  -0.0005516358
       -0.0003767645  -0.0002805330   0.0001913434   0.0001571314  -0.0005987250
        0.0000237940  -0.0004914755  -0.0000265007  -0.0001254023   0.0002121504
       -0.0003054965   0.0001379385  -0.0003993735  -0.0001780791  -0.0004065205
       -0.0285361970  -0.0424542955   0.0005602914  -0.0051573699   0.0054616660
        0.0015557364  -0.0110803408  -0.0119825948   0.0005766518  -0.0107393269
       -0.0331886541  -0.0011063914  -0.0002261221   0.0000727776   0.0000256560
       -0.0004889776  -0.0000753913  -0.0003215324   0.0000273059  -0.0000837693