92
 energy: -140.950083229978 gnorm: 0.000042348497 xtb: 6.7.1 (edcfbbe)
C           -4.40485494855188       -7.66133776467342       -0.19797048059258
C           -3.38014253471123       -8.59454913324558       -0.25286880177912
N           -2.10138958232364       -8.25976885468287       -0.28294950020207
C           -1.78825462836735       -6.97953929397730       -0.25198557738008
C           -2.72787354127994       -5.94865556667444       -0.18517895880528
C           -2.31431572600221       -4.54185550937340       -0.14713705552223
C           -3.00259663768831       -3.57720781204750       -0.87963720247113
C           -2.60571600114828       -2.25495128919909       -0.84564340970363
C           -1.51788669316070       -1.84798212568433       -0.07972948360802
Si          -0.97964483035468       -0.03458960988619        0.00035381224365
C           -1.67387895070168        0.77792743137811        1.56330848358990
C           -1.75287981176441        2.16478698941952        1.66279275453572
C           -2.24121747815503        2.77496921028951        2.80059698364941
C           -2.67741183332210        2.01025805062810        3.88085872297531
C           -3.20695946654191        2.65407705740469        5.08784441860803
C           -2.62243698378407        3.80011671143969        5.62482728721168
C           -3.16400895296628        4.36621155068388        6.76509357955299
C           -4.27574122235620        3.76482709263396        7.33625149789205
N           -4.84609705678310        2.68198127317817        6.83588036815795
C           -4.32862614951984        2.14738119317336        5.74758414985010
C           -2.60760928431563        0.62202960152178        3.78622392375027
C           -2.11019898911437        0.02138202469679        2.64656564766668
C           -1.63814454279105        0.90344213736883       -1.50693628039576
C           -0.83547537684805        1.16933655011433       -2.61180671766155
C           -1.33334879066812        1.83364764334971       -3.71538376800263
C           -2.66238369480503        2.24980135478500       -3.75117256906547
C           -3.19911181701139        2.94457792918007       -4.92628131712750
C           -2.46155667410163        3.91101977747814       -5.60855861581129
C           -3.01793599152327        4.53445622550275       -6.71116443031487
C           -4.30023800187307        4.17272405235116       -7.09682470139487
N           -5.01022345538924        3.25336229079502       -6.46524862436493
C           -4.47507938141206        2.65944537998133       -5.41698998394286
C           -3.47240123561676        1.98917712218683       -2.64744577053359
C           -2.96315219843634        1.33121992393508       -1.54603771149577
C            0.91245448043466        0.01927603074151        0.02670948180577
C            1.65060241300482       -0.81544424223250       -0.80891694587577
C            3.03048175022724       -0.78288935678019       -0.82192398663487
C            3.71270097934123        0.08870695170828        0.02319251643641
N            5.11220332074550        0.12445451617335        0.02115656295235
C            5.89082534983667        1.26103405271525       -0.07709345710207
C            5.50714273968377        2.58384312666196       -0.24516549251711
C            6.50281482622013        3.53666076404827       -0.34485732732093
C            7.85077743480282        3.18951501468630       -0.28906825238286
C            8.23888846284519        1.87228584739043       -0.14779494733455
C            7.25637530210916        0.89640679898701       -0.04548372371658
C            7.29420808088124       -0.53332463268116        0.08463709291990
C            8.32733935940655       -1.45574297569918        0.18489291399084
C            8.00981035144275       -2.79173785999333        0.32573210723400
C            6.68221585459177       -3.20990474601509        0.38312001336482
C            5.63725100699039       -2.31115964077819        0.28578267573580
C            5.94995854390283       -0.96973361691589        0.11828691142566
C            2.98924917650654        0.92221532030729        0.87183592984061
C            1.60880840590907        0.88604883500572        0.86304148941139
C           -0.83422821597249       -2.81816557283363        0.64923537004103
C           -1.21959173973923       -4.14315544147453        0.61756947480603
C           -4.07163138163243       -6.31908912736720       -0.16227519330923
H           -5.43647441692816       -7.97761065715392       -0.17663527436110
H           -3.58656517901899       -9.65639458040559       -0.27390725480834
H           -0.72969473594804       -6.75756757496205       -0.29976746022065
H           -3.83996080521501       -3.87207621805399       -1.49605092125014
H           -3.14531469870137       -1.52235694726673       -1.42880668812780
H           -1.43131236529467        2.77307210489292        0.82872655891509
H           -2.30845018103896        3.85275049658015        2.84762169660505
H           -1.74299085040965        4.22688342615911        5.16322778578001
H           -2.72969533191923        5.25062099562049        7.20551693845668
H           -4.73278770900494        4.16300949130117        8.23242538100556
H           -4.84407824399531        1.27496834878480        5.36642290390760
H           -2.92776854733906        0.01483985073840        4.62068332218723
H           -2.06137847005483       -1.05682042434808        2.59159024611519
H            0.19756075491207        0.85194911256493       -2.60348797310637
H           -0.69448031560869        2.01386879262954       -4.56834322418041
H           -1.47334749884148        4.18161625630635       -5.26388684546079
H           -2.47199045556971        5.28944035034508       -7.25588755942890
H           -4.78392751760558        4.63556700868842       -7.94676193431594
H           -5.08838681523043        1.90031308883436       -4.94830174051348
H           -4.49961294451563        2.32457694071901       -2.64938560623946
H           -3.60195682046516        1.14891762028961       -0.69298896174335
H            1.13096316086079       -1.50147647953047       -1.46295240081419
H            3.58815612000577       -1.41895002832173       -1.49349699190172
H            4.46564675524671        2.86143101213809       -0.30820117611709
H            6.22952696039416        4.57384006890275       -0.47266796716698
H            8.59881896470760        3.96433993652115       -0.36755271428477
H            9.28340992505497        1.60076809721861       -0.12146642917539
H            9.35592004031492       -1.12905125134341        0.15725325161977
H            8.79798032389684       -3.52584296356502        0.40256155194491
H            6.46445311535498       -4.26014352846752        0.51018727032331
H            4.61225090593468       -2.64409307385951        0.35011145997650
H            3.51630783533016        1.58176666829887        1.54546626145071
H            1.05755296835397        1.53414449067476        1.52911383238966
H            0.01681826400202       -2.52555301728553        1.24849664227996
H           -0.68408905649137       -4.87603233704907        1.20390995406651
H           -4.84096717334432       -5.56254073630235       -0.09661281708812
