51
 energy: -72.376277685899 gnorm: 0.000169320152 xtb: 6.7.1 (edcfbbe)
C            5.04716052700746        0.38091326407112        0.52320509731447
C            3.74390471288241       -0.31391916506463        0.74437846226578
C            3.72451762302601       -1.57953556192752        1.39247975954279
C            2.54591958627868       -2.22566515269567        1.60876257025308
C            1.32330578665330       -1.64829139391567        1.19885917112287
C            1.32479045930294       -0.37142695180843        0.53823612729280
C            2.53990463535578        0.24438024865003        0.32776742950685
C            0.03233608719474        0.21171274231831        0.03007016847619
C            0.03858750671013        1.68370698648818        0.39644646258730
C            0.55167724377670        2.65697740414638       -0.45580476637351
C            0.58822671991589        3.98431548643629       -0.06534484164364
C            0.12432744014692        4.35980247275016        1.18279950857372
C           -0.36982805180169        3.39340726910917        2.04534370615921
C           -0.40928036324236        2.06840683153547        1.65546290610868
C           -0.11369142361120       -0.06368722914869       -1.46659094741694
C            0.48066374890171       -1.18610478497815       -2.04499220291499
C            0.30310537042934       -1.47002217447795       -3.38332410133670
C           -0.47291675852139       -0.64261997432527       -4.18271331414018
C           -1.07335253003580        0.47125505294556       -3.61641692667231
C           -0.90497293258744        0.75504786158039       -2.27653800697030
C           -1.19243631060914       -0.49348837158474        0.54213267295072
C           -2.47116871908056        0.02494738117849        0.39125346815807
C           -3.60542545199484       -0.68511518754507        0.72549146370419
C           -4.97271560551806       -0.10563663895720        0.57925209966323
C           -3.46951518923949       -2.02412695816236        1.23235942518118
C           -2.23234263653474       -2.56085419506678        1.42073311108053
C           -1.07495239281733       -1.82308379874773        1.11574298904492
N            0.15540197520553       -2.30542462780870        1.40802696505042
H            5.55487963985696        0.55414688284146        1.47324927993934
H            5.70801074032584       -0.23142159136376       -0.09246237504133
H            4.89948011020686        1.33763444132990        0.02889426387425
H            4.65771084975055       -2.02010166345562        1.70907552814376
H            2.52284445267656       -3.19067218557152        2.09783450116052
H            2.56247694109657        1.19954484017566       -0.17508780040230
H            0.91881522008978        2.37945504922659       -1.43344861893134
H            0.98402569290696        4.72848860262256       -0.74184197946614
H            0.15078653003734        5.39651968716427        1.48451768160436
H           -0.72530121719081        3.67445873939790        3.02611910534977
H           -0.79448208111892        1.31932149360331        2.33274154404318
H            1.09902923739467       -1.83785803943637       -1.44515020928184
H            0.77766441048613       -2.34227947531157       -3.80990254458684
H           -0.60862059624651       -0.86456192135023       -5.23046709947516
H           -1.68330274489483        1.12361932010945       -4.22516923273791
H           -1.38894445424022        1.62413587531061       -1.85777060284054
H           -2.58111047549830        1.02774265977728        0.00464368251904
H           -5.57184578483379       -0.71348497155257       -0.10053879461165
H           -5.48745066185177       -0.09124117601985        1.54148346349869
H           -4.92838219520506        0.90917483161838        0.19219191795756
H           -4.35955410384034       -2.58527640695718        1.46858342817424
H           -2.11762997586604       -3.55977981315101        1.82180119370571
H            0.20701898354583       -3.21929117147521        1.84427583341903
