$hessian                                                                        
        0.4824358797  -0.0259190899   0.0118470781  -0.1752801110  -0.0684561315
       -0.0106595343  -0.0044974680  -0.0073087104  -0.0000506837   0.0010797298
       -0.0002209487  -0.0016453784   0.0002334255  -0.0002861910  -0.0000992387
       -0.0016326464   0.0027569401  -0.0027318403  -0.0314491268  -0.0111349489
       -0.0049028589  -0.0009042539  -0.0005707499  -0.0000254116   0.0000940593
       -0.0002010851   0.0000145796  -0.0000014279  -0.0000140768   0.0000245790
        0.0000038543   0.0000080540   0.0000342226   0.0000106296  -0.0000076161
       -0.0000189925   0.0000039102  -0.0000417124  -0.0000679716   0.0000194650
        0.0000206998   0.0000260175  -0.0000150368   0.0000441614   0.0000891792
        0.0000948594  -0.0000019612  -0.0000261979  -0.0000567181   0.0000078230
        0.0000343173  -0.0000278596   0.0000100985   0.0000030051   0.0000238605
       -0.0000142604  -0.0000562878   0.0000142308  -0.0000041195  -0.0000381336
       -0.0002164399   0.0002722200  -0.0001334528  -0.0000947601  -0.0000698647
        0.0000069678  -0.0000209610  -0.0000116179   0.0000175486   0.0000278086
       -0.0000307506   0.0000146534   0.0000006514   0.0000237587  -0.0000373039
       -0.0001357170   0.0000136589   0.0000247112   0.0002818216  -0.0002257495
        0.0001241647  -0.0007001651  -0.0001115866   0.0001504379  -0.1380544433
        0.0718713537  -0.0948155431  -0.0814937758  -0.0063115626   0.0867903505
       -0.0509209510   0.0452214603   0.0142668204   0.0008346857   0.0015908877
        0.0007298750  -0.0000540768   0.0001225874  -0.0000399112   0.0006585260
       -0.0011330722   0.0011556106  -0.0000115831  -0.0000101841   0.0000326172
       -0.0000101376   0.0000225420  -0.0000161012  -0.0000135598   0.0000441438
        0.0000067619  -0.0000155535   0.0000172548   0.0000274624  -0.0000058741
       -0.0000045995  -0.0001026039  -0.0001491019   0.0000149040   0.0000423270
        0.0000164809  -0.0000078181  -0.0000200836  -0.0000092456  -0.0000010754
       -0.0000339163  -0.0000169662  -0.0000029671  -0.0000091225   0.0000289788
       -0.0000026788   0.0000072197   0.0000087324  -0.0000148206  -0.0000003892
       -0.0000071434   0.0000142828  -0.0000091669  -0.0000187329   0.0000119738
        0.0000079933  -0.0000017904   0.0000167174   0.0000033556  -0.0000334366
       -0.0000190698  -0.0000023969   0.0000001899   0.0000013520   0.0000002529
       -0.0000227158   0.0000321452   0.0000604124
       -0.0259190899   0.5095462510  -0.0063658006  -0.0672678969  -0.1065302731
       -0.0040566034  -0.0261289741  -0.0215021878  -0.0006278806   0.0003870884
       -0.0041141831   0.0027826456   0.0002809659  -0.0001535937   0.0000014276
        0.0022007099  -0.0003967145   0.0016679896   0.0068225970   0.0055158256
       -0.0002663942   0.0005335591   0.0002490244   0.0001976058  -0.0000354298
        0.0001295666   0.0000126032  -0.0000083398   0.0000021918   0.0000139144
       -0.0000042766   0.0000012264   0.0000215234  -0.0000098519  -0.0000243127
       -0.0000069178  -0.0000135737  -0.0000122887  -0.0000239148  -0.0000084093
        0.0000002131   0.0000186235   0.0000719181  -0.0000430053  -0.0000127174
       -0.0000072224  -0.0000070218  -0.0000219348  -0.0000138508   0.0000087132
        0.0000081815   0.0000037207   0.0000056629   0.0000143519   0.0000145405
        0.0000026392  -0.0000097683  -0.0000210575   0.0000087023   0.0000134346
        0.0000068508   0.0000187518   0.0000780966  -0.0000042761   0.0000228175
       -0.0000035851   0.0000103847   0.0000311380  -0.0000184543   0.0000228112
       -0.0000108845  -0.0000053949   0.0000603735  -0.0000399047  -0.0000167437
       -0.0002067781  -0.0000092185   0.0000279338   0.0004249445  -0.0002796714
       -0.0000152609  -0.0007895215   0.0000040269  -0.0002416585   0.0723959341
       -0.0975147035   0.0688532815  -0.0053609163  -0.0419801136   0.0160354479
        0.0438126725  -0.2439426586  -0.0768768422  -0.0012231335   0.0008753430
       -0.0010028075  -0.0013188481  -0.0008911500  -0.0000453960   0.0012207061
        0.0009410060  -0.0000421096   0.0000015644   0.0000006276  -0.0000120716
        0.0000030696   0.0000048431  -0.0000100053   0.0000033613   0.0000052306
       -0.0000008697   0.0000053408  -0.0000062020  -0.0000076342  -0.0000021558
        0.0000071980  -0.0000174946  -0.0000159422  -0.0000236359  -0.0000263766
        0.0000094724  -0.0000056207  -0.0000056405  -0.0000027066  -0.0000007330
       -0.0000103478  -0.0000044994   0.0000008607   0.0000050062   0.0000121108
       -0.0000005921   0.0000018858  -0.0000066510   0.0000088867   0.0000056486
       -0.0000103009   0.0000097052  -0.0000070695  -0.0000059548   0.0000080245
        0.0000033385  -0.0000052919   0.0000124912   0.0000037355  -0.0000164569
       -0.0000052281   0.0000040905   0.0000127353   0.0000119131  -0.0000046960
        0.0000939743   0.0000610170  -0.0000083758
        0.0118470781  -0.0063658006   0.4929136340  -0.0147761797  -0.0066204603
       -0.0600117385   0.0039316175   0.0032573385   0.0010635385  -0.0012610842
        0.0021518027   0.0056345959  -0.0004445353  -0.0003052853   0.0001886623
       -0.0027233878   0.0023360699   0.0050192673  -0.0099114536  -0.0044817926
       -0.0008107183  -0.0006064116  -0.0001025580   0.0000010177  -0.0000068390
       -0.0000586129  -0.0000190264   0.0000072390   0.0000158502   0.0000059568
        0.0000010802  -0.0000160168  -0.0000028267  -0.0000027655  -0.0000107375
        0.0000128093   0.0000014291   0.0000244934  -0.0000107386   0.0000244816
       -0.0000312432  -0.0000142103   0.0000657799  -0.0000507891   0.0000821385
        0.0000179303   0.0000002442   0.0000211097  -0.0000064493   0.0000084999
       -0.0000046469  -0.0000062227  -0.0000032523  -0.0000126528  -0.0000001546
        0.0000030951  -0.0000117516   0.0000045370  -0.0000018305   0.0000130764
        0.0001003065   0.0000143318  -0.0001906556  -0.0001365723   0.0000467312
        0.0001758733   0.0000583667   0.0001084809  -0.0000173355  -0.0000065175
       -0.0000064980  -0.0000286760   0.0000528869  -0.0000841665   0.0000435915
        0.0000046390  -0.0000399870   0.0000234993  -0.0000152897   0.0000730059
       -0.0002388794   0.0006199465   0.0000196844  -0.0007465511  -0.0945351136
        0.0689710765  -0.1353899261   0.0915634845   0.0189734109  -0.2320836685
        0.0143513395  -0.0768217291  -0.0721119083   0.0010441447  -0.0000854749
       -0.0017992883   0.0001521675   0.0002196270   0.0002154816   0.0005927083
       -0.0010983890  -0.0018354484  -0.0000021254  -0.0000008534   0.0000072835
        0.0000008159  -0.0000009930   0.0000048317   0.0000011802  -0.0000080225
        0.0000016889  -0.0000020089   0.0000032513  -0.0000044700  -0.0000146027
        0.0000014708  -0.0000124585  -0.0000060736   0.0000123384   0.0000829621
       -0.0000034639  -0.0000019226  -0.0000062855  -0.0000030715  -0.0000010960
        0.0000030311   0.0000051860   0.0000007198   0.0000031540   0.0000026050
        0.0000001295  -0.0000030726   0.0000083694  -0.0000135015   0.0000039229
       -0.0000020524   0.0000004206   0.0000044401   0.0000110041  -0.0000027196
       -0.0000066340   0.0000024102  -0.0000084248  -0.0000010191   0.0000164805
        0.0000000057  -0.0000033160  -0.0000061894   0.0000009101  -0.0000004199
       -0.0000106499  -0.0000208319  -0.0001472434
       -0.1752801110  -0.0672678969  -0.0147761797   0.6067606382   0.0204110739
        0.1084111840  -0.0895358044  -0.0447788419   0.0005661031   0.0226043879
       -0.0236209518   0.0114778517  -0.0109969857   0.0271827371  -0.0076856954
       -0.0628294525  -0.0273489313  -0.0094261701  -0.2426090214   0.1200312544
       -0.0772457071  -0.0012753844  -0.0027179134  -0.0021013064   0.0002294390
       -0.0002229665   0.0001589252   0.0000800349   0.0000493229  -0.0001273058
       -0.0000179501  -0.0000533976  -0.0001031752  -0.0000174488  -0.0000191956
        0.0000950699   0.0000045467   0.0001135876   0.0001005337   0.0002457389
        0.0000007254  -0.0000715084  -0.0011612606   0.0006022505  -0.0007051024
       -0.0001298040   0.0000109127   0.0004786992   0.0002261545  -0.0000812602
        0.0000501127   0.0000658279   0.0000229469   0.0000490627  -0.0001179234
       -0.0000442457   0.0000158976   0.0000829369   0.0000244951  -0.0002790445
       -0.0005593687  -0.0005384466   0.0001594962  -0.0000300956   0.0000733601
        0.0003355398  -0.0000055704   0.0000146846   0.0000846196  -0.0000182122
       -0.0000083298  -0.0000677269  -0.0000853205   0.0000893138  -0.0000135836
        0.0003877911   0.0000232795   0.0000130244  -0.0004249484   0.0006201285
        0.0000134133   0.0001813406  -0.0018041816  -0.0003169091  -0.0232303463
       -0.0077816075  -0.0039278075  -0.0186346929  -0.0115683133   0.0045652077
        0.0022726207  -0.0035012213   0.0001768186  -0.0023175206   0.0244162043
       -0.0067422998  -0.0036889444  -0.0039548477  -0.0020587410  -0.0004599636
        0.0017996034  -0.0006170347  -0.0000205829  -0.0000162530   0.0000439654
       -0.0000035037  -0.0000484880   0.0000359613  -0.0000029594  -0.0000651278
        0.0000042397   0.0000059348  -0.0000201367  -0.0000284721  -0.0000994356
       -0.0000709100   0.0001013817   0.0001122472  -0.0000604053  -0.0007629916
        0.0000083890   0.0000143903   0.0000291883   0.0000329011   0.0000245835
        0.0000295177   0.0000151912  -0.0000147179  -0.0000171643   0.0001057898
       -0.0000095517   0.0000194464  -0.0000194212  -0.0000636099   0.0000117982
        0.0000132944   0.0000129357   0.0000174340   0.0000279879   0.0000001358
       -0.0000224138   0.0000025493  -0.0000174895  -0.0000005958   0.0000229436
       -0.0000023556  -0.0000335659  -0.0000073244   0.0000335537   0.0000201005
        0.0000906715   0.0001301144   0.0000659085
       -0.0684561315  -0.1065302731  -0.0066204603   0.0204110739   0.6269771848
       -0.1085586280   0.0308459115  -0.3063680784   0.0647471048  -0.0784627646
       -0.0389594819  -0.0097418951   0.0271048821  -0.0442304057   0.0164714287
        0.0265180146   0.0533990611  -0.0072222880   0.0458367463  -0.1356829923
        0.0327365436  -0.0040263394  -0.0007181794   0.0022019499   0.0003958866
       -0.0000126207  -0.0000642306   0.0000287226  -0.0000315492  -0.0001578558
        0.0000005575   0.0001393095  -0.0000329245   0.0000036534   0.0000837303
       -0.0000084648  -0.0000223973   0.0000603302   0.0001189362   0.0000386826
       -0.0000732299   0.0001842643   0.0011138411  -0.0008680522   0.0004978311
       -0.0000456838  -0.0000439894  -0.0002660839  -0.0000362753   0.0000278896
       -0.0002265231   0.0000169804  -0.0000256510  -0.0000622017   0.0000695049
        0.0000892714   0.0000003832  -0.0001890239  -0.0000200971   0.0003770731
       -0.0009176632   0.0005368184  -0.0006000361  -0.0003941536  -0.0001002885
       -0.0003152527  -0.0000254183   0.0000664042  -0.0000578186   0.0000152077
        0.0000319402   0.0001195520  -0.0000392379   0.0000427981  -0.0000147628
        0.0001010260   0.0000379202   0.0000530478  -0.0002957613   0.0003647856
        0.0002719683  -0.0000798930   0.0013206078  -0.0010973306   0.0097155147
        0.0068841695   0.0008415291  -0.0079314840  -0.0030562243   0.0031102808
       -0.0248883831  -0.0207068531  -0.0021133932   0.0027264064  -0.0158556992
        0.0041953129  -0.0030592209   0.0002628092   0.0013643589   0.0233664029
       -0.0176924415   0.0100886923   0.0000164277   0.0000069934  -0.0000346411
        0.0000119255  -0.0000559257   0.0000176855   0.0000074814  -0.0000646314
       -0.0000187375   0.0000038330  -0.0000576979  -0.0000738759  -0.0000037678
        0.0000779858   0.0000025778   0.0001582737   0.0001896886  -0.0000028298
       -0.0000516243   0.0000120266   0.0000785327   0.0000029257  -0.0000080980
        0.0000659130   0.0000515266   0.0000312481   0.0000896314  -0.0000083568
       -0.0000066874  -0.0000071757  -0.0000013340   0.0000061561  -0.0000108963
        0.0000390701  -0.0000169606   0.0000082536  -0.0000033057   0.0000114786
       -0.0000096007  -0.0000103282  -0.0000054382   0.0000003759   0.0000215365
        0.0000249803  -0.0000265856   0.0000620897   0.0000689609  -0.0000743964
        0.0002644431   0.0004369979  -0.0002243380
       -0.0106595343  -0.0040566034  -0.0600117385   0.1084111840  -0.1085586280
        0.1935972777  -0.0176535250   0.0465752835  -0.0626874217   0.0238868962
        0.0035159344   0.0055057450  -0.0073368415   0.0169485095  -0.0112494133
       -0.0230768220  -0.0211309369  -0.0012767650  -0.0580367699   0.0516347819
       -0.0752181400  -0.0016514399   0.0012060683   0.0058334078  -0.0002796850
        0.0000937961   0.0000103253   0.0000521282   0.0001260446   0.0000053367
        0.0000096110  -0.0000640375  -0.0000434583  -0.0000159420  -0.0000408015
        0.0000548199   0.0000163239   0.0000140170  -0.0000331622   0.0001241428
       -0.0000313356  -0.0000835774   0.0009503626  -0.0001934542   0.0005400841
        0.0001678437  -0.0000422632  -0.0000055689   0.0000253695  -0.0000268884
       -0.0000032674   0.0000265322   0.0000049990   0.0000096110   0.0000594564
        0.0000313047   0.0000435253  -0.0000040846   0.0000167144   0.0002200704
       -0.0009878196   0.0001134031  -0.0000846468  -0.0000466199  -0.0001454128
        0.0001391616  -0.0000730667  -0.0000502463   0.0001186842  -0.0000252880
       -0.0000184839  -0.0000219109  -0.0000307340   0.0000893524  -0.0000289072
        0.0000737101   0.0000241023   0.0000311160   0.0001447830  -0.0000113105
       -0.0000114403  -0.0006247860  -0.0010638571  -0.0001049337  -0.0170746676
       -0.0085943012  -0.0016212091   0.0225624538   0.0137261373   0.0026224630
       -0.0089057371  -0.0058388163  -0.0001414205  -0.0014267554   0.0098154413
       -0.0016998979  -0.0019558889   0.0009171277   0.0070728480  -0.0062732870
        0.0051065330  -0.0012396354  -0.0000098383   0.0000013072   0.0000035422
       -0.0000044100   0.0000097009  -0.0000018497  -0.0000075990   0.0000093930
        0.0000022084   0.0000039358   0.0000088722   0.0000149821  -0.0000128280
       -0.0000281494   0.0000053167  -0.0003209401  -0.0000216528  -0.0004503477
        0.0000094491  -0.0000014795  -0.0000221868   0.0000050335   0.0000027545
       -0.0000082170   0.0000002302   0.0000038318   0.0000126772   0.0000374074
       -0.0000164895   0.0000154784  -0.0000079914  -0.0000228752  -0.0000077786
       -0.0000128942   0.0000103044  -0.0000017362  -0.0000047424   0.0000039643
        0.0000019992   0.0000037138   0.0000017688   0.0000014780  -0.0000135497
       -0.0000135444  -0.0000109206  -0.0000121640  -0.0000070527   0.0000219571
       -0.0000243155  -0.0000328276   0.0001854357
       -0.0044974680  -0.0261289741   0.0039316175  -0.0895358044   0.0308459115
       -0.0176535250   0.6466809971   0.0275947246   0.1223350111  -0.2741780377
       -0.1473259530  -0.0211387953  -0.0624819577   0.0246817641  -0.0210752096
       -0.0130891047  -0.0272757264   0.0051128925   0.0259978687   0.0237893539
        0.0009130938  -0.0006141730   0.0000037728  -0.0013603126  -0.0000956170
       -0.0002549755   0.0001660855  -0.0000304238  -0.0000175030   0.0000073298
        0.0000071856  -0.0000626581  -0.0000070835  -0.0000050749  -0.0000204758
        0.0000266341   0.0000095205  -0.0000105557  -0.0000933093   0.0000254071
        0.0000245845  -0.0001223587  -0.0004434962   0.0004930886   0.0002313444
       -0.0002048963  -0.0001072063   0.0000420979   0.0000816893  -0.0000471768
        0.0000597520  -0.0000191663   0.0000336978   0.0000034120  -0.0000686645
       -0.0000546593  -0.0000040387   0.0001822442   0.0000122580  -0.0002303289
        0.0005482100  -0.0001282974   0.0000962979   0.0001624626   0.0001087943
        0.0003383566  -0.0000864783   0.0000251401   0.0000410736   0.0000153460
       -0.0000427821  -0.0000623125  -0.0001209491  -0.0000480105   0.0001867994
        0.0002016004  -0.0000336473  -0.0000287233  -0.0020692836  -0.0000487973
       -0.0010171175  -0.0008568488   0.0018892329  -0.0008026709   0.0006994389
       -0.0018789332   0.0008344982  -0.0010968365  -0.0016471257   0.0000766596
       -0.0032470415  -0.0027642248  -0.0002280658  -0.2168373775   0.0987416148
       -0.0672278996  -0.0015674963  -0.0028186675  -0.0001267512  -0.0034046573
        0.0024432305  -0.0031789209   0.0000022495  -0.0000295711   0.0000771401
        0.0000042268   0.0000063246  -0.0000237535   0.0000025875   0.0000536717
        0.0000341866   0.0000138062   0.0000028608   0.0000502972  -0.0000145502
        0.0000004861  -0.0000665291  -0.0000218068   0.0001546877   0.0000140851
        0.0000573490   0.0000086099  -0.0000246985   0.0000246956   0.0000258132
       -0.0000511279  -0.0000396797  -0.0000202683  -0.0000398247   0.0000652923
        0.0000124756   0.0000301682   0.0000418138  -0.0000886438   0.0000304173
        0.0000245080   0.0000065940   0.0000241172   0.0000064115  -0.0000141824
       -0.0000315955   0.0000095276  -0.0000245243  -0.0000039522  -0.0000132797
       -0.0000178880  -0.0000237770  -0.0000356086  -0.0000213130   0.0000116519
       -0.0001886599  -0.0000259513  -0.0000523379
       -0.0073087104  -0.0215021878   0.0032573385  -0.0447788419  -0.3063680784
        0.0465752835   0.0275947246   0.6278580368  -0.1109053787  -0.0771140834
       -0.1547093225   0.0087593114  -0.0268958467   0.0547562961  -0.0208857309
       -0.0291585145  -0.0449702432   0.0027480124   0.0767871286  -0.0308334490
        0.0271784314   0.0001366632  -0.0001034828  -0.0014015340  -0.0000597022
       -0.0003135611   0.0001338272   0.0000393135   0.0001897765  -0.0000452743
        0.0000130249  -0.0000910337  -0.0000190325  -0.0000110497  -0.0000609993
        0.0000622087   0.0000183174   0.0000795921  -0.0000743433   0.0000641846
       -0.0000076307   0.0000039683  -0.0007470627   0.0006432706  -0.0001624150
        0.0001691792   0.0000212533   0.0002108738  -0.0000211128  -0.0000500233
        0.0001054559  -0.0000168969   0.0000247215   0.0000452959  -0.0000603350
       -0.0000688682   0.0000234918   0.0001347935  -0.0000064892  -0.0003165086
        0.0004104605   0.0000502621   0.0002015584   0.0002861182   0.0000829281
        0.0003650682  -0.0000827436   0.0000418497   0.0001061735  -0.0000174094
       -0.0000279586  -0.0001045626   0.0000498975  -0.0001903873  -0.0000279279
        0.0000140936  -0.0002093570  -0.0001575777   0.0005387420   0.0001658874
       -0.0000133568   0.0036324000  -0.0020033153   0.0036091509   0.0019762612
        0.0008052479   0.0007049610   0.0010071077  -0.0006057169  -0.0004744714
       -0.0018153566  -0.0016042480  -0.0001338193   0.0984356813  -0.1004465333
        0.0390526082  -0.0254338369  -0.0191409887  -0.0017623977   0.0020932875
       -0.0005291409   0.0028483508   0.0000211174  -0.0000384268  -0.0000265909
        0.0000041492   0.0000335958  -0.0000415251   0.0000069538   0.0000576840
        0.0000182723   0.0000266476   0.0000082237   0.0000489101   0.0000751115
       -0.0000702843   0.0000075741   0.0000760047  -0.0000637944   0.0002485514
        0.0000440798   0.0000143291  -0.0000246613  -0.0000065853   0.0000182663
       -0.0000677376  -0.0000607374  -0.0000176101  -0.0000740542  -0.0000229031
        0.0000134011   0.0000145951  -0.0000178512  -0.0000286038   0.0000080696
       -0.0000185542  -0.0000013992   0.0000110722   0.0000061203  -0.0000305373
       -0.0000080359   0.0000097378  -0.0000113062  -0.0000043734   0.0000014715
       -0.0000046822   0.0000267662  -0.0000441989  -0.0000821839   0.0000931610
        0.0000195600  -0.0006727786   0.0002629673
       -0.0000506837  -0.0006278806   0.0010635385   0.0005661031   0.0647471048
       -0.0626874217   0.1223350111  -0.1109053787   0.1678116449  -0.0382592484
       -0.0084799082  -0.0490860799  -0.0085804119  -0.0081046085  -0.0016114070
        0.0048087379   0.0034444754  -0.0031048805  -0.0124601268   0.0133995960
       -0.0052886055  -0.0002110642   0.0000048866   0.0000187184  -0.0000461811
        0.0000915484  -0.0000145842  -0.0000193817  -0.0000503503   0.0000188339
       -0.0000091849   0.0000238880   0.0000372003   0.0000004821  -0.0000090455
       -0.0000308105  -0.0000187659  -0.0000352199  -0.0000094862  -0.0000570016
        0.0000993592  -0.0000476964   0.0000377615  -0.0000862261   0.0000499266
       -0.0000066978  -0.0000153025   0.0000416367   0.0000161389   0.0000137819
       -0.0000028169  -0.0000016866   0.0000093830   0.0000214720   0.0000144108
        0.0000021265  -0.0000246383   0.0000126392   0.0000016791   0.0000188511
        0.0001888637  -0.0001909411  -0.0000865897  -0.0001433439   0.0000295531
       -0.0000703037   0.0000069948  -0.0000285879  -0.0000275294   0.0000436149
       -0.0000035780   0.0000422052  -0.0001890588  -0.0000275471  -0.0000438321
       -0.0000926570   0.0002641251  -0.0000594590  -0.0018647489   0.0001289004
        0.0010621874  -0.0003823917   0.0029427984   0.0039086973  -0.0000788621
       -0.0007282055   0.0002764751   0.0003665000  -0.0002144382   0.0001994846
       -0.0011739354  -0.0012100023   0.0001357943  -0.0671938556   0.0391038599
       -0.0589525233   0.0058013633   0.0038761218   0.0002780579  -0.0032284904
        0.0024841699   0.0058720902   0.0000004183  -0.0000075153   0.0000343927
       -0.0000006694  -0.0000098946   0.0000050400   0.0000014560  -0.0000020079
        0.0000062192  -0.0000025569   0.0000013833   0.0000047930  -0.0000324911
        0.0000210291  -0.0000066816  -0.0000546831   0.0000248202  -0.0000442511
       -0.0000065649  -0.0000021093   0.0000180287   0.0000013581  -0.0000004489
        0.0000018432  -0.0000037530  -0.0000002408   0.0000091335   0.0000053190
        0.0000026685  -0.0000050826   0.0000224477  -0.0000242453   0.0000058837
        0.0000368773  -0.0000071460   0.0000111585   0.0000000449  -0.0000024171
       -0.0000096246   0.0000013421  -0.0000019775  -0.0000038902  -0.0000266781
        0.0000121779   0.0000003447   0.0000079627   0.0000186679   0.0000045475
       -0.0000806724   0.0000271186   0.0002599955
        0.0010797298   0.0003870884  -0.0012610842   0.0226043879  -0.0784627646
        0.0238868962  -0.2741780377  -0.0771140834  -0.0382592484   0.6390153183
        0.0448319244   0.1152296615  -0.2318106109   0.0540160238  -0.0559661695
        0.0236711016   0.0682448885  -0.0109408079  -0.0572246702  -0.0001877906
       -0.0138504866   0.0019100101  -0.0016095282   0.0013625783   0.0004571315
        0.0005211594  -0.0001031637  -0.0000419418  -0.0001900215   0.0000535540
       -0.0000644403   0.0001073609   0.0000509196   0.0000208129   0.0000181457
       -0.0000738786  -0.0000333108  -0.0000436691   0.0001057163  -0.0000475453
       -0.0000687251   0.0000520069   0.0005025299  -0.0006872095  -0.0005407902
       -0.0000968453  -0.0000519664  -0.0002006905  -0.0000773598   0.0000249734
       -0.0001856632   0.0000680519  -0.0000394763  -0.0000122241   0.0001058226
        0.0000895970   0.0000558547  -0.0003153795   0.0000415168   0.0003539408
       -0.0011881817  -0.0004530987   0.0003115599  -0.0002945626  -0.0001081049
       -0.0003096242   0.0004091013  -0.0000444211  -0.0001079369  -0.0001697533
        0.0001274697   0.0000360425   0.0001967888  -0.0000079668   0.0000868637
       -0.0019821672   0.0011202224   0.0005588203   0.0002075035  -0.0046770015
       -0.0006001834  -0.0522117751   0.0074691501  -0.0153392491  -0.0001101125
        0.0002283430  -0.0003053006  -0.0007824396   0.0000740364   0.0000415154
       -0.0006574671  -0.0002862987   0.0003242408  -0.0256667473  -0.0113575587
       -0.0033281659  -0.0441181191  -0.0053723216  -0.0003405168  -0.0005215485
        0.0002074381  -0.0005652232  -0.0000176392   0.0000451944  -0.0000296304
       -0.0000045270  -0.0000159162   0.0000361887   0.0000036335  -0.0000599086
       -0.0000368740  -0.0000267591   0.0000016020  -0.0000647038  -0.0000700796
        0.0001161388   0.0000126355   0.0001774351  -0.0000166813  -0.0002193432
       -0.0000328186  -0.0000201820   0.0000111161   0.0000107607  -0.0000295996
        0.0000803783   0.0000909738   0.0000242573   0.0000791933   0.0000723011
       -0.0000541398   0.0000125470  -0.0000972895   0.0001517747  -0.0000578578
       -0.0000940709   0.0000112916  -0.0000392987  -0.0000232818   0.0000358053
        0.0000544392  -0.0000317198   0.0000616679   0.0000175992  -0.0001497487
        0.0000873410   0.0000341537   0.0001801619   0.0002362949  -0.0002225953
        0.0013573938   0.0026777282   0.0001122882
       -0.0002209487  -0.0041141831   0.0021518027  -0.0236209518  -0.0389594819
        0.0035159344  -0.1473259530  -0.1547093225  -0.0084799082   0.0448319244
        0.6335638274  -0.1166510345   0.1221890167  -0.1423357253   0.0510941436
        0.0224759713  -0.0255998270   0.0124253239  -0.0039598726   0.0022181158
       -0.0024894790  -0.0007554903  -0.0043014614   0.0020755453   0.0007812939
       -0.0004317318   0.0004403051  -0.0000265164  -0.0001443154  -0.0000476758
       -0.0000812500  -0.0000569096   0.0000217954   0.0000003366  -0.0000193177
        0.0000097494  -0.0000465587   0.0000324375   0.0000195305  -0.0000165222
       -0.0000343964   0.0000616091   0.0003046999  -0.0001030676  -0.0001947490
        0.0001438570   0.0001389012  -0.0000314068  -0.0000501782   0.0000284185
        0.0000286984  -0.0000172604  -0.0000159997   0.0000210264   0.0000356950
        0.0000090482  -0.0000100009  -0.0000143999   0.0000427308   0.0000548965
       -0.0004392270   0.0005472684  -0.0002063646   0.0000756602  -0.0001187650
        0.0001107273  -0.0000219248   0.0000441203   0.0000207042  -0.0000195838
       -0.0000114681  -0.0000352263   0.0000352580  -0.0002134372   0.0002619202
       -0.0011250183   0.0004001141   0.0002496106  -0.0013338186  -0.0025784090
       -0.0011872472  -0.0148625280   0.0104857346  -0.0026760434   0.0004231041
        0.0000773387   0.0000968945  -0.0005850479  -0.0004956261  -0.0001268964
       -0.0008790444  -0.0004556901   0.0001698592   0.0112988163   0.0062233071
        0.0014331125  -0.0048563028  -0.2814256729   0.0592418384  -0.0001375990
        0.0008293373  -0.0002369122   0.0000248574   0.0000071764  -0.0000773282
        0.0000020561  -0.0000047239   0.0000006871   0.0000122710  -0.0000099937
       -0.0000150429  -0.0000081572   0.0000040227  -0.0000071107   0.0000642305
       -0.0000405145   0.0000560154   0.0000018177  -0.0001635539   0.0001583135
       -0.0000206113   0.0000050023   0.0000031365  -0.0000235708  -0.0000118528
       -0.0000035446  -0.0000051213   0.0000032172  -0.0000023237  -0.0000701336
       -0.0000021332  -0.0000050178  -0.0000453079   0.0000582629  -0.0000045930
       -0.0000291574   0.0000053953  -0.0000197747   0.0000026204   0.0000069260
        0.0000166729   0.0000034791   0.0000082151   0.0000006192  -0.0000717413
        0.0000250350   0.0000152527  -0.0000366869  -0.0000294954  -0.0000327127
       -0.0020004812   0.0016231226  -0.0012153325
       -0.0016453784   0.0027826456   0.0056345959   0.0114778517  -0.0097418951
        0.0055057450  -0.0211387953   0.0087593114  -0.0490860799   0.1152296615
       -0.1166510345   0.1617813200  -0.0739754674   0.0338821442  -0.0722292774
        0.0008149177   0.0244401699  -0.0060626594  -0.0128274008  -0.0014659034
       -0.0061834208  -0.0011952870   0.0026866794   0.0051219240  -0.0007185662
        0.0004293961  -0.0003589174  -0.0000316609   0.0000639721   0.0000614527
        0.0000609750   0.0000424704   0.0000058462   0.0000002665   0.0000282809
       -0.0000398730   0.0000233431  -0.0000760352   0.0000418774   0.0000147983
        0.0001973946  -0.0000989021   0.0010809025  -0.0005544932   0.0002616754
        0.0000902202  -0.0000241786  -0.0000035340   0.0000109182   0.0000096349
       -0.0000381277   0.0000250019  -0.0000104020  -0.0000052197   0.0000700629
        0.0000657800   0.0000345628  -0.0000216444   0.0000219542   0.0003712489
       -0.0003925238   0.0005101652  -0.0001398363  -0.0000546916  -0.0001062852
       -0.0001068873  -0.0000115302   0.0000648107   0.0000288343  -0.0000278261
        0.0000175721   0.0000248067   0.0000274000  -0.0001583278  -0.0000608128
       -0.0005116130   0.0002262211   0.0003898579   0.0017740016  -0.0010739776
        0.0011006639  -0.0079942538   0.0007714579   0.0010568610   0.0002309048
       -0.0000127494  -0.0000034573  -0.0013146262  -0.0008677001   0.0001901729
        0.0009096717   0.0008464355   0.0002114717  -0.0089867979  -0.0041824250
       -0.0009363339  -0.0015824944   0.0593826159  -0.0457009856  -0.0000964126
       -0.0001864628  -0.0001953972  -0.0000188701  -0.0000032438   0.0000396901
        0.0000036329   0.0000078886   0.0000152137  -0.0000069740  -0.0000135878
        0.0000057487  -0.0000074886   0.0000143640   0.0000057861  -0.0000485674
        0.0000367541   0.0000404980  -0.0000522864  -0.0000012439  -0.0001021168
       -0.0000217693  -0.0000024354   0.0000117242  -0.0000058944  -0.0000101306
        0.0000158700   0.0000143965   0.0000108867   0.0000373213  -0.0000056867
       -0.0000144156  -0.0000025801   0.0000108248  -0.0000086124  -0.0000168919
       -0.0000052519  -0.0000023740   0.0000015290  -0.0000161792  -0.0000010831
        0.0000090018  -0.0000040413   0.0000058751  -0.0000010885  -0.0000369191
        0.0000123095  -0.0000311946   0.0000345332   0.0000264262  -0.0000290768
        0.0008526133  -0.0001746197  -0.0005726290
        0.0002334255   0.0002809659  -0.0004445353  -0.0109969857   0.0271048821