 Entering Gaussian System
 *********************************************
 Gaussian 98:
 frequency output generated by the xtb code
 *********************************************
                         Standard orientation:
 --------------------------------------------------------------------
  Center     Atomic     Atomic              Coordinates (Angstroms)
  Number     Number      Type              X           Y           Z
 --------------------------------------------------------------------
    1          6             0        5.007952   -0.187049   -0.071335
    2          6             0        3.690809   -0.902507   -0.044476
    3          6             0        3.617610   -2.287755   -0.013232
    4          6             0        2.392759   -2.922725    0.006875
    5          6             0        1.209823   -2.186471    0.004186
    6          6             0        1.263458   -0.789955   -0.013229
    7          6             0        2.505758   -0.178242   -0.043715
    8          6             0       -0.000015    0.061757    0.000053
    9          6             0        0.078652    0.890480    1.276143
   10          6             0       -0.421262    0.363022    2.461336
   11          6             0       -0.307122    1.056935    3.652146
   12          6             0        0.319561    2.290288    3.682492
   13          6             0        0.836248    2.817466    2.512318
   14          6             0        0.721119    2.122614    1.321225
   15          6             0       -0.078627    0.891079   -1.275638
   16          6             0       -0.720690    2.123444   -1.320093
   17          6             0       -0.835781    2.818831   -2.510879
   18          6             0       -0.319461    2.291969   -3.681357
   19          6             0        0.306806    1.058388   -3.651635
   20          6             0        0.420906    0.363940   -2.461135
   21          6             0       -1.263500   -0.789944    0.012988
   22          6             0       -2.505810   -0.178222    0.042832
   23          6             0       -3.690861   -0.902488    0.043469
   24          6             0       -5.008010   -0.187016    0.069701
   25          6             0       -3.617653   -2.287747    0.012749
   26          6             0       -2.392796   -2.922724   -0.006759
   27          6             0       -1.209860   -2.186469   -0.003934
   28          7             0       -0.000020   -2.839893    0.000446
   29          1             0        5.145435    0.386604    0.845167
   30          1             0        5.830982   -0.891202   -0.164060
   31          1             0        5.047828    0.508988   -0.908133
   32          1             0        4.523344   -2.876816   -0.010225
   33          1             0        2.338940   -4.002643    0.021362
   34          1             0        2.559931    0.899142   -0.073827
   35          1             0       -0.908196   -0.601398    2.453046
   36          1             0       -0.707392    0.630022    4.560389
   37          1             0        0.408453    2.834616    4.611200
   38          1             0        1.334122    3.776551    2.524296
   39          1             0        1.129872    2.556213    0.420220
   40          1             0       -1.129181    2.556779   -0.418839
   41          1             0       -1.333358    3.778076   -2.522382
   42          1             0       -0.408312    2.836721   -4.609820
   43          1             0        0.706809    0.631736   -4.560118
   44          1             0        0.907520   -0.600647   -2.453312
   45          1             0       -2.559994    0.899174    0.072515
   46          1             0       -5.831094   -0.891162    0.161993
   47          1             0       -5.048289    0.508977    0.906519
   48          1             0       -5.145031    0.386691   -0.846835
   49          1             0       -4.523386   -2.876809    0.009666
   50          1             0       -2.338972   -4.002646   -0.020865
   51          1             0       -0.000020   -3.847968    0.000504
 --------------------------------------------------------------------
     1 basis functions        1 primitive gaussians
     1 alpha electrons        1 beta electrons
 
 Harmonic frequencies (cm**-1), IR intensities (km*mol⁻¹),
 Raman scattering activities (A**4/amu), Raman depolarization ratios,
 reduced masses (AMU), force constants (mDyne/A) and normal coordinates:
                      1                      2                      3
                        a                      a                      a 
 Frequencies --   -16.0480                20.1087                20.3629
 Red. masses --    10.4158                 1.1191                 1.1328
 Frc consts  --     0.0000                 0.0000                 0.0000
 IR Inten    --     0.0183                 0.2277                 0.5025
 Raman Activ --     0.0000                 0.0000                 0.0000
 Depolar     --     0.0000                 0.0000                 0.0000
 Atom AN      X      Y      Z        X      Y      Z        X      Y      Z
   1   6     0.01  -0.02   0.36    -0.01   0.01  -0.07     0.01  -0.01   0.05
   2   6     0.00  -0.02   0.18     0.00  -0.00   0.02    -0.00   0.00  -0.02
   3   6    -0.01  -0.02  -0.03     0.00  -0.00   0.02     0.00   0.00  -0.01
   4   6    -0.01  -0.02  -0.20    -0.00  -0.00   0.01     0.00   0.00   0.00
   5   6    -0.01  -0.01  -0.18     0.00  -0.00   0.00     0.00   0.00   0.01
   6   6     0.00  -0.01   0.02     0.00  -0.00   0.00     0.00   0.00   0.00
   7   6     0.01  -0.01   0.20    -0.00  -0.00   0.01     0.00   0.00  -0.01
   8   6     0.01  -0.00   0.01     0.00  -0.00   0.00    -0.00  -0.00  -0.00
   9   6     0.00   0.03  -0.02    -0.00  -0.00   0.00    -0.00   0.00  -0.01
  10   6     0.08   0.02   0.01    -0.00  -0.00   0.00    -0.00   0.01  -0.00
  11   6     0.08   0.05  -0.01    -0.00  -0.00   0.00    -0.01   0.01  -0.01
  12   6    -0.00   0.09  -0.05    -0.00  -0.00   0.00    -0.01   0.02  -0.01
  13   6    -0.08   0.10  -0.08    -0.00  -0.00   0.00    -0.00   0.01  -0.01
  14   6    -0.07   0.08  -0.06    -0.00  -0.00   0.00    -0.00   0.00  -0.01
  15   6     0.00  -0.03  -0.02     0.00  -0.00   0.00    -0.00  -0.01  -0.01
  16   6    -0.07  -0.08  -0.06     0.00  -0.00   0.00    -0.00  -0.00  -0.01
  17   6    -0.08  -0.10  -0.08     0.00  -0.00   0.00    -0.00  -0.01  -0.01
  18   6    -0.00  -0.09  -0.05     0.00   0.00   0.00    -0.00  -0.02  -0.01
  19   6     0.08  -0.05  -0.01     0.00   0.00   0.00    -0.00  -0.02  -0.01
  20   6     0.08  -0.02   0.01     0.00  -0.00   0.00    -0.00  -0.01  -0.00
  21   6     0.00   0.01   0.02    -0.00  -0.00  -0.00     0.00  -0.00   0.00
  22   6     0.01   0.01   0.20     0.00  -0.00  -0.01     0.00  -0.00  -0.01
  23   6     0.00   0.02   0.18    -0.00  -0.00  -0.02    -0.00  -0.00  -0.02
  24   6     0.01   0.02   0.36     0.01   0.01   0.05     0.01   0.01   0.06
  25   6    -0.01   0.02  -0.03    -0.00  -0.00  -0.02     0.00  -0.00  -0.01
  26   6    -0.01   0.02  -0.20     0.00  -0.00  -0.01     0.00  -0.00   0.00
  27   6    -0.01   0.01  -0.18    -0.00  -0.00  -0.00     0.00  -0.00   0.01
  28   7    -0.01  -0.00  -0.39    -0.00  -0.00  -0.00     0.00  -0.00   0.02
  29   1    -0.03  -0.00   0.11    -0.19   0.38  -0.23     0.14  -0.29   0.17
  30   1     0.01  -0.01   0.14     0.02  -0.02   0.41    -0.02   0.02  -0.32
  31   1     0.04  -0.01   0.10     0.15  -0.33  -0.29    -0.11   0.26   0.23
  32   1    -0.00  -0.01  -0.02    -0.00  -0.00   0.01     0.00   0.00  -0.00
  33   1    -0.01  -0.01  -0.10    -0.00  -0.00   0.01     0.00   0.00   0.00
  34   1     0.01  -0.00   0.11     0.00  -0.00   0.00    -0.00   0.00  -0.01
  35   1     0.04  -0.00   0.01    -0.00  -0.00  -0.00    -0.00   0.00  -0.00
  36   1     0.04   0.01   0.00    -0.00  -0.00   0.00    -0.00   0.01  -0.00
  37   1    -0.00   0.03  -0.02    -0.00  -0.00   0.00    -0.00   0.01  -0.00
  38   1    -0.04   0.04  -0.03    -0.00  -0.00   0.00    -0.00   0.00  -0.00
  39   1    -0.04   0.02  -0.02    -0.00  -0.00   0.00     0.00   0.00  -0.00
  40   1    -0.04  -0.02  -0.02     0.00  -0.00   0.00     0.00  -0.00  -0.00
  41   1    -0.04  -0.04  -0.03     0.00   0.00   0.00    -0.00  -0.00  -0.00
  42   1    -0.00  -0.03  -0.02     0.00   0.00   0.00    -0.00  -0.01  -0.00
  43   1     0.04  -0.01   0.00     0.00   0.00   0.00    -0.00  -0.01  -0.00
  44   1     0.04   0.00   0.01     0.00  -0.00   0.00    -0.00  -0.00  -0.00
  45   1     0.01   0.00   0.11    -0.00  -0.00  -0.00    -0.00  -0.00  -0.01
  46   1     0.01   0.01   0.14    -0.02  -0.02  -0.32    -0.02  -0.02  -0.41
  47   1     0.04   0.01   0.10    -0.11  -0.26   0.23    -0.15  -0.33   0.29
  48   1    -0.03   0.00   0.11     0.14   0.29   0.18     0.19   0.38   0.23
  49   1    -0.00   0.01  -0.02    -0.00  -0.00  -0.01     0.00  -0.00  -0.01
  50   1    -0.01   0.01  -0.10    -0.00  -0.00  -0.01     0.00  -0.00  -0.00
  51   1    -0.01  -0.00  -0.13    -0.00  -0.00  -0.00     0.00  -0.00   0.00
                      4                      5                      6
                        a                      a                      a 
 Frequencies --    43.2896                49.1997                59.1361
 Red. masses --    10.5687                10.4255                10.5052
 Frc consts  --     0.0000                 0.0000                 0.0000
 IR Inten    --     0.0018                 0.0984                 0.0075
 Raman Activ --     0.0000                 0.0000                 0.0000
 Depolar     --     0.0000                 0.0000                 0.0000
 Atom AN      X      Y      Z        X      Y      Z        X      Y      Z
   1   6    -0.00  -0.04  -0.24     0.08  -0.08  -0.11    -0.01   0.12  -0.08
   2   6    -0.00  -0.04  -0.16     0.07  -0.06  -0.07    -0.01   0.10  -0.05
   3   6    -0.00  -0.04  -0.20     0.05  -0.06  -0.18     0.00   0.10  -0.08
   4   6    -0.00  -0.04  -0.14     0.04  -0.04  -0.16     0.01   0.08  -0.06
   5   6    -0.00  -0.04  -0.05     0.05  -0.01  -0.04     0.00   0.07  -0.01
   6   6    -0.00  -0.04  -0.01     0.07  -0.01   0.07    -0.00   0.07   0.01
   7   6    -0.00  -0.04  -0.05     0.08  -0.04   0.05    -0.01   0.09   0.00
   8   6     0.00  -0.03   0.00     0.08   0.00   0.12    -0.00   0.06   0.00
   9   6    -0.05  -0.02  -0.01     0.04   0.02   0.10    -0.04  -0.00   0.04
  10   6    -0.15   0.04  -0.02    -0.14   0.12   0.07     0.05  -0.17   0.01
  11   6    -0.28   0.10  -0.05    -0.27   0.20   0.04     0.03  -0.29   0.08
  12   6    -0.31   0.12  -0.05    -0.22   0.17   0.05    -0.10  -0.23   0.18
  13   6    -0.19   0.06  -0.03    -0.02   0.06   0.08    -0.18  -0.06   0.22
  14   6    -0.06  -0.01  -0.00     0.10  -0.01   0.11    -0.14   0.05   0.15
  15   6     0.05  -0.02   0.01     0.04  -0.02   0.10     0.04  -0.00  -0.04
  16   6     0.06  -0.01   0.00     0.10   0.01   0.11     0.14   0.05  -0.15
  17   6     0.19   0.06   0.03    -0.02  -0.06   0.08     0.18  -0.06  -0.22
  18   6     0.31   0.12   0.05    -0.22  -0.17   0.04     0.10  -0.23  -0.18
  19   6     0.28   0.10   0.05    -0.27  -0.20   0.04    -0.03  -0.29  -0.08
  20   6     0.15   0.04   0.02    -0.14  -0.12   0.07    -0.05  -0.17  -0.01
  21   6     0.00  -0.04   0.01     0.07   0.01   0.07     0.00   0.07  -0.01
  22   6     0.00  -0.04   0.05     0.08   0.04   0.05     0.01   0.09  -0.00
  23   6     0.00  -0.04   0.15     0.07   0.06  -0.07     0.01   0.10   0.05
  24   6     0.00  -0.04   0.24     0.08   0.08  -0.11     0.01   0.12   0.08
  25   6     0.00  -0.04   0.20     0.05   0.06  -0.18    -0.00   0.10   0.08
  26   6     0.00  -0.04   0.14     0.04   0.04  -0.16    -0.01   0.08   0.06
  27   6     0.00  -0.04   0.05     0.05   0.01  -0.04    -0.00   0.07   0.01
  28   7     0.00  -0.04  -0.00     0.05   0.00  -0.05    -0.00   0.08   0.00
  29   1     0.02  -0.01  -0.07     0.03  -0.02  -0.03     0.00   0.03  -0.02
  30   1    -0.00  -0.01  -0.09     0.02  -0.03  -0.03    -0.00   0.04  -0.03
  31   1    -0.02  -0.01  -0.07     0.02  -0.03  -0.03    -0.01   0.04  -0.02
  32   1    -0.00  -0.01  -0.08     0.01  -0.02  -0.08     0.00   0.03  -0.04
  33   1    -0.00  -0.01  -0.05     0.01  -0.01  -0.07     0.01   0.02  -0.02
  34   1    -0.00  -0.01  -0.01     0.03  -0.01   0.04    -0.01   0.03   0.01
  35   1    -0.04   0.01  -0.00    -0.05   0.04   0.02     0.04  -0.06  -0.02
  36   1    -0.11   0.04  -0.02    -0.12   0.08   0.00     0.03  -0.12   0.01
  37   1    -0.12   0.05  -0.02    -0.09   0.07   0.01    -0.03  -0.09   0.07
  38   1    -0.06   0.02  -0.01     0.01   0.01   0.02    -0.08  -0.00   0.09
  39   1     0.01  -0.01   0.00     0.07  -0.02   0.04    -0.05   0.05   0.05
  40   1    -0.01  -0.01  -0.00     0.07   0.02   0.04     0.05   0.05  -0.05
  41   1     0.06   0.02   0.01     0.01  -0.01   0.02     0.08  -0.00  -0.09
  42   1     0.12   0.05   0.02    -0.09  -0.07   0.01     0.03  -0.09  -0.07
  43   1     0.11   0.04   0.02    -0.12  -0.08   0.00    -0.03  -0.12  -0.01
  44   1     0.04   0.01   0.00    -0.06  -0.04   0.02    -0.04  -0.06   0.02
  45   1     0.00  -0.01   0.01     0.03   0.01   0.04     0.01   0.03  -0.01
  46   1     0.00  -0.01   0.09     0.02   0.03  -0.03     0.00   0.04   0.03
  47   1     0.02  -0.01   0.07     0.02   0.03  -0.04     0.01   0.04   0.02
  48   1    -0.02  -0.01   0.07     0.03   0.02  -0.04    -0.00   0.03   0.02
  49   1     0.00  -0.01   0.08     0.01   0.02  -0.08    -0.00   0.03   0.04
  50   1     0.00  -0.01   0.05     0.01   0.01  -0.07    -0.01   0.02   0.02
  51   1     0.00  -0.01  -0.00     0.01   0.00  -0.04     0.00   0.02   0.00
                      7                      8                      9
                        a                      a                      a 
 Frequencies --    65.1244                73.3335                86.0520
 Red. masses --    10.2177                10.0787                 9.6549
 Frc consts  --     0.0000                 0.0000                 0.0000
 IR Inten    --     0.2989                 0.0291                 0.0037
 Raman Activ --     0.0000                 0.0000                 0.0000
 Depolar     --     0.0000                 0.0000                 0.0000
 Atom AN      X      Y      Z        X      Y      Z        X      Y      Z
   1   6     0.07  -0.04   0.24    -0.10   0.17   0.07    -0.01  -0.00  -0.34
   2   6     0.06  -0.03   0.11    -0.07   0.11   0.02    -0.00   0.01  -0.04
   3   6     0.04  -0.03   0.22    -0.02   0.11  -0.04     0.00   0.01   0.30
   4   6     0.04  -0.01   0.13    -0.00   0.07  -0.08     0.00   0.01   0.39
   5   6     0.04  -0.00  -0.03    -0.03   0.03  -0.04     0.00   0.00   0.15
   6   6     0.05  -0.00  -0.13    -0.07   0.04   0.02    -0.00   0.00   0.01
   7   6     0.06  -0.02  -0.08    -0.09   0.07   0.04    -0.01   0.00  -0.12
   8   6     0.05   0.00  -0.13    -0.10  -0.00   0.03     0.00  -0.00   0.00
   9   6     0.02  -0.05  -0.10    -0.07   0.03   0.01     0.01  -0.01   0.00
  10   6    -0.15  -0.03  -0.16    -0.19   0.15   0.01     0.00  -0.01  -0.00
  11   6    -0.25  -0.05  -0.14    -0.05   0.14   0.01    -0.02  -0.01  -0.00
  12   6    -0.16  -0.10  -0.05     0.24  -0.00   0.01    -0.04   0.00  -0.00
  13   6     0.03  -0.13   0.02     0.32  -0.11  -0.00    -0.02   0.00   0.01
  14   6     0.11  -0.10  -0.00     0.15  -0.08  -0.00     0.00  -0.01   0.01
  15   6     0.02   0.05  -0.10    -0.07  -0.03   0.01    -0.01  -0.01  -0.00
  16   6     0.11   0.10  -0.00     0.15   0.08  -0.00    -0.00  -0.01  -0.01
  17   6     0.03   0.13   0.02     0.32   0.11  -0.00     0.02  -0.00  -0.01
  18   6    -0.16   0.10  -0.05     0.24   0.00   0.01     0.04   0.00   0.00
  19   6    -0.25   0.05  -0.14    -0.05  -0.14   0.01     0.02  -0.01   0.00
  20   6    -0.15   0.03  -0.16    -0.19  -0.15   0.01    -0.00  -0.01   0.00
  21   6     0.05   0.00  -0.13    -0.07  -0.04   0.02     0.00   0.00  -0.01
  22   6     0.06   0.02  -0.08    -0.09  -0.07   0.04     0.01   0.00   0.12
  23   6     0.06   0.03   0.11    -0.07  -0.11   0.02     0.00   0.01   0.04
  24   6     0.07   0.04   0.24    -0.10  -0.17   0.07     0.01  -0.00   0.34
  25   6     0.04   0.03   0.22    -0.02  -0.11  -0.04    -0.00   0.01  -0.30
  26   6     0.04   0.01   0.13    -0.00  -0.07  -0.08    -0.00   0.01  -0.39
  27   6     0.04   0.00  -0.03    -0.03  -0.03  -0.04    -0.00   0.00  -0.15
  28   7     0.04   0.00  -0.08    -0.01  -0.00  -0.09    -0.00   0.00   0.00
  29   1    -0.01  -0.01   0.07    -0.05   0.05   0.02     0.06  -0.00  -0.10
  30   1     0.02  -0.02   0.10    -0.02   0.06   0.03    -0.01  -0.00  -0.16
  31   1     0.05  -0.01   0.07    -0.03   0.05   0.02    -0.06   0.00  -0.10
  32   1     0.01  -0.01   0.11    -0.00   0.04  -0.02     0.00   0.01   0.13
  33   1     0.01  -0.00   0.06     0.01   0.02  -0.04     0.00   0.00   0.17
  34   1     0.02  -0.01  -0.05    -0.03   0.02   0.02    -0.00  -0.00  -0.09
  35   1    -0.06   0.00  -0.06    -0.11   0.07   0.01     0.00  -0.01  -0.00
  36   1    -0.11  -0.01  -0.06    -0.04   0.07   0.00    -0.01  -0.00  -0.00
  37   1    -0.07  -0.03  -0.01     0.11  -0.01   0.00    -0.02   0.00  -0.00
  38   1     0.03  -0.05   0.03     0.15  -0.06  -0.00    -0.01   0.00   0.00
  39   1     0.07  -0.03   0.01     0.05  -0.04  -0.00     0.00  -0.00   0.00
  40   1     0.07   0.03   0.01     0.05   0.04  -0.00    -0.00  -0.00  -0.00
  41   1     0.03   0.05   0.03     0.15   0.06  -0.00     0.01   0.00  -0.00
  42   1    -0.07   0.03  -0.01     0.11   0.01   0.00     0.02   0.00   0.00
  43   1    -0.11   0.01  -0.06    -0.04  -0.07   0.00     0.01  -0.00   0.00
  44   1    -0.06  -0.00  -0.06    -0.11  -0.07   0.01    -0.00  -0.01   0.00
  45   1     0.02   0.01  -0.05    -0.03  -0.02   0.02     0.00  -0.00   0.09
  46   1     0.02   0.02   0.10    -0.02  -0.06   0.03     0.01  -0.00   0.16
  47   1     0.05   0.01   0.07    -0.03  -0.05   0.02     0.06   0.00   0.10
  48   1    -0.01   0.01   0.07    -0.05  -0.05   0.02    -0.06  -0.00   0.10
  49   1     0.01   0.01   0.11    -0.00  -0.04  -0.02    -0.00   0.01  -0.13
  50   1     0.01   0.00   0.06     0.01  -0.02  -0.04    -0.00   0.00  -0.17
  51   1     0.01   0.00   0.02     0.01  -0.00  -0.03    -0.00   0.00   0.00
                     10                     11                     12
                        a                      a                      a 
 Frequencies --   100.5474               152.2436               154.8630
 Red. masses --     9.8911                11.1874                 9.8717
 Frc consts  --     0.0000                 0.0000                 0.0000
 IR Inten    --     0.0019                 0.1610                 0.0852
 Raman Activ --     0.0000                 0.0000                 0.0000
 Depolar     --     0.0000                 0.0000                 0.0000
 Atom AN      X      Y      Z        X      Y      Z        X      Y      Z
   1   6     0.00   0.04  -0.08    -0.00  -0.00  -0.27     0.18  -0.39  -0.05
   2   6     0.00   0.03  -0.01    -0.00   0.00   0.08     0.04  -0.15   0.02
   3   6     0.00   0.03  -0.04     0.00   0.01   0.27    -0.05  -0.14  -0.01
   4   6     0.00   0.04  -0.02     0.00   0.01   0.16    -0.10  -0.02   0.00
   5   6     0.00   0.04   0.02    -0.00   0.00  -0.12    -0.01   0.11   0.02
   6   6     0.00   0.04   0.05    -0.00   0.00   0.02     0.03   0.12   0.04
   7   6     0.01   0.04   0.05    -0.00   0.00   0.09     0.11  -0.01   0.08
   8   6    -0.00   0.04   0.00    -0.00  -0.00   0.03    -0.00   0.14   0.00
   9   6    -0.07   0.02   0.01    -0.01   0.00   0.03    -0.03   0.13   0.02
  10   6    -0.29   0.10  -0.05    -0.00   0.02   0.04    -0.00   0.08   0.00
  11   6    -0.22   0.03  -0.01     0.00   0.02   0.03     0.04   0.00   0.05
  12   6     0.13  -0.15   0.09     0.01   0.02   0.02     0.04   0.00   0.11
  13   6     0.29  -0.20   0.14     0.01   0.01   0.02    -0.02   0.08   0.11
  14   6     0.14  -0.09   0.09    -0.00   0.00   0.02    -0.04   0.14   0.07
  15   6     0.07   0.02  -0.01    -0.01  -0.00   0.03     0.03   0.13  -0.02
  16   6    -0.14  -0.09  -0.09    -0.00  -0.01   0.02     0.04   0.14  -0.07
  17   6    -0.29  -0.20  -0.14     0.01  -0.01   0.02     0.02   0.08  -0.11
  18   6    -0.13  -0.15  -0.09     0.01  -0.02   0.02    -0.04   0.00  -0.11
  19   6     0.22   0.03   0.01     0.00  -0.02   0.03    -0.04   0.00  -0.05
  20   6     0.29   0.10   0.05    -0.00  -0.02   0.04     0.00   0.08  -0.00
  21   6    -0.00   0.04  -0.05    -0.00  -0.00   0.02    -0.03   0.12  -0.04
  22   6    -0.01   0.04  -0.05     0.00  -0.00   0.09    -0.11  -0.01  -0.08
  23   6    -0.00   0.03   0.01    -0.00  -0.00   0.08    -0.04  -0.15  -0.02
  24   6    -0.00   0.04   0.08    -0.00   0.01  -0.28    -0.18  -0.39   0.05
  25   6    -0.00   0.03   0.04    -0.00  -0.01   0.27     0.05  -0.14   0.02
  26   6    -0.00   0.04   0.02    -0.00  -0.01   0.16     0.10  -0.02  -0.00
  27   6    -0.00   0.04  -0.02    -0.00  -0.00  -0.12     0.01   0.11  -0.02
  28   7    -0.00   0.05   0.00     0.00  -0.00  -0.65     0.00   0.14  -0.00
  29   1     0.01   0.01  -0.03     0.08   0.01  -0.10     0.10  -0.11  -0.02
  30   1    -0.00   0.01  -0.03    -0.01  -0.00  -0.14     0.01  -0.16  -0.02
  31   1    -0.01   0.01  -0.02    -0.07  -0.01  -0.09     0.08  -0.13  -0.02
  32   1     0.00   0.01  -0.03     0.00   0.00   0.12    -0.03  -0.06  -0.02
  33   1    -0.00   0.01  -0.01     0.00   0.00   0.06    -0.07  -0.00  -0.00
  34   1     0.00   0.01   0.02    -0.00   0.00   0.02     0.07  -0.00   0.04
  35   1    -0.15   0.06  -0.03    -0.00   0.01   0.01    -0.00   0.02  -0.01
  36   1    -0.12   0.03  -0.02     0.00   0.01   0.01     0.02  -0.02   0.01
  37   1     0.07  -0.07   0.04     0.00   0.01   0.01     0.02  -0.02   0.04
  38   1     0.15  -0.09   0.06     0.00   0.00   0.00    -0.01   0.02   0.04
  39   1     0.06  -0.03   0.03    -0.00  -0.00   0.01    -0.01   0.05   0.03
  40   1    -0.06  -0.03  -0.03    -0.00  -0.00   0.01     0.01   0.05  -0.03
  41   1    -0.15  -0.09  -0.06     0.00  -0.00   0.00     0.01   0.02  -0.04
  42   1    -0.07  -0.07  -0.04     0.01  -0.01   0.01    -0.02  -0.02  -0.04
  43   1     0.12   0.03   0.02     0.00  -0.01   0.01    -0.02  -0.02  -0.01
  44   1     0.15   0.06   0.03    -0.00  -0.01   0.01     0.00   0.02   0.01
  45   1    -0.00   0.01  -0.02     0.00  -0.00   0.02    -0.07  -0.00  -0.04
  46   1     0.00   0.01   0.03    -0.01   0.01  -0.14    -0.01  -0.16   0.02
  47   1     0.01   0.01   0.02    -0.07   0.01  -0.09    -0.08  -0.13   0.02
  48   1    -0.01   0.01   0.03     0.08  -0.01  -0.10    -0.10  -0.11   0.02
  49   1    -0.00   0.01   0.03     0.00  -0.00   0.12     0.03  -0.06   0.02
  50   1     0.00   0.01   0.01    -0.00  -0.00   0.06     0.07  -0.00   0.00
  51   1    -0.00   0.01  -0.00     0.00  -0.00  -0.13     0.00   0.04  -0.00
                     13                     14                     15
                        a                      a                      a 
 Frequencies --   190.2150               202.9159               226.2299
 Red. masses --    10.0285                10.0972                10.0555
 Frc consts  --     0.0000                 0.0000                 0.0000
 IR Inten    --     0.0178                 0.9010                 1.5580
 Raman Activ --     0.0000                 0.0000                 0.0000
 Depolar     --     0.0000                 0.0000                 0.0000
 Atom AN      X      Y      Z        X      Y      Z        X      Y      Z
   1   6    -0.06   0.07  -0.17    -0.16   0.17   0.07    -0.13   0.15  -0.10
   2   6    -0.01   0.01   0.15    -0.07   0.01  -0.08    -0.04  -0.01   0.14
   3   6     0.01   0.00  -0.05    -0.04   0.01   0.05    -0.01  -0.02  -0.06
   4   6     0.02  -0.02  -0.00    -0.02  -0.03  -0.00    -0.01  -0.04  -0.01
   5   6    -0.00  -0.05   0.09    -0.04  -0.06  -0.06    -0.02  -0.06   0.08
   6   6    -0.01  -0.04   0.22    -0.05  -0.07  -0.10    -0.02  -0.07   0.13
   7   6    -0.03  -0.02   0.40    -0.09  -0.03  -0.21    -0.05  -0.04   0.32
   8   6    -0.00  -0.04  -0.00     0.02   0.00   0.02     0.04   0.00  -0.05
   9   6    -0.15   0.01  -0.03     0.18  -0.11   0.09     0.14   0.08  -0.12
  10   6    -0.09   0.02   0.00     0.23  -0.09   0.12     0.13  -0.03  -0.18
  11   6     0.10   0.00   0.00     0.05   0.06   0.06    -0.05  -0.09  -0.15
  12   6     0.13  -0.01  -0.05    -0.14   0.16  -0.02    -0.12  -0.06  -0.05
  13   6    -0.06   0.04  -0.12     0.03   0.03  -0.00     0.06  -0.02   0.04
  14   6    -0.18   0.03  -0.09     0.21  -0.12   0.07     0.17   0.06  -0.02
  15   6     0.15   0.01   0.03     0.18   0.11   0.09     0.14  -0.08  -0.12
  16   6     0.18   0.03   0.09     0.21   0.12   0.07     0.17  -0.06  -0.02
  17   6     0.06   0.04   0.12     0.03  -0.03  -0.00     0.06   0.02   0.04
  18   6    -0.13  -0.01   0.05    -0.14  -0.16  -0.02    -0.12   0.06  -0.05
  19   6    -0.10   0.00  -0.00     0.05  -0.06   0.06    -0.05   0.09  -0.15
  20   6     0.09   0.02  -0.00     0.23   0.09   0.12     0.13   0.03  -0.18
  21   6     0.01  -0.04  -0.22    -0.05   0.07  -0.10    -0.02   0.07   0.13
  22   6     0.03  -0.02  -0.40    -0.09   0.03  -0.21    -0.05   0.04   0.32
  23   6     0.01   0.01  -0.15    -0.07  -0.01  -0.08    -0.04   0.01   0.14
  24   6     0.06   0.07   0.17    -0.16  -0.17   0.07    -0.13  -0.15  -0.10
  25   6    -0.01   0.00   0.05    -0.04  -0.01   0.05    -0.01   0.02  -0.06
  26   6    -0.02  -0.02   0.00    -0.02   0.03  -0.00    -0.01   0.04  -0.01
  27   6     0.00  -0.05  -0.09    -0.04   0.06  -0.06    -0.02   0.06   0.08
  28   7     0.00  -0.06   0.00    -0.08   0.00  -0.08    -0.05  -0.00   0.10
  29   1     0.04   0.04  -0.07    -0.10   0.04   0.03    -0.01   0.06  -0.04
  30   1    -0.01   0.03  -0.10    -0.01   0.09   0.04    -0.01   0.08  -0.07
  31   1    -0.09   0.01  -0.06    -0.05   0.06   0.03    -0.12   0.04  -0.04
  32   1     0.00   0.00  -0.08    -0.01   0.01   0.05    -0.00  -0.00  -0.07
  33   1     0.01  -0.01  -0.04     0.00  -0.01   0.02     0.00  -0.01  -0.03
  34   1    -0.01  -0.00   0.17    -0.03  -0.01  -0.09    -0.02  -0.01   0.13
  35   1    -0.03   0.01   0.01     0.09  -0.04   0.05     0.06  -0.02  -0.08
  36   1     0.07  -0.00   0.02     0.00   0.03   0.02    -0.04  -0.04  -0.06
  37   1     0.08  -0.01  -0.01    -0.11   0.09  -0.02    -0.08  -0.02  -0.01
  38   1    -0.02   0.01  -0.05    -0.01   0.02  -0.02     0.02  -0.01   0.05
  39   1    -0.06   0.00  -0.03     0.08  -0.05   0.02     0.07   0.04   0.01
  40   1     0.06   0.00   0.03     0.08   0.05   0.02     0.07  -0.04   0.01
  41   1     0.02   0.01   0.05    -0.01  -0.02  -0.02     0.02   0.01   0.05
  42   1    -0.08  -0.01   0.01    -0.11  -0.09  -0.02    -0.08   0.02  -0.01
  43   1    -0.07  -0.00  -0.02     0.00  -0.03   0.02    -0.04   0.04  -0.06
  44   1     0.03   0.01  -0.01     0.09   0.04   0.05     0.06   0.02  -0.08
  45   1     0.01  -0.00  -0.17    -0.03   0.01  -0.09    -0.02   0.01   0.13
  46   1     0.01   0.03   0.10    -0.01  -0.09   0.04    -0.01  -0.08  -0.07
  47   1     0.09   0.01   0.06    -0.05  -0.06   0.03    -0.12  -0.04  -0.04
  48   1    -0.04   0.04   0.07    -0.10  -0.04   0.03    -0.01  -0.06  -0.04
  49   1    -0.00   0.00   0.08    -0.01  -0.01   0.05    -0.00   0.00  -0.07
  50   1    -0.01  -0.01   0.04     0.00   0.01   0.02     0.00   0.01  -0.03
  51   1     0.00  -0.02   0.00    -0.04   0.00  -0.00    -0.03  -0.00  -0.01
                     16                     17                     18
                        a                      a                      a 
 Frequencies --   245.6017               263.8070               264.1687
 Red. masses --    10.6707                10.3486                10.2522
 Frc consts  --     0.0000                 0.0000                 0.0000
 IR Inten    --     0.0030                 1.5158                 0.0851
 Raman Activ --     0.0000                 0.0000                 0.0000
 Depolar     --     0.0000                 0.0000                 0.0000
 Atom AN      X      Y      Z        X      Y      Z        X      Y      Z
   1   6    -0.22   0.07   0.04    -0.08   0.08   0.05     0.11  -0.05   0.08
   2   6    -0.11  -0.11  -0.07    -0.01  -0.04  -0.11     0.04   0.05  -0.15
   3   6    -0.05  -0.11   0.01     0.01  -0.04   0.03     0.02   0.05  -0.00
   4   6    -0.04  -0.12   0.02     0.01  -0.06   0.01     0.03   0.04   0.03
   5   6    -0.05  -0.12  -0.01     0.01  -0.06  -0.03     0.02   0.03   0.01
   6   6    -0.10  -0.10  -0.04     0.01  -0.07  -0.02     0.04   0.02  -0.03
   7   6    -0.11  -0.13  -0.13    -0.02  -0.06  -0.20     0.03   0.05  -0.24
   8   6    -0.00   0.04   0.00     0.07   0.00   0.01     0.00  -0.05   0.00
   9   6    -0.07   0.12   0.03     0.07   0.24  -0.08    -0.19  -0.02  -0.05
  10   6    -0.10   0.17   0.05    -0.01   0.21  -0.13    -0.26   0.03  -0.07
  11   6     0.03   0.08   0.11     0.00   0.01  -0.02     0.02  -0.05  -0.05
  12   6     0.12   0.03   0.18     0.07  -0.03   0.18     0.16  -0.13  -0.09
  13   6    -0.05   0.11   0.14    -0.04   0.14   0.21    -0.13  -0.01  -0.17
  14   6    -0.13   0.16   0.11    -0.01   0.30   0.09    -0.25   0.01  -0.15
  15   6     0.07   0.12  -0.03     0.07  -0.23  -0.08     0.19  -0.02   0.05
  16   6     0.13   0.16  -0.11    -0.02  -0.30   0.09     0.25   0.00   0.15
  17   6     0.05   0.11  -0.14    -0.04  -0.14   0.21     0.13  -0.01   0.17
  18   6    -0.12   0.03  -0.18     0.07   0.03   0.18    -0.16  -0.13   0.10
  19   6    -0.03   0.08  -0.11     0.00  -0.01  -0.02    -0.02  -0.05   0.05
  20   6     0.10   0.17  -0.05    -0.02  -0.21  -0.13     0.26   0.02   0.06
  21   6     0.10  -0.10   0.04     0.01   0.07  -0.02    -0.04   0.02   0.03
  22   6     0.11  -0.13   0.13    -0.02   0.06  -0.20    -0.03   0.05   0.24
  23   6     0.11  -0.11   0.07    -0.01   0.04  -0.11    -0.04   0.05   0.15
  24   6     0.22   0.07  -0.04    -0.08  -0.08   0.06    -0.11  -0.05  -0.08
  25   6     0.05  -0.11  -0.01     0.01   0.04   0.03    -0.02   0.05   0.01
  26   6     0.04  -0.12  -0.02     0.01   0.06   0.01    -0.03   0.04  -0.03
  27   6     0.05  -0.12   0.01     0.01   0.06  -0.03    -0.02   0.03  -0.01
  28   7     0.00  -0.20  -0.00    -0.03  -0.00  -0.10    -0.00   0.06  -0.00
  29   1    -0.12   0.02   0.02    -0.08   0.01   0.03    -0.00  -0.03   0.04
  30   1    -0.03   0.06   0.02     0.01   0.05   0.04     0.02  -0.04   0.06
  31   1    -0.08   0.03   0.02    -0.02   0.04   0.03     0.10  -0.00   0.04
  32   1    -0.01  -0.02   0.02     0.01  -0.01   0.04     0.01   0.02   0.03
  33   1    -0.01  -0.03   0.02     0.01  -0.02   0.02     0.01   0.01   0.03
  34   1    -0.04  -0.04  -0.05    -0.01  -0.02  -0.08     0.00   0.01  -0.10
  35   1    -0.05   0.06   0.02    -0.02   0.07  -0.07    -0.10   0.02  -0.02
  36   1     0.02   0.00   0.03    -0.01  -0.04  -0.03     0.04  -0.02   0.00
  37   1     0.08  -0.02   0.07     0.04  -0.06   0.08     0.13  -0.07  -0.02
  38   1    -0.02   0.03   0.04    -0.02   0.05   0.09    -0.05   0.00  -0.06
  39   1    -0.04   0.06   0.04     0.00   0.13   0.05    -0.08  -0.01  -0.05
  40   1     0.04   0.06  -0.04     0.00  -0.13   0.05     0.08  -0.01   0.05
  41   1     0.02   0.03  -0.04    -0.02  -0.05   0.09     0.05   0.00   0.06
  42   1    -0.08  -0.02  -0.07     0.05   0.06   0.08    -0.13  -0.07   0.02
  43   1    -0.02   0.00  -0.03    -0.00   0.04  -0.03    -0.04  -0.02  -0.00
  44   1     0.05   0.06  -0.02    -0.02  -0.07  -0.07     0.10   0.02   0.01
  45   1     0.04  -0.04   0.05    -0.01   0.02  -0.08    -0.00   0.01   0.10
  46   1     0.03   0.06  -0.02     0.01  -0.05   0.04    -0.02  -0.04  -0.06
  47   1     0.08   0.03  -0.02    -0.01  -0.04   0.03    -0.10  -0.01  -0.03
  48   1     0.12   0.02  -0.02    -0.08  -0.01   0.03     0.00  -0.03  -0.04
  49   1     0.01  -0.02  -0.02     0.01   0.01   0.04    -0.01   0.02  -0.03
  50   1     0.01  -0.03  -0.02     0.01   0.02   0.02    -0.01   0.01  -0.03
  51   1     0.00  -0.05  -0.00    -0.03  -0.00  -0.01    -0.00   0.02  -0.00
                     19                     20                     21
                        a                      a                      a 
 Frequencies --   300.0386               303.8770               330.5405
 Red. masses --     9.9110                10.6488                10.0146
 Frc consts  --     0.0000                 0.0000                 0.0000
 IR Inten    --     0.6014                 0.1276                 0.0075
 Raman Activ --     0.0000                 0.0000                 0.0000
 Depolar     --     0.0000                 0.0000                 0.0000
 Atom AN      X      Y      Z        X      Y      Z        X      Y      Z
   1   6     0.16  -0.20   0.01    -0.13   0.01  -0.00     0.05  -0.00  -0.11
   2   6    -0.07   0.20  -0.02    -0.08  -0.06   0.01     0.03   0.03   0.26
   3   6    -0.14   0.21  -0.00    -0.07  -0.06  -0.01     0.03   0.03   0.32
   4   6    -0.10   0.17  -0.01    -0.08  -0.03   0.01     0.04  -0.00  -0.31
   5   6    -0.11   0.13   0.01    -0.04   0.02  -0.00     0.01  -0.03  -0.30
   6   6    -0.04   0.11   0.02    -0.05   0.02  -0.02     0.01  -0.03  -0.13
   7   6    -0.06   0.20  -0.03    -0.05  -0.02   0.01     0.01  -0.01  -0.05
   8   6    -0.05  -0.00  -0.01    -0.00   0.08   0.00     0.00  -0.02  -0.00
   9   6     0.07   0.10  -0.06     0.10   0.18  -0.18     0.02   0.01  -0.01
  10   6     0.16   0.02  -0.06     0.04   0.01  -0.32    -0.05   0.03  -0.03
  11   6     0.02  -0.01  -0.04    -0.05  -0.15  -0.26    -0.01  -0.00  -0.01
  12   6    -0.09   0.05   0.04    -0.03  -0.16  -0.14     0.04  -0.03   0.01
  13   6     0.07   0.03   0.10     0.02   0.02  -0.04    -0.04   0.02   0.00
  14   6     0.14   0.08   0.05     0.08   0.19  -0.14    -0.03   0.03  -0.01
  15   6     0.07  -0.10  -0.06    -0.10   0.18   0.18    -0.02   0.01   0.01
  16   6     0.14  -0.08   0.05    -0.08   0.19   0.14     0.03   0.03   0.01
  17   6     0.07  -0.03   0.10    -0.02   0.02   0.04     0.04   0.02  -0.00
  18   6    -0.10  -0.05   0.04     0.03  -0.16   0.14    -0.04  -0.03  -0.01
  19   6     0.02   0.01  -0.04     0.05  -0.15   0.26     0.01  -0.00   0.01
  20   6     0.16  -0.02  -0.06    -0.04   0.01   0.32     0.05   0.03   0.03
  21   6    -0.04  -0.11   0.02     0.05   0.02   0.02    -0.01  -0.03   0.13
  22   6    -0.06  -0.20  -0.03     0.05  -0.02  -0.01    -0.01  -0.01   0.05
  23   6    -0.07  -0.20  -0.02     0.08  -0.06  -0.01    -0.03   0.03  -0.26
  24   6     0.16   0.20   0.01     0.14   0.01   0.00    -0.05  -0.00   0.11
  25   6    -0.14  -0.21  -0.00     0.07  -0.06   0.01    -0.03   0.03  -0.32
  26   6    -0.10  -0.17  -0.01     0.08  -0.03  -0.01    -0.04  -0.00   0.31
  27   6    -0.11  -0.13   0.01     0.04   0.02   0.00    -0.01  -0.03   0.30
  28   7    -0.05  -0.00  -0.02    -0.00  -0.00  -0.00     0.00  -0.04   0.00
  29   1     0.10  -0.07   0.00    -0.05   0.00  -0.00     0.11   0.03  -0.06
  30   1    -0.03  -0.15   0.02    -0.02   0.02  -0.00    -0.00  -0.01  -0.09
  31   1     0.13  -0.07  -0.00    -0.06   0.00   0.00    -0.06  -0.03  -0.06
  32   1    -0.04   0.06   0.00    -0.02  -0.02  -0.00     0.01   0.01   0.17
  33   1    -0.01   0.05  -0.01    -0.04  -0.01   0.00     0.02  -0.00  -0.14
  34   1    -0.03   0.06  -0.02    -0.00  -0.01   0.01    -0.01  -0.00  -0.04
  35   1     0.07  -0.01  -0.03     0.02  -0.00  -0.15    -0.02   0.02  -0.01
  36   1    -0.01  -0.02  -0.02    -0.02  -0.07  -0.09    -0.00  -0.00  -0.01
  37   1    -0.07   0.02   0.01    -0.02  -0.08  -0.02     0.03  -0.02   0.01
  38   1     0.03   0.00   0.05     0.00   0.01   0.04    -0.02   0.01   0.00
  39   1     0.05   0.04   0.03     0.03   0.08  -0.03    -0.01   0.01  -0.00
  40   1     0.05  -0.04   0.03    -0.03   0.08   0.03     0.01   0.01   0.00
  41   1     0.03  -0.00   0.05    -0.00   0.01  -0.04     0.02   0.01  -0.00
  42   1    -0.07  -0.02   0.01     0.02  -0.08   0.02    -0.03  -0.02  -0.01
  43   1    -0.01   0.02  -0.02     0.02  -0.07   0.09     0.00  -0.00   0.01
  44   1     0.07   0.01  -0.03    -0.02  -0.00   0.15     0.02   0.02   0.01
  45   1    -0.03  -0.06  -0.02     0.00  -0.01  -0.01     0.01  -0.00   0.04
  46   1    -0.03   0.15   0.02     0.02   0.02   0.00     0.00  -0.01   0.09
  47   1     0.13   0.07  -0.00     0.06   0.01  -0.00     0.06  -0.03   0.06
  48   1     0.10   0.07   0.00     0.05   0.01   0.00    -0.11   0.03   0.06
  49   1    -0.04  -0.06   0.00     0.02  -0.02   0.00    -0.01   0.01  -0.17
  50   1    -0.01  -0.05  -0.01     0.04  -0.01  -0.00    -0.02  -0.00   0.14
  51   1     0.03  -0.00  -0.01     0.00  -0.00  -0.00    -0.00  -0.01   0.00
                     22                     23                     24
                        a                      a                      a 
 Frequencies --   346.3613               354.2898               374.1706
 Red. masses --    10.3470                10.8627                 9.6627
 Frc consts  --     0.0000                 0.0000                 0.0000
 IR Inten    --    11.0849                 0.0093                 0.4239
 Raman Activ --     0.0000                 0.0000                 0.0000
 Depolar     --     0.0000                 0.0000                 0.0000
 Atom AN      X      Y      Z        X      Y      Z        X      Y      Z
   1   6     0.00  -0.00  -0.09    -0.23  -0.15  -0.01     0.12  -0.18   0.01
   2   6     0.00   0.01   0.28    -0.28   0.03   0.04    -0.10   0.23  -0.01
   3   6    -0.00   0.01   0.28    -0.26   0.04   0.06    -0.04   0.24  -0.04
   4   6    -0.00  -0.00  -0.33    -0.21   0.01  -0.07     0.09   0.01   0.04
   5   6    -0.01  -0.01  -0.18    -0.09   0.12  -0.02    -0.04  -0.18   0.02
   6   6    -0.00  -0.01  -0.08    -0.10   0.10   0.02    -0.09  -0.15  -0.01
   7   6    -0.01   0.00  -0.07    -0.17   0.15  -0.03    -0.18   0.07   0.04
   8   6     0.01   0.00  -0.01    -0.00   0.05   0.00     0.00  -0.06   0.00
   9   6     0.01   0.00   0.00    -0.08  -0.08   0.06     0.05   0.03  -0.04
  10   6    -0.02   0.03   0.00    -0.02  -0.09   0.09     0.09   0.02  -0.04
  11   6     0.02   0.01   0.01    -0.00   0.00   0.04    -0.07   0.05  -0.04
  12   6     0.02   0.01   0.03    -0.02   0.02  -0.06     0.02  -0.00   0.04
  13   6    -0.02   0.03   0.02     0.02  -0.07  -0.08     0.06   0.00   0.06
  14   6     0.01   0.01   0.02    -0.04  -0.12  -0.02    -0.06   0.11  -0.00
  15   6     0.01  -0.00   0.00     0.08  -0.08  -0.06    -0.05   0.03   0.04
  16   6     0.01  -0.01   0.02     0.04  -0.12   0.02     0.06   0.11   0.00
  17   6    -0.02  -0.03   0.02    -0.02  -0.07   0.08    -0.06   0.00  -0.06
  18   6     0.02  -0.01   0.03     0.02   0.02   0.06    -0.02  -0.00  -0.04
  19   6     0.02  -0.01   0.01     0.00   0.00  -0.04     0.07   0.05   0.04
  20   6    -0.02  -0.03   0.00     0.02  -0.09  -0.09    -0.09   0.02   0.04
  21   6    -0.00   0.01  -0.08     0.10   0.10  -0.02     0.09  -0.15   0.01
  22   6    -0.01  -0.00  -0.07     0.17   0.15   0.04     0.18   0.07  -0.04
  23   6     0.00  -0.01   0.28     0.28   0.03  -0.04     0.10   0.23   0.01
  24   6     0.00   0.00  -0.09     0.23  -0.15   0.01    -0.12  -0.18  -0.01
  25   6    -0.00  -0.01   0.28     0.26   0.04  -0.06     0.04   0.24   0.04
  26   6    -0.00   0.00  -0.33     0.21   0.01   0.07    -0.09   0.01  -0.04
  27   6    -0.01   0.01  -0.18     0.09   0.12   0.02     0.04  -0.18  -0.02
  28   7    -0.01   0.00   0.41     0.00   0.11  -0.00     0.00  -0.31   0.00
  29   1     0.09   0.03  -0.06    -0.03  -0.04  -0.01     0.10  -0.07   0.00
  30   1    -0.01  -0.01  -0.09    -0.10  -0.08  -0.01    -0.05  -0.16   0.01
  31   1    -0.08  -0.03  -0.06    -0.05  -0.05  -0.01     0.13  -0.06  -0.00
  32   1     0.00   0.01   0.14    -0.07   0.03   0.03     0.01   0.10  -0.03
  33   1     0.00  -0.00  -0.17    -0.08   0.01  -0.04     0.09   0.00   0.02
  34   1    -0.01  -0.00  -0.07    -0.04   0.04  -0.03    -0.12   0.02   0.02
  35   1    -0.01   0.01  -0.00     0.00  -0.03   0.04     0.05  -0.00  -0.01
  36   1     0.01  -0.00   0.00     0.01   0.02   0.02    -0.05   0.02  -0.02
  37   1     0.01  -0.00   0.01    -0.01   0.02  -0.03     0.01  -0.01   0.02
  38   1    -0.02   0.01   0.00     0.02  -0.03  -0.04     0.03  -0.01   0.03
  39   1     0.01   0.00   0.01    -0.02  -0.05  -0.02    -0.04   0.06   0.00
  40   1     0.01  -0.00   0.01     0.02  -0.05   0.02     0.04   0.06  -0.00
  41   1    -0.02  -0.01   0.00    -0.02  -0.03   0.04    -0.03  -0.01  -0.03
  42   1     0.01   0.00   0.01     0.01   0.02   0.03    -0.01  -0.01  -0.02
  43   1     0.01   0.00   0.00    -0.01   0.02  -0.02     0.05   0.02   0.02
  44   1    -0.01  -0.01  -0.00    -0.00  -0.03  -0.04    -0.05  -0.00   0.01
  45   1    -0.01   0.00  -0.07     0.04   0.04   0.03     0.12   0.02  -0.02
  46   1    -0.01   0.01  -0.09     0.10  -0.08   0.01     0.05  -0.16  -0.01
  47   1    -0.08   0.03  -0.06     0.05  -0.05   0.01    -0.13  -0.06   0.00
  48   1     0.09  -0.03  -0.06     0.03  -0.04   0.01    -0.10  -0.07  -0.00
  49   1     0.00  -0.01   0.14     0.07   0.03  -0.03    -0.01   0.10   0.03
  50   1     0.00   0.00  -0.17     0.08   0.01   0.04    -0.09   0.00  -0.02
  51   1    -0.00   0.00  -0.10     0.00   0.03   0.00     0.00  -0.08  -0.00
                     25                     26                     27
                        a                      a                      a 
 Frequencies --   375.0827               393.1337               434.4285
 Red. masses --     8.9802                 9.2763                10.0663
 Frc consts  --     0.0000                 0.0000                 0.0000
 IR Inten    --     0.0006                 0.0447                 1.4924
 Raman Activ --     0.0000                 0.0000                 0.0000
 Depolar     --     0.0000                 0.0000                 0.0000
 Atom AN      X      Y      Z        X      Y      Z        X      Y      Z
   1   6     0.01   0.00   0.00     0.01  -0.05   0.00     0.05   0.08  -0.02
   2   6     0.00   0.01   0.01    -0.05   0.07   0.01     0.07   0.01  -0.01
   3   6    -0.01   0.01  -0.03    -0.03   0.07  -0.02    -0.07   0.01  -0.08
   4   6    -0.02   0.02   0.02     0.01   0.01   0.01    -0.11   0.06   0.15
   5   6    -0.01   0.02   0.03    -0.02  -0.03   0.02    -0.11   0.03  -0.28
   6   6    -0.00   0.02   0.02    -0.03  -0.03   0.00     0.05   0.02  -0.35
   7   6     0.00   0.01   0.03    -0.06   0.03   0.03     0.07   0.01   0.19
   8   6    -0.01  -0.00  -0.00     0.00  -0.01   0.00     0.08  -0.00  -0.12
   9   6     0.01  -0.00  -0.01     0.08  -0.00  -0.00     0.10  -0.08  -0.01
  10   6    -0.26   0.13  -0.07    -0.22   0.14  -0.07     0.00   0.04   0.01
  11   6     0.25  -0.14   0.04     0.22  -0.12   0.04    -0.02   0.08   0.01
  12   6    -0.02  -0.00  -0.01    -0.03   0.00   0.01     0.08   0.03   0.09
  13   6    -0.24   0.12  -0.05    -0.20   0.11  -0.02    -0.05   0.04   0.05
  14   6     0.29  -0.15   0.05     0.35  -0.14   0.07    -0.03  -0.00   0.06
  15   6     0.01   0.00  -0.01    -0.08  -0.00   0.00     0.10   0.08  -0.01
  16   6     0.29   0.15   0.05    -0.35  -0.14  -0.07    -0.03   0.00   0.06
  17   6    -0.24  -0.12  -0.05     0.20   0.11   0.02    -0.05  -0.04   0.05
  18   6    -0.02   0.00  -0.01     0.03   0.00  -0.01     0.08  -0.03   0.09
  19   6     0.25   0.14   0.04    -0.22  -0.12  -0.04    -0.02  -0.08   0.01
  20   6    -0.26  -0.13  -0.07     0.22   0.14   0.07     0.00  -0.04   0.01
  21   6    -0.00  -0.02   0.02     0.03  -0.03  -0.00     0.05  -0.02  -0.34
  22   6     0.00  -0.01   0.03     0.06   0.03  -0.03     0.07  -0.01   0.19
  23   6     0.00  -0.01   0.01     0.05   0.07  -0.01     0.07  -0.01  -0.01
  24   6     0.01  -0.00   0.00    -0.01  -0.05  -0.00     0.05  -0.08  -0.02
  25   6    -0.01  -0.01  -0.03     0.03   0.07   0.02    -0.07  -0.01  -0.08
  26   6    -0.02  -0.02   0.02    -0.01   0.01  -0.01    -0.11  -0.06   0.15
  27   6    -0.01  -0.02   0.03     0.02  -0.03  -0.02    -0.11  -0.03  -0.28
  28   7    -0.01  -0.00  -0.04     0.00  -0.07  -0.00    -0.11   0.00   0.19
  29   1     0.00   0.00   0.00     0.02  -0.02  -0.00     0.01   0.02  -0.00
  30   1    -0.00  -0.00   0.00    -0.02  -0.04   0.00     0.03   0.04  -0.01
  31   1     0.00   0.00   0.00     0.03  -0.02  -0.00    -0.01   0.03  -0.00
  32   1    -0.01   0.00  -0.02    -0.00   0.03  -0.02    -0.04  -0.02  -0.00
  33   1    -0.00   0.01   0.00     0.02   0.00   0.00    -0.03   0.02   0.17
  34   1     0.01   0.00   0.00    -0.03   0.01   0.00     0.02   0.01   0.19
  35   1    -0.16   0.08  -0.04    -0.16   0.09  -0.04    -0.03   0.02   0.01
  36   1     0.16  -0.09   0.03     0.13  -0.08   0.02    -0.03   0.03  -0.01
  37   1    -0.01   0.00  -0.00    -0.03   0.01   0.00     0.04  -0.00   0.03
  38   1    -0.16   0.08  -0.03    -0.15   0.08  -0.02    -0.04   0.02  -0.01
  39   1     0.17  -0.08   0.03     0.15  -0.07   0.03    -0.02   0.02   0.02
  40   1     0.17   0.08   0.03    -0.15  -0.07  -0.03    -0.02  -0.02   0.02
  41   1    -0.16  -0.08  -0.03     0.15   0.08   0.02    -0.04  -0.02  -0.01
  42   1    -0.01  -0.00  -0.00     0.03   0.01  -0.00     0.04   0.00   0.03
  43   1     0.16   0.08   0.03    -0.13  -0.08  -0.02    -0.03  -0.03  -0.01
  44   1    -0.16  -0.08  -0.04     0.16   0.09   0.04    -0.02  -0.02   0.01
  45   1     0.01  -0.00   0.00     0.03   0.01  -0.00     0.02  -0.01   0.18
  46   1    -0.00   0.00   0.00     0.02  -0.04  -0.00     0.03  -0.04  -0.01
  47   1     0.00  -0.00   0.00    -0.03  -0.02   0.00    -0.01  -0.03  -0.00
  48   1     0.00  -0.00   0.00    -0.02  -0.02   0.00     0.01  -0.03  -0.00
  49   1    -0.01  -0.00  -0.02     0.00   0.03   0.02    -0.04   0.02  -0.00
  50   1    -0.00  -0.01   0.00    -0.02   0.00  -0.00    -0.03  -0.02   0.17
  51   1     0.00  -0.00   0.01     0.00  -0.02  -0.00    -0.01   0.00   0.17
                     28                     29                     30
                        a                      a                      a 
 Frequencies --   435.7278               439.7123               456.5553
 Red. masses --     9.8774                 9.6444                 9.9691
 Frc consts  --     0.0000                 0.0000                 0.0000
 IR Inten    --     3.2851                 0.2125                 5.9802
 Raman Activ --     0.0000                 0.0000                 0.0000
 Depolar     --     0.0000                 0.0000                 0.0000
 Atom AN      X      Y      Z        X      Y      Z        X      Y      Z
   1   6    -0.04  -0.18  -0.00     0.03   0.00   0.01    -0.13  -0.09   0.00
   2   6    -0.18   0.13   0.01     0.02   0.01   0.10    -0.09  -0.09  -0.08
   3   6     0.07   0.12  -0.04     0.03   0.01   0.06     0.10  -0.09  -0.00
   4   6     0.23  -0.15   0.04     0.03  -0.00  -0.20     0.09  -0.03   0.08
   5   6     0.16  -0.22  -0.06    -0.00  -0.03   0.36     0.15   0.08  -0.18
   6   6    -0.10  -0.20  -0.10    -0.01  -0.02   0.32    -0.06   0.09  -0.10
   7   6    -0.22   0.02   0.07    -0.01  -0.04  -0.21    -0.03   0.02   0.08
   8   6    -0.00  -0.00  -0.03     0.00   0.03  -0.00    -0.17   0.00  -0.05
   9   6     0.11  -0.07   0.02    -0.12   0.09  -0.03    -0.25   0.12  -0.09
  10   6    -0.03   0.01   0.00     0.03  -0.00  -0.02     0.03   0.04  -0.00
  11   6    -0.03   0.03  -0.00     0.06  -0.03  -0.00     0.14  -0.03   0.03
  12   6     0.07  -0.02   0.02    -0.09   0.05  -0.02    -0.16   0.12   0.03
  13   6    -0.05   0.03  -0.01     0.07  -0.01   0.02     0.11  -0.05   0.07
  14   6    -0.00  -0.01   0.01     0.03   0.02   0.01     0.02  -0.01   0.04
  15   6     0.11   0.07   0.02     0.12   0.09   0.03    -0.25  -0.12  -0.09
  16   6    -0.00   0.01   0.01    -0.03   0.02  -0.01     0.02   0.01   0.04
  17   6    -0.05  -0.03  -0.01    -0.07  -0.01  -0.02     0.11   0.05   0.07
  18   6     0.07   0.02   0.02     0.09   0.05   0.02    -0.16  -0.12   0.03
  19   6    -0.03  -0.03  -0.00    -0.06  -0.03   0.00     0.14   0.03   0.03
  20   6    -0.03  -0.01   0.00    -0.03  -0.00   0.02     0.03  -0.04  -0.00
  21   6    -0.10   0.20  -0.09     0.01  -0.02  -0.32    -0.06  -0.09  -0.10
  22   6    -0.22  -0.02   0.07     0.01  -0.04   0.22    -0.03  -0.02   0.08
  23   6    -0.18  -0.13   0.01    -0.02   0.01  -0.10    -0.09   0.09  -0.08
  24   6    -0.04   0.18  -0.00    -0.03   0.00  -0.01    -0.13   0.09   0.00
  25   6     0.07  -0.12  -0.04    -0.03   0.01  -0.06     0.10   0.09  -0.00
  26   6     0.23   0.15   0.04    -0.03  -0.00   0.20     0.09   0.03   0.08
  27   6     0.16   0.22  -0.06     0.00  -0.03  -0.37     0.15  -0.08  -0.18
  28   7     0.07   0.00   0.03    -0.00  -0.06   0.00     0.22  -0.00   0.17
  29   1     0.05  -0.06  -0.00     0.03   0.01  -0.01    -0.06  -0.03   0.01
  30   1    -0.08  -0.13   0.00     0.01  -0.00  -0.00    -0.03  -0.02   0.01
  31   1     0.06  -0.06  -0.01    -0.00  -0.01  -0.01    -0.02  -0.02   0.01
  32   1     0.06   0.10  -0.01     0.01   0.00  -0.03     0.04  -0.00   0.03
  33   1     0.11  -0.04   0.04     0.01  -0.00  -0.21    -0.01  -0.01   0.09
  34   1    -0.11   0.01   0.05    -0.01  -0.01  -0.22     0.03   0.00   0.08
  35   1    -0.04   0.02   0.00     0.04  -0.01  -0.01     0.05  -0.01   0.01
  36   1    -0.03   0.02  -0.01     0.05  -0.03   0.00     0.10  -0.05   0.02
  37   1     0.03  -0.01   0.01    -0.05   0.02  -0.01    -0.08   0.05   0.00
  38   1    -0.04   0.02  -0.01     0.05  -0.02   0.02     0.09  -0.05   0.03
  39   1    -0.02   0.01  -0.00     0.04  -0.01   0.01     0.05  -0.01   0.03
  40   1    -0.02  -0.01  -0.00    -0.04  -0.01  -0.01     0.05   0.01   0.03
  41   1    -0.04  -0.02  -0.01    -0.05  -0.02  -0.02     0.09   0.05   0.03
  42   1     0.03   0.01   0.01     0.05   0.02   0.01    -0.08  -0.05   0.00
  43   1    -0.03  -0.02  -0.01    -0.05  -0.03  -0.00     0.10   0.05   0.02
  44   1    -0.04  -0.02   0.00    -0.04  -0.01   0.01     0.05   0.01   0.01
  45   1    -0.11  -0.01   0.05     0.01  -0.01   0.22     0.03  -0.00   0.08
  46   1    -0.08   0.13   0.00    -0.01  -0.00   0.00    -0.03   0.02   0.01
  47   1     0.06   0.06  -0.01     0.00  -0.01   0.01    -0.02   0.02   0.01
  48   1     0.05   0.06  -0.00    -0.03   0.01   0.01    -0.06   0.03   0.01
  49   1     0.06  -0.10  -0.01    -0.01   0.00   0.03     0.04   0.00   0.03
  50   1     0.11   0.04   0.04    -0.01  -0.00   0.21    -0.01   0.01   0.09
  51   1    -0.06   0.00   0.10    -0.00  -0.02   0.00     0.08  -0.00  -0.24
                     31                     32                     33
                        a                      a                      a 
 Frequencies --   461.6919               490.1465               503.0688
 Red. masses --     3.8767                 9.7799                10.5084
 Frc consts  --     0.0000                 0.0000                 0.0000
 IR Inten    --    73.0572                 0.4257                 1.0229
 Raman Activ --     0.0000                 0.0000                 0.0000
 Depolar     --     0.0000                 0.0000                 0.0000
 Atom AN      X      Y      Z        X      Y      Z        X      Y      Z
   1   6    -0.05  -0.02  -0.01    -0.03  -0.00   0.00     0.26   0.11  -0.00
   2   6    -0.02  -0.04   0.15    -0.02  -0.00   0.19     0.18   0.09  -0.03
   3   6     0.03  -0.05  -0.02    -0.03  -0.01  -0.08     0.05   0.09   0.01
   4   6     0.02  -0.00  -0.09    -0.02  -0.02  -0.02     0.03   0.00   0.00
   5   6     0.05   0.05   0.07     0.03   0.03   0.24    -0.13  -0.21  -0.04
   6   6    -0.02   0.05  -0.09     0.04   0.01  -0.04    -0.07  -0.20   0.01
   7   6     0.00   0.01  -0.03     0.02   0.05  -0.06    -0.04  -0.20   0.01
   8   6    -0.07  -0.00  -0.07     0.00  -0.09   0.00    -0.04  -0.00  -0.00
   9   6    -0.10   0.04  -0.06     0.33  -0.17   0.05    -0.21   0.09  -0.05
  10   6     0.03   0.03   0.00     0.05  -0.00   0.01    -0.04   0.02   0.01
  11   6     0.06   0.01   0.02    -0.17   0.10  -0.02     0.10  -0.05   0.04
  12   6    -0.06   0.07   0.04     0.22  -0.11   0.07    -0.13   0.08  -0.01
  13   6     0.04  -0.03   0.05    -0.16   0.07  -0.02     0.09  -0.07   0.02
  14   6    -0.01  -0.00   0.03     0.00   0.00   0.00    -0.04  -0.00  -0.00
  15   6    -0.10  -0.04  -0.06    -0.33  -0.17  -0.05    -0.21  -0.09  -0.05
  16   6    -0.01   0.00   0.03    -0.00   0.00  -0.00    -0.04   0.00  -0.00
  17   6     0.04   0.03   0.05     0.16   0.07   0.02     0.09   0.07   0.02
  18   6    -0.06  -0.07   0.04    -0.22  -0.11  -0.07    -0.13  -0.08  -0.01
  19   6     0.06  -0.01   0.02     0.17   0.10   0.02     0.10   0.05   0.04
  20   6     0.03  -0.03   0.00    -0.05  -0.00  -0.01    -0.04  -0.02   0.01
  21   6    -0.02  -0.05  -0.09    -0.04   0.01   0.04    -0.07   0.20   0.01
  22   6     0.00  -0.01  -0.03    -0.02   0.05   0.06    -0.04   0.20   0.01
  23   6    -0.02   0.04   0.15     0.02  -0.00  -0.19     0.18  -0.09  -0.03
  24   6    -0.05   0.02  -0.01     0.03  -0.00  -0.00     0.26  -0.11  -0.00
  25   6     0.03   0.05  -0.02     0.03  -0.01   0.08     0.05  -0.09   0.01
  26   6     0.02   0.00  -0.09     0.02  -0.02   0.02     0.03  -0.00   0.00
  27   6     0.05  -0.05   0.07    -0.02   0.03  -0.24    -0.13   0.21  -0.04
  28   7     0.09   0.00  -0.19     0.00   0.10  -0.00    -0.27   0.00   0.01
  29   1     0.02   0.01  -0.02     0.03   0.02  -0.02     0.08   0.03   0.00
  30   1    -0.01  -0.00  -0.03    -0.01   0.00  -0.02     0.06   0.01   0.00
  31   1    -0.06  -0.02  -0.02    -0.05  -0.02  -0.02     0.09   0.03   0.00
  32   1     0.01  -0.01  -0.03    -0.01  -0.00  -0.10     0.00   0.00   0.02
  33   1    -0.01  -0.00  -0.06    -0.01  -0.01  -0.08     0.07  -0.00   0.01
  34   1     0.02   0.00  -0.02     0.01   0.01  -0.09    -0.07  -0.05   0.02
  35   1     0.02  -0.00   0.01    -0.05   0.03  -0.01     0.03  -0.02   0.02
  36   1     0.04  -0.02   0.00    -0.15   0.07  -0.03     0.09  -0.05   0.02
  37   1    -0.03   0.03   0.01     0.10  -0.05   0.03    -0.05   0.03  -0.01
  38   1     0.04  -0.02   0.01    -0.14   0.07  -0.03     0.09  -0.05   0.01
  39   1     0.02  -0.00   0.02    -0.06   0.04  -0.01     0.03  -0.02   0.01
  40   1     0.02   0.00   0.02     0.06   0.04   0.01     0.03   0.02   0.01
  41   1     0.04   0.02   0.01     0.14   0.07   0.03     0.09   0.05   0.01
  42   1    -0.03  -0.03   0.01    -0.10  -0.05  -0.03    -0.05  -0.03  -0.01
  43   1     0.04   0.02   0.00     0.15   0.07   0.03     0.09   0.05   0.02
  44   1     0.02   0.00   0.01     0.05   0.03   0.01     0.03   0.02   0.02
  45   1     0.02  -0.00  -0.02    -0.01   0.01   0.09    -0.07   0.05   0.02
  46   1    -0.01   0.00  -0.03     0.01   0.00   0.02     0.06  -0.01   0.00
  47   1    -0.06   0.02  -0.02     0.05  -0.02   0.02     0.09  -0.03   0.00
  48   1     0.02  -0.01  -0.02    -0.03   0.02   0.02     0.08  -0.03   0.00
  49   1     0.01   0.01  -0.03     0.01  -0.00   0.10     0.00  -0.00   0.02
  50   1    -0.01   0.00  -0.06     0.01  -0.01   0.08     0.07   0.00   0.01
  51   1     0.03   0.00   0.84     0.00   0.03  -0.00    -0.15   0.00   0.04
                     34                     35                     36
                        a                      a                      a 
 Frequencies --   521.3125               551.4582               578.4164
 Red. masses --     9.1147                10.2501                11.1443
 Frc consts  --     0.0000                 0.0000                 0.0000
 IR Inten    --    14.5856                 0.0017                 0.0219
 Raman Activ --     0.0000                 0.0000                 0.0000
 Depolar     --     0.0000                 0.0000                 0.0000
 Atom AN      X      Y      Z        X      Y      Z        X      Y      Z
   1   6    -0.02  -0.01  -0.01     0.02   0.01   0.02     0.19   0.11  -0.00
   2   6    -0.02  -0.01  -0.32     0.02   0.01   0.39     0.15   0.00  -0.01
   3   6    -0.01   0.01   0.19    -0.01  -0.01  -0.24    -0.14   0.01   0.01
   4   6    -0.01   0.00  -0.10    -0.02   0.02   0.15    -0.23   0.21  -0.01
   5   6     0.00   0.01  -0.23    -0.02   0.00   0.05    -0.26   0.03   0.00
   6   6     0.01   0.01   0.21    -0.02  -0.00  -0.33    -0.13   0.01   0.01
   7   6     0.00   0.02   0.10    -0.00  -0.02  -0.12     0.00  -0.19   0.00
   8   6     0.01  -0.00   0.23    -0.00   0.03   0.00    -0.00   0.18   0.00
   9   6     0.03   0.08   0.10    -0.12   0.05  -0.01     0.02  -0.01   0.11
  10   6    -0.03  -0.04   0.02    -0.07   0.02   0.01    -0.03  -0.14   0.04
  11   6    -0.05  -0.09   0.01     0.07  -0.05   0.03    -0.05  -0.00  -0.04
  12   6    -0.02  -0.10  -0.13    -0.10   0.04  -0.03     0.06  -0.04  -0.08
  13   6     0.02   0.02  -0.07     0.07  -0.06  -0.00     0.01   0.11  -0.03
  14   6     0.07   0.06  -0.08    -0.06   0.01  -0.02     0.02  -0.01   0.06
  15   6     0.03  -0.08   0.10     0.12   0.05   0.01    -0.02  -0.01  -0.11
  16   6     0.07  -0.06  -0.08     0.06   0.01   0.02    -0.02  -0.01  -0.06
  17   6     0.02  -0.02  -0.07    -0.07  -0.06   0.00    -0.01   0.11   0.03
  18   6    -0.02   0.10  -0.13     0.10   0.04   0.03    -0.06  -0.04   0.08
  19   6    -0.05   0.09   0.01    -0.07  -0.05  -0.03     0.05  -0.00   0.04
  20   6    -0.03   0.04   0.02     0.07   0.02  -0.01     0.03  -0.14  -0.04
  21   6     0.01  -0.01   0.21     0.02  -0.00   0.33     0.13   0.01  -0.01
  22   6     0.00  -0.02   0.10     0.00  -0.02   0.12    -0.00  -0.19  -0.00
  23   6    -0.02   0.01  -0.32    -0.02   0.01  -0.39    -0.15   0.00   0.01
  24   6    -0.02   0.01  -0.01    -0.02   0.01  -0.02    -0.19   0.11   0.00
  25   6    -0.01  -0.01   0.19     0.01  -0.01   0.24     0.14   0.01  -0.01
  26   6    -0.01  -0.00  -0.10     0.02   0.02  -0.15     0.23   0.21   0.01
  27   6     0.00  -0.01  -0.23     0.02   0.00  -0.05     0.26   0.03  -0.00
  28   7     0.01   0.00   0.10     0.00  -0.03  -0.00     0.00  -0.34  -0.00
  29   1    -0.08  -0.04   0.03     0.11   0.05  -0.04     0.04   0.03   0.00
  30   1     0.00   0.00   0.04    -0.01  -0.00  -0.05     0.06   0.04  -0.00
  31   1     0.06   0.03   0.03    -0.08  -0.04  -0.04     0.04   0.03   0.00
  32   1     0.00   0.01   0.18    -0.01  -0.01  -0.17    -0.09  -0.07   0.01
  33   1    -0.00   0.00   0.04    -0.01   0.01   0.04    -0.08   0.06  -0.00
  34   1     0.01   0.01   0.12    -0.00  -0.01  -0.06    -0.02  -0.05   0.00
  35   1    -0.00  -0.01  -0.03     0.02  -0.01   0.01    -0.03  -0.03   0.01
  36   1    -0.01  -0.00   0.02     0.07  -0.04   0.02    -0.03   0.04   0.00
  37   1    -0.00  -0.02  -0.04    -0.02   0.01  -0.01     0.01  -0.03  -0.01
  38   1    -0.01   0.01   0.02     0.07  -0.04   0.01    -0.02   0.04  -0.01
  39   1     0.01  -0.00  -0.04     0.02  -0.02  -0.00    -0.02  -0.03  -0.01
  40   1     0.01   0.00  -0.04    -0.02  -0.02   0.00     0.02  -0.03   0.01
  41   1    -0.01  -0.01   0.02    -0.07  -0.04  -0.01     0.02   0.04   0.01
  42   1    -0.00   0.02  -0.04     0.02   0.01   0.01    -0.01  -0.03   0.01
  43   1    -0.01   0.00   0.02    -0.07  -0.04  -0.02     0.03   0.04  -0.00
  44   1    -0.00   0.01  -0.03    -0.02  -0.01  -0.01     0.03  -0.03  -0.01
  45   1     0.01  -0.01   0.12     0.00  -0.01   0.06     0.02  -0.05  -0.00
  46   1     0.00  -0.00   0.04     0.01  -0.00   0.05    -0.06   0.04   0.00
  47   1     0.06  -0.03   0.03     0.08  -0.04   0.04    -0.04   0.03  -0.00
  48   1    -0.08   0.04   0.03    -0.11   0.05   0.04    -0.04   0.03  -0.00
  49   1     0.00  -0.01   0.18     0.01  -0.01   0.17     0.09  -0.07  -0.01
  50   1    -0.00  -0.00   0.04     0.01   0.01  -0.04     0.08   0.06   0.00
  51   1     0.01   0.00   0.35     0.00  -0.01   0.00    -0.00  -0.09   0.00
                     37                     38                     39
                        a                      a                      a 
 Frequencies --   588.2448               590.2257               604.0488
 Red. masses --    11.1592                11.1608                10.9751
 Frc consts  --     0.0000                 0.0000                 0.0000
 IR Inten    --     0.2712                 0.0383                 1.6318
 Raman Activ --     0.0000                 0.0000                 0.0000
 Depolar     --     0.0000                 0.0000                 0.0000
 Atom AN      X      Y      Z        X      Y      Z        X      Y      Z
   1   6     0.01  -0.00   0.00    -0.05  -0.04   0.00    -0.03   0.01   0.02
   2   6     0.01  -0.01   0.06    -0.04  -0.00   0.02    -0.03   0.04   0.22
   3   6     0.03  -0.01  -0.04     0.07  -0.01  -0.01    -0.11   0.02  -0.16
   4   6     0.01   0.03   0.03     0.08  -0.05   0.01    -0.04  -0.12   0.13
   5   6    -0.01   0.02  -0.02     0.07  -0.01  -0.01     0.02  -0.05  -0.12
   6   6    -0.03   0.01  -0.04     0.02   0.00  -0.02     0.13  -0.02  -0.08
   7   6    -0.01  -0.03  -0.02    -0.01   0.04  -0.01     0.05   0.12  -0.12
   8   6    -0.05  -0.00   0.02     0.00   0.01   0.00     0.15  -0.00   0.22
   9   6     0.07   0.09  -0.05    -0.05  -0.08   0.06     0.00   0.13   0.18
  10   6     0.13   0.26   0.10    -0.12  -0.26  -0.09    -0.14  -0.05   0.06
  11   6    -0.10  -0.05   0.32     0.09   0.04  -0.31     0.01  -0.14   0.08
  12   6    -0.05  -0.10   0.07     0.06   0.09  -0.06    -0.11  -0.06  -0.21
  13   6    -0.14  -0.28  -0.10     0.13   0.29   0.10     0.15   0.08  -0.04
  14   6     0.10   0.04  -0.29    -0.07  -0.04   0.29     0.01   0.17  -0.06
  15   6     0.07  -0.09  -0.05     0.05  -0.08  -0.06     0.00  -0.13   0.18
  16   6     0.10  -0.04  -0.29     0.07  -0.04  -0.29     0.01  -0.17  -0.06
  17   6    -0.14   0.28  -0.10    -0.13   0.29  -0.10     0.15  -0.08  -0.04
  18   6    -0.05   0.10   0.07    -0.06   0.09   0.06    -0.11   0.06  -0.21
  19   6    -0.10   0.05   0.32    -0.09   0.04   0.31     0.01   0.14   0.08
  20   6     0.13  -0.26   0.10     0.12  -0.26   0.09    -0.14   0.05   0.06
  21   6    -0.03  -0.01  -0.04    -0.02   0.00   0.02     0.13   0.02  -0.08
  22   6    -0.01   0.03  -0.02     0.01   0.04   0.01     0.05  -0.12  -0.12
  23   6     0.01   0.01   0.06     0.04  -0.00  -0.02    -0.03  -0.04   0.22
  24   6     0.01   0.00   0.00     0.05  -0.04  -0.00    -0.03  -0.01   0.02
  25   6     0.03   0.01  -0.04    -0.07  -0.01   0.01    -0.11  -0.02  -0.16
  26   6     0.01  -0.03   0.03    -0.08  -0.05  -0.01    -0.03   0.12   0.13
  27   6    -0.00  -0.02  -0.02    -0.07  -0.01   0.01     0.02   0.05  -0.12
  28   7     0.01  -0.00   0.01     0.00   0.07   0.00    -0.01  -0.00   0.02
  29   1     0.02   0.01  -0.01    -0.01  -0.01  -0.00     0.05   0.03  -0.02
  30   1     0.00  -0.00  -0.01    -0.02  -0.02  -0.00    -0.01   0.00  -0.03
  31   1    -0.01  -0.01  -0.01    -0.01  -0.01  -0.00    -0.06  -0.02  -0.02
  32   1     0.00  -0.01  -0.02     0.03   0.02  -0.01    -0.02   0.02  -0.07
  33   1    -0.00   0.01   0.02     0.03  -0.01   0.01     0.01  -0.03   0.07
  34   1     0.00  -0.01  -0.01     0.00   0.01  -0.00     0.00   0.03  -0.03
  35   1     0.04   0.07  -0.02    -0.04  -0.07   0.02    -0.01  -0.03  -0.03
  36   1    -0.05  -0.04   0.06     0.04   0.05  -0.06     0.06  -0.02   0.06
  37   1     0.04   0.05  -0.03    -0.04  -0.06   0.03    -0.03  -0.02  -0.05
  38   1    -0.06  -0.07   0.02     0.04   0.08  -0.01     0.07   0.01   0.06
  39   1     0.03   0.05  -0.06    -0.04  -0.05   0.06     0.01  -0.00  -0.04
  40   1     0.03  -0.05  -0.06     0.04  -0.05  -0.06     0.01   0.00  -0.04
  41   1    -0.06   0.07   0.02    -0.04   0.08   0.01     0.07  -0.01   0.06
  42   1     0.04  -0.05  -0.03     0.04  -0.06  -0.03    -0.03   0.02  -0.05
  43   1    -0.05   0.04   0.06    -0.04   0.05   0.06     0.06   0.02   0.06
  44   1     0.04  -0.07  -0.02     0.04  -0.07  -0.02    -0.01   0.03  -0.03
  45   1     0.00   0.01  -0.01    -0.00   0.01   0.00     0.00  -0.03  -0.03
  46   1     0.00   0.00  -0.01     0.02  -0.02   0.00    -0.01  -0.00  -0.03
  47   1    -0.01   0.01  -0.01     0.01  -0.01   0.00    -0.06   0.02  -0.02
  48   1     0.02  -0.01  -0.01     0.01  -0.01   0.00     0.05  -0.03  -0.02
  49   1     0.00   0.01  -0.02    -0.03   0.02   0.01    -0.02  -0.02  -0.07
  50   1    -0.00  -0.01   0.02    -0.03  -0.01  -0.01     0.01   0.03   0.07
  51   1     0.00  -0.00  -0.01     0.00   0.02  -0.00    -0.01  -0.00   0.00
                     40                     41                     42
                        a                      a                      a 
 Frequencies --   615.5149               625.9605               668.2618
 Red. masses --    11.2249                11.1210                11.0783
 Frc consts  --     0.0000                 0.0000                 0.0000
 IR Inten    --     1.5361                 2.5850                 0.1653
 Raman Activ --     0.0000                 0.0000                 0.0000
 Depolar     --     0.0000                 0.0000                 0.0000
 Atom AN      X      Y      Z        X      Y      Z        X      Y      Z
   1   6     0.04  -0.02   0.01    -0.14  -0.12   0.00     0.00   0.00  -0.02
   2   6     0.05  -0.06   0.13    -0.07  -0.05   0.02     0.00  -0.00  -0.14
   3   6     0.22  -0.05  -0.09     0.31  -0.02  -0.02     0.00   0.00   0.13
   4   6     0.07   0.26   0.07     0.22   0.16   0.01    -0.00  -0.01  -0.14
   5   6    -0.05   0.10  -0.09     0.05   0.04  -0.02     0.00  -0.00   0.28
   6   6    -0.25   0.05  -0.02    -0.14   0.06   0.00    -0.00  -0.00  -0.27
   7   6    -0.10  -0.23  -0.07    -0.10  -0.11  -0.01     0.00   0.01   0.14
   8   6    -0.24   0.00   0.13     0.00   0.24   0.00     0.00   0.01  -0.00
   9   6     0.01   0.07   0.10     0.00   0.10   0.17     0.22  -0.08   0.10
  10   6     0.03  -0.11   0.03    -0.02  -0.09   0.14    -0.17   0.03   0.02
  11   6    -0.10  -0.02  -0.04    -0.12  -0.07   0.13     0.12  -0.11   0.08
  12   6     0.08  -0.09  -0.09     0.03  -0.12  -0.15    -0.14   0.03  -0.09
  13   6    -0.00   0.17  -0.02     0.00   0.08  -0.08     0.18  -0.03   0.02
  14   6     0.11   0.06   0.03     0.10   0.06  -0.05    -0.15   0.13  -0.04
  15   6     0.01  -0.07   0.10    -0.00   0.10  -0.17    -0.21  -0.08  -0.10
  16   6     0.11  -0.06   0.03    -0.10   0.06   0.05     0.15   0.13   0.04
  17   6    -0.00  -0.17  -0.02    -0.00   0.08   0.08    -0.18  -0.03  -0.02
  18   6     0.08   0.09  -0.09    -0.03  -0.12   0.15     0.14   0.03   0.09
  19   6    -0.10   0.02  -0.04     0.12  -0.07  -0.13    -0.12  -0.11  -0.08
  20   6     0.03   0.11   0.03     0.02  -0.09  -0.14     0.17   0.03  -0.02
  21   6    -0.25  -0.05  -0.02     0.14   0.06  -0.00     0.00  -0.00   0.27
  22   6    -0.10   0.23  -0.07     0.10  -0.11   0.01    -0.00   0.01  -0.14
  23   6     0.05   0.06   0.13     0.07  -0.05  -0.02    -0.00  -0.00   0.14
  24   6     0.04   0.02   0.01     0.14  -0.12  -0.00    -0.00   0.00   0.02
  25   6     0.22   0.05  -0.09    -0.31  -0.02   0.02     0.00   0.00  -0.13
  26   6     0.07  -0.26   0.07    -0.22   0.16  -0.01     0.00  -0.01   0.14
  27   6    -0.05  -0.10  -0.09    -0.05   0.04   0.02    -0.00  -0.00  -0.28
  28   7     0.02   0.00   0.01    -0.00  -0.02   0.00     0.00   0.00  -0.00
  29   1     0.05   0.01  -0.01    -0.02  -0.04  -0.00    -0.03  -0.02   0.01
  30   1    -0.00  -0.02  -0.01    -0.06  -0.06   0.00     0.00   0.00   0.01
  31   1    -0.01  -0.02  -0.01    -0.02  -0.04  -0.00     0.03   0.02   0.01
  32   1     0.04  -0.05  -0.04     0.10   0.01  -0.01     0.00   0.00   0.02
  33   1    -0.02   0.07   0.04     0.05   0.05   0.00     0.00  -0.00  -0.06
  34   1    -0.01  -0.07  -0.02     0.00  -0.03  -0.00    -0.00   0.00   0.06
  35   1    -0.00  -0.02  -0.03    -0.01  -0.02  -0.00    -0.10   0.04  -0.01
  36   1    -0.05   0.04  -0.00    -0.03   0.04   0.06     0.01   0.01   0.03
  37   1     0.01  -0.04  -0.01     0.02  -0.02  -0.05    -0.08   0.03  -0.03
  38   1    -0.04   0.07   0.02    -0.02   0.04   0.02     0.02   0.01   0.02
  39   1     0.01   0.00  -0.01     0.01  -0.02  -0.04    -0.08   0.04  -0.03
  40   1     0.01  -0.00  -0.01    -0.01  -0.02   0.04     0.08   0.04   0.03
  41   1    -0.04  -0.07   0.02     0.02   0.04  -0.02    -0.02   0.01  -0.02
  42   1     0.01   0.04  -0.01    -0.02  -0.02   0.05     0.08   0.03   0.03
  43   1    -0.05  -0.04  -0.00     0.03   0.04  -0.06    -0.01   0.01  -0.03
  44   1    -0.00   0.02  -0.03     0.01  -0.02   0.00     0.10   0.04   0.01
  45   1    -0.01   0.07  -0.02    -0.00  -0.03   0.00     0.00   0.00  -0.06
  46   1    -0.00   0.02  -0.01     0.06  -0.06  -0.00    -0.00   0.00  -0.01
  47   1    -0.01   0.02  -0.01     0.02  -0.04   0.00    -0.03   0.02  -0.01
  48   1     0.05  -0.01  -0.01     0.02  -0.04   0.00     0.03  -0.02  -0.01
  49   1     0.04   0.05  -0.04    -0.10   0.01   0.01    -0.00   0.00  -0.02
  50   1    -0.02  -0.07   0.04    -0.05   0.05  -0.00    -0.00  -0.00   0.06
  51   1     0.03   0.00   0.01    -0.00  -0.01   0.00     0.00   0.00  -0.00
                     43                     44                     45
                        a                      a                      a 
 Frequencies --   669.7460               678.6196               688.9058
 Red. masses --    10.3421                11.1812                10.9621
 Frc consts  --     0.0000                 0.0000                 0.0000
 IR Inten    --     1.5606                 0.0810                10.6790
 Raman Activ --     0.0000                 0.0000                 0.0000
 Depolar     --     0.0000                 0.0000                 0.0000
 Atom AN      X      Y      Z        X      Y      Z        X      Y      Z
   1   6    -0.03  -0.03  -0.01     0.09   0.08   0.00     0.01   0.01  -0.02
   2   6    -0.00  -0.03  -0.08     0.01   0.05   0.04    -0.00   0.01  -0.12
   3   6     0.09  -0.01   0.08    -0.18   0.00  -0.04    -0.02   0.01   0.12
   4   6     0.02   0.14  -0.09    -0.03  -0.32   0.06    -0.00  -0.04  -0.14
   5   6    -0.03   0.06   0.18     0.08  -0.11  -0.11     0.01  -0.02   0.30
   6   6    -0.07   0.01  -0.18     0.12  -0.03   0.12     0.01  -0.01  -0.38
   7   6    -0.03  -0.07   0.08     0.06   0.15  -0.05     0.01   0.02   0.14
   8   6    -0.00  -0.00  -0.01    -0.00   0.04  -0.00    -0.00  -0.00   0.02
   9   6     0.27  -0.11   0.09     0.03   0.09   0.17    -0.15   0.14   0.06
  10   6    -0.16   0.07  -0.01    -0.06  -0.07   0.13     0.04  -0.06   0.08
  11   6     0.17  -0.11   0.06    -0.07  -0.11   0.15    -0.14  -0.01   0.07
  12   6    -0.15   0.05  -0.06    -0.02  -0.10  -0.18     0.05  -0.09  -0.08
  13   6     0.20  -0.06   0.04     0.10   0.15  -0.04    -0.04   0.15  -0.03
  14   6    -0.14   0.13  -0.05     0.08   0.15  -0.02     0.13   0.05   0.00
  15   6     0.27   0.11   0.09    -0.03   0.09  -0.17    -0.15  -0.14   0.06
  16   6    -0.15  -0.13  -0.05    -0.08   0.15   0.02     0.13  -0.05   0.00
  17   6     0.20   0.06   0.04    -0.10   0.15   0.04    -0.04  -0.15  -0.03
  18   6    -0.15  -0.05  -0.06     0.02  -0.10   0.18     0.05   0.09  -0.08
  19   6     0.17   0.12   0.06     0.07  -0.11  -0.15    -0.14   0.01   0.07
  20   6    -0.16  -0.07  -0.01     0.06  -0.07  -0.13     0.04   0.06   0.08
  21   6    -0.07  -0.01  -0.18    -0.12  -0.03  -0.12     0.01   0.01  -0.38
  22   6    -0.03   0.07   0.08    -0.06   0.15   0.05     0.01  -0.02   0.14
  23   6    -0.00   0.03  -0.08    -0.01   0.05  -0.04    -0.00  -0.01  -0.12
  24   6    -0.03   0.03  -0.01    -0.09   0.08  -0.00     0.01  -0.01  -0.02
  25   6     0.08   0.01   0.08     0.18   0.00   0.04    -0.02  -0.01   0.12
  26   6     0.02  -0.14  -0.09     0.03  -0.32  -0.06    -0.00   0.04  -0.14
  27   6    -0.03  -0.06   0.18    -0.08  -0.11   0.11     0.01   0.02   0.30
  28   7     0.01  -0.00  -0.04     0.00   0.02   0.00    -0.00  -0.00  -0.07
  29   1    -0.03  -0.02   0.01     0.03   0.03  -0.00    -0.02  -0.01   0.01
  30   1    -0.01  -0.01   0.01     0.04   0.03  -0.01     0.01   0.00   0.01
  31   1     0.01  -0.00   0.01     0.01   0.02  -0.00     0.03   0.01   0.01
  32   1     0.01  -0.02   0.02    -0.03   0.03  -0.01    -0.00   0.01   0.02
  33   1    -0.01   0.04  -0.04     0.02  -0.09   0.02     0.00  -0.01  -0.04
  34   1    -0.00  -0.02   0.04    -0.00   0.04  -0.03     0.00   0.01   0.06
  35   1    -0.14   0.07  -0.03    -0.03  -0.02  -0.02     0.09  -0.06   0.00
  36   1    -0.01   0.01   0.01    -0.01   0.03   0.07     0.03  -0.01   0.05
  37   1    -0.12   0.05  -0.03    -0.02  -0.02  -0.05     0.08  -0.06  -0.01
  38   1    -0.01   0.01   0.01     0.00   0.05   0.06     0.04   0.01   0.04
  39   1    -0.12   0.07  -0.03    -0.01   0.01  -0.04     0.09  -0.03  -0.00
  40   1    -0.12  -0.07  -0.03     0.01   0.01   0.04     0.09   0.03   0.00
  41   1    -0.00  -0.01   0.01    -0.00   0.05  -0.06     0.04  -0.01   0.04
  42   1    -0.12  -0.05  -0.03     0.02  -0.02   0.05     0.08   0.06  -0.01
  43   1    -0.01  -0.01   0.01     0.01   0.03  -0.07     0.03   0.01   0.05
  44   1    -0.14  -0.07  -0.03     0.03  -0.02   0.02     0.09   0.06   0.00
  45   1    -0.00   0.02   0.04     0.00   0.04   0.03     0.00  -0.01   0.07
  46   1    -0.01   0.01   0.01    -0.04   0.03   0.01     0.01  -0.00   0.01
  47   1     0.01   0.00   0.01    -0.01   0.02   0.00     0.03  -0.01   0.01
  48   1    -0.03   0.02   0.01    -0.03   0.03   0.00    -0.02   0.01   0.01
  49   1     0.01   0.02   0.02     0.03   0.03   0.01    -0.00  -0.01   0.02
  50   1    -0.01  -0.04  -0.04    -0.02  -0.09  -0.02     0.00   0.01  -0.04
  51   1     0.02  -0.00  -0.05     0.00   0.00  -0.00    -0.01  -0.00  -0.09
                     46                     47                     48
                        a                      a                      a 
 Frequencies --   690.4498               740.7878               763.0181
 Red. masses --    10.3288                 5.5104                 4.2757
 Frc consts  --     0.0000                 0.0000                 0.0000
 IR Inten    --     0.1955                29.1537                 4.4493
 Raman Activ --     0.0000                 0.0000                 0.0000
 Depolar     --     0.0000                 0.0000                 0.0000
 Atom AN      X      Y      Z        X      Y      Z        X      Y      Z
   1   6     0.03   0.02  -0.01     0.15   0.09  -0.00     0.02   0.01   0.00
   2   6    -0.00   0.02  -0.10     0.03   0.01   0.00    -0.00   0.00   0.01
   3   6    -0.05   0.01   0.10    -0.10  -0.05   0.00    -0.00  -0.01  -0.00
   4   6    -0.00  -0.11  -0.12    -0.04  -0.22  -0.01     0.01  -0.06  -0.03
   5   6     0.03  -0.04   0.25     0.08  -0.01   0.02     0.01  -0.02   0.05
   6   6     0.03  -0.01  -0.32    -0.06   0.04  -0.03    -0.00   0.01  -0.08
   7   6     0.02   0.05   0.11    -0.02   0.05  -0.01     0.00   0.02  -0.01
   8   6     0.00   0.02   0.00    -0.22   0.00   0.00     0.00   0.09   0.00
   9   6    -0.25   0.14  -0.03    -0.12   0.07  -0.01    -0.23   0.10  -0.06
  10   6     0.08  -0.06   0.04     0.09  -0.05   0.03     0.12  -0.05   0.01
  11   6    -0.16   0.06  -0.00     0.06  -0.05   0.02     0.09  -0.03  -0.01
  12   6     0.09  -0.06  -0.01     0.09  -0.06   0.00     0.13  -0.05   0.04
  13   6    -0.13   0.10  -0.04     0.08   0.00   0.02     0.05  -0.08   0.01
  14   6     0.16  -0.07   0.03     0.10  -0.02   0.02     0.05  -0.06   0.01
  15   6     0.25   0.14   0.03    -0.12  -0.07  -0.01     0.23   0.10   0.06
  16   6    -0.16  -0.07  -0.03     0.10   0.02   0.02    -0.05  -0.06  -0.01
  17   6     0.13   0.10   0.04     0.08  -0.00   0.02    -0.05  -0.08  -0.01
  18   6    -0.09  -0.06   0.01     0.09   0.06   0.00    -0.13  -0.05  -0.04
  19   6     0.16   0.06   0.01     0.06   0.05   0.02    -0.09  -0.03   0.01
  20   6    -0.08  -0.06  -0.04     0.09   0.05   0.03    -0.12  -0.05  -0.01
  21   6    -0.03  -0.01   0.31    -0.06  -0.04  -0.03     0.00   0.01   0.08
  22   6    -0.02   0.05  -0.11    -0.02  -0.05  -0.01    -0.00   0.02   0.01
  23   6     0.00   0.02   0.09     0.03  -0.01   0.00     0.00   0.00  -0.01
  24   6    -0.03   0.02   0.01     0.15  -0.09  -0.00    -0.02   0.01  -0.00
  25   6     0.05   0.01  -0.10    -0.10   0.05   0.00     0.00  -0.01   0.00
  26   6     0.00  -0.11   0.12    -0.04   0.22  -0.01    -0.01  -0.06   0.03
  27   6    -0.03  -0.04  -0.25     0.08   0.01   0.02    -0.01  -0.02  -0.05
  28   7     0.00   0.01  -0.00     0.09  -0.00  -0.00    -0.00  -0.02   0.00
  29   1    -0.01  -0.00   0.01     0.04   0.03  -0.00     0.01   0.01  -0.00
  30   1     0.01   0.01   0.01     0.05   0.04  -0.00     0.01   0.00  -0.00
  31   1     0.02   0.02   0.00     0.03   0.02  -0.00    -0.00  -0.00  -0.00
  32   1    -0.01   0.01   0.01    -0.02  -0.01   0.01     0.01   0.01   0.02
  33   1     0.01  -0.03  -0.03    -0.02  -0.06   0.01     0.01  -0.02   0.03
  34   1     0.01   0.01   0.06    -0.01   0.02   0.03    -0.00   0.01   0.04
  35   1     0.14  -0.08   0.03    -0.18   0.09  -0.04    -0.19   0.10  -0.03
  36   1     0.06  -0.02   0.03    -0.22   0.11  -0.04    -0.26   0.13  -0.06
  37   1     0.12  -0.06   0.02    -0.25   0.12  -0.05    -0.29   0.16  -0.06
  38   1     0.05  -0.02   0.02    -0.21   0.12  -0.03    -0.24   0.11  -0.06
  39   1     0.11  -0.06   0.02    -0.17   0.10  -0.04    -0.15   0.08  -0.02
  40   1    -0.11  -0.06  -0.02    -0.17  -0.10  -0.04     0.15   0.08   0.02
  41   1    -0.05  -0.02  -0.02    -0.21  -0.12  -0.03     0.24   0.11   0.06
  42   1    -0.12  -0.06  -0.02    -0.25  -0.12  -0.05     0.29   0.16   0.06
  43   1    -0.06  -0.02  -0.02    -0.22  -0.11  -0.04     0.26   0.13   0.06
  44   1    -0.14  -0.08  -0.03    -0.18  -0.09  -0.04     0.19   0.10   0.03
  45   1    -0.01   0.01  -0.06    -0.01  -0.02   0.03     0.00   0.01  -0.04
  46   1    -0.01   0.01  -0.01     0.05  -0.04  -0.00    -0.01   0.00   0.00
  47   1    -0.02   0.02  -0.00     0.03  -0.02  -0.00     0.00  -0.00   0.00
  48   1     0.01  -0.00  -0.01     0.04  -0.03  -0.00    -0.01   0.01   0.00
  49   1     0.01   0.01  -0.01    -0.02   0.01   0.01    -0.01   0.01  -0.02
  50   1    -0.01  -0.03   0.03    -0.02   0.06   0.01    -0.01  -0.02  -0.03
  51   1     0.00   0.00  -0.00     0.02  -0.00  -0.01     0.00  -0.01  -0.00
                     49                     50                     51
                        a                      a                      a 
 Frequencies --   786.5664               796.4745               809.0961
 Red. masses --     9.5945                11.4872                 4.0198
 Frc consts  --     0.0000                 0.0000                 0.0000
 IR Inten    --     0.0003                 0.1155                26.9231
 Raman Activ --     0.0000                 0.0000                 0.0000
 Depolar     --     0.0000                 0.0000                 0.0000
 Atom AN      X      Y      Z        X      Y      Z        X      Y      Z
   1   6    -0.24  -0.14   0.00     0.16   0.10  -0.00     0.00   0.00  -0.03
   2   6    -0.01  -0.02   0.01    -0.01   0.06  -0.00     0.00  -0.00  -0.08
   3   6     0.15   0.08  -0.01    -0.05   0.01  -0.01     0.00   0.00   0.17
   4   6     0.08   0.22  -0.01    -0.02  -0.11  -0.01     0.00   0.00   0.23
   5   6    -0.13  -0.08   0.01     0.08   0.04   0.00     0.00  -0.00  -0.15
   6   6     0.20  -0.07  -0.00    -0.22  -0.11   0.00    -0.00   0.00  -0.04
   7   6     0.12   0.04  -0.02    -0.24  -0.30   0.01     0.00   0.01   0.11
   8   6     0.26  -0.00  -0.01     0.00  -0.02   0.00    -0.00  -0.00  -0.08
[...]
  34   1    -0.00  -0.02   0.00    -0.00  -0.02   0.00    -0.00  -0.03   0.00
  35   1    -0.02  -0.04  -0.00    -0.04  -0.07  -0.00     0.13   0.26   0.00
  36   1     0.07   0.07  -0.15     0.09   0.09  -0.20    -0.19  -0.20   0.42
  37   1     0.02   0.15   0.25     0.03   0.17   0.29    -0.02  -0.10  -0.17
  38   1    -0.23  -0.45  -0.01    -0.22  -0.43  -0.01    -0.08  -0.16  -0.00
  39   1     0.11   0.12  -0.25     0.09   0.09  -0.19     0.09   0.09  -0.20
  40   1     0.11  -0.12  -0.25    -0.09   0.09   0.19     0.09  -0.09  -0.20
  41   1    -0.23   0.45  -0.01     0.22  -0.43   0.00    -0.08   0.16  -0.00
  42   1     0.02  -0.15   0.26    -0.03   0.17  -0.29    -0.02   0.10  -0.17
  43   1     0.07  -0.07  -0.15    -0.09   0.09   0.20    -0.19   0.20   0.42
  44   1    -0.02   0.04  -0.00     0.03  -0.07   0.00     0.13  -0.26   0.00
  45   1    -0.00   0.02   0.00     0.00  -0.02  -0.00    -0.00   0.03   0.00
  46   1     0.00   0.00  -0.00    -0.00  -0.00   0.00     0.00   0.00  -0.00
  47   1    -0.00   0.00   0.00     0.00  -0.00  -0.00    -0.00   0.00   0.00
  48   1    -0.00   0.00  -0.00     0.00  -0.00   0.00    -0.00   0.00  -0.00
  49   1     0.00   0.00   0.00    -0.01  -0.01  -0.00     0.01   0.01   0.00
  50   1    -0.00   0.00   0.00    -0.00   0.00   0.00    -0.00   0.00   0.00
  51   1     0.00   0.00   0.00    -0.00  -0.00   0.00     0.00  -0.00   0.00
                    136                    137                    138
                        a                      a                      a 
 Frequencies --  3072.0377              3079.6386              3079.8177
 Red. masses --     1.7811                 1.8452                 1.8518
 Frc consts  --     0.0000                 0.0000                 0.0000
 IR Inten    --     7.7972               117.5728                74.4029
 Raman Activ --     0.0000                 0.0000                 0.0000
 Depolar     --     0.0000                 0.0000                 0.0000
 Atom AN      X      Y      Z        X      Y      Z        X      Y      Z
   1   6     0.00   0.00  -0.00     0.00  -0.00  -0.00    -0.01   0.01   0.00
   2   6    -0.00  -0.00   0.00     0.00   0.00  -0.00    -0.01  -0.00   0.00
   3   6    -0.00   0.00  -0.00     0.09  -0.06   0.00    -0.12   0.08  -0.00
   4   6    -0.00  -0.00  -0.00    -0.00  -0.05   0.00     0.00   0.06  -0.00
   5   6     0.00   0.00  -0.00    -0.00  -0.00  -0.00     0.00   0.00  -0.00
   6   6     0.00  -0.00  -0.00     0.00  -0.00   0.00     0.00  -0.00   0.00
   7   6    -0.00  -0.00  -0.00    -0.00  -0.01   0.00     0.00   0.00  -0.00
   8   6    -0.00  -0.00   0.00    -0.00   0.00  -0.00     0.00  -0.00  -0.00
   9   6     0.00   0.00  -0.00    -0.00  -0.00  -0.00    -0.00  -0.00  -0.00
  10   6     0.03   0.07   0.00    -0.03  -0.05   0.00    -0.02  -0.05   0.00
  11   6    -0.05  -0.05   0.11     0.01   0.01  -0.03     0.01   0.01  -0.02
  12   6    -0.00  -0.02  -0.03    -0.01  -0.04  -0.07    -0.01  -0.03  -0.05
  13   6    -0.04  -0.07  -0.00     0.02   0.03   0.00     0.01   0.02  -0.00
  14   6     0.02   0.02  -0.05     0.04   0.04  -0.09     0.03   0.03  -0.06
  15   6    -0.00   0.00   0.00    -0.00   0.00  -0.00    -0.00   0.00  -0.00
  16   6    -0.02   0.02   0.05     0.04  -0.04  -0.09     0.03  -0.03  -0.06
  17   6     0.03  -0.07   0.00     0.02  -0.03   0.00     0.01  -0.02  -0.00
  18   6     0.00  -0.02   0.03    -0.01   0.04  -0.07    -0.01   0.03  -0.06
  19   6     0.05  -0.05  -0.11     0.01  -0.01  -0.03     0.01  -0.01  -0.02
  20   6    -0.03   0.07  -0.00    -0.03   0.05   0.00    -0.02   0.05   0.00
  21   6    -0.00  -0.00   0.00     0.00   0.00   0.00     0.00   0.00   0.00
  22   6     0.00  -0.00   0.00    -0.00   0.01   0.00     0.00  -0.00  -0.00
  23   6     0.00  -0.00  -0.00     0.00  -0.00  -0.00    -0.01   0.00   0.00
  24   6    -0.00   0.00   0.00     0.00   0.00  -0.00    -0.01  -0.01   0.00
  25   6     0.00   0.00   0.00     0.09   0.06   0.00    -0.12  -0.08  -0.00
  26   6     0.00  -0.00   0.00    -0.00   0.05   0.00     0.00  -0.06  -0.00
  27   6    -0.00   0.00   0.00    -0.00   0.00  -0.00     0.00  -0.00  -0.00
  28   7    -0.00   0.00   0.00     0.00   0.00  -0.00    -0.00   0.00  -0.00
  29   1     0.00   0.00   0.00     0.00   0.00   0.00    -0.00   0.00  -0.00
  30   1    -0.00   0.00  -0.00    -0.02   0.02   0.00     0.03  -0.02  -0.00
  31   1     0.00  -0.00   0.00     0.00   0.00  -0.00    -0.00  -0.00   0.00
  32   1     0.01  -0.01   0.00    -0.32   0.21  -0.00     0.42  -0.27   0.00
  33   1     0.00   0.00   0.00     0.01   0.15  -0.00    -0.01  -0.20   0.00
  34   1    -0.00   0.01   0.00     0.00   0.04  -0.00    -0.00  -0.00   0.00
  35   1    -0.13  -0.26  -0.00     0.10   0.19   0.00     0.09   0.17   0.00
  36   1     0.18   0.19  -0.41    -0.05  -0.05   0.11    -0.02  -0.03   0.06
  37   1     0.01   0.07   0.11     0.02   0.14   0.23     0.02   0.11   0.19
  38   1     0.13   0.24   0.00    -0.06  -0.11  -0.00    -0.03  -0.06  -0.00
  39   1    -0.08  -0.09   0.19    -0.14  -0.15   0.31    -0.10  -0.11   0.23
  40   1     0.08  -0.09  -0.19    -0.14   0.15   0.31    -0.10   0.11   0.23
  41   1    -0.13   0.24  -0.00    -0.06   0.11  -0.00    -0.03   0.06  -0.00
  42   1    -0.01   0.07  -0.11     0.02  -0.14   0.24     0.02  -0.11   0.19
  43   1    -0.18   0.19   0.41    -0.05   0.05   0.11    -0.02   0.03   0.06
  44   1     0.13  -0.26   0.00     0.10  -0.20   0.00     0.09  -0.17   0.00
  45   1     0.00   0.01  -0.00     0.00  -0.04  -0.00    -0.00   0.00   0.00
  46   1     0.00   0.00   0.00    -0.02  -0.02   0.00     0.03   0.02  -0.00
  47   1    -0.00  -0.00  -0.00     0.00  -0.00  -0.00    -0.00   0.00   0.00
  48   1    -0.00   0.00  -0.00     0.00   0.00   0.00    -0.00  -0.00  -0.00
  49   1    -0.01  -0.01  -0.00    -0.32  -0.21  -0.00     0.42   0.27   0.00
  50   1    -0.00   0.00  -0.00     0.01  -0.15  -0.00    -0.01   0.20   0.00
  51   1    -0.00  -0.00  -0.00     0.00  -0.00   0.00    -0.00  -0.00  -0.00
                    139                    140                    141
                        a                      a                      a 
 Frequencies --  3080.0782              3080.9477              3084.1045
 Red. masses --     1.8577                 1.8351                 1.8675
 Frc consts  --     0.0000                 0.0000                 0.0000
 IR Inten    --   115.8582                 0.5374                38.3411
 Raman Activ --     0.0000                 0.0000                 0.0000
 Depolar     --     0.0000                 0.0000                 0.0000
 Atom AN      X      Y      Z        X      Y      Z        X      Y      Z
   1   6     0.01  -0.01  -0.00    -0.00   0.00   0.00    -0.00   0.00  -0.00
   2   6     0.01   0.00  -0.00    -0.00  -0.00   0.00    -0.00  -0.00   0.00
   3   6     0.13  -0.09   0.00    -0.07   0.05  -0.00    -0.01   0.01   0.00
   4   6    -0.00  -0.07   0.00     0.00   0.04  -0.00     0.00   0.01  -0.00
   5   6    -0.00  -0.00   0.00     0.00   0.00   0.00     0.00   0.00   0.00
   6   6     0.00   0.00   0.00    -0.00  -0.00   0.00     0.00  -0.00   0.00
   7   6    -0.00  -0.01   0.00     0.00  -0.01   0.00    -0.00  -0.01   0.00
   8   6    -0.00  -0.00  -0.00    -0.00   0.00  -0.00     0.00  -0.00  -0.00
   9   6    -0.00  -0.00  -0.00    -0.00  -0.00  -0.01     0.00   0.00   0.00
  10   6    -0.02  -0.04   0.00    -0.04  -0.08   0.00     0.06   0.12   0.00
  11   6     0.00   0.00  -0.01     0.01   0.01  -0.02     0.02   0.02  -0.05
  12   6    -0.00  -0.03  -0.05    -0.01  -0.05  -0.08     0.00   0.03   0.05
  13   6     0.00   0.00  -0.00     0.00   0.01  -0.00     0.04   0.08   0.00
  14   6     0.02   0.02  -0.05     0.04   0.05  -0.09     0.03   0.03  -0.07
  15   6     0.00  -0.00   0.00     0.00  -0.00   0.01     0.00  -0.00   0.00
  16   6    -0.02   0.02   0.04    -0.04   0.05   0.09     0.03  -0.03  -0.07
  17   6    -0.00   0.00   0.00    -0.00   0.01   0.00     0.04  -0.08   0.00
  18   6     0.00  -0.03   0.05     0.01  -0.05   0.08     0.00  -0.03   0.05
  19   6    -0.00   0.00   0.01    -0.01   0.01   0.02     0.02  -0.02  -0.05
  20   6     0.02  -0.04  -0.00     0.04  -0.08  -0.00     0.06  -0.12   0.00
  21   6    -0.00   0.00  -0.00     0.00   0.00  -0.00     0.00   0.00   0.00
  22   6     0.00  -0.01  -0.00    -0.00  -0.01  -0.00    -0.00   0.01   0.00
  23   6    -0.01   0.00   0.00     0.00  -0.00  -0.00    -0.00   0.00   0.00
  24   6    -0.01  -0.01   0.00     0.00   0.00  -0.00    -0.00  -0.00  -0.00
  25   6    -0.13  -0.09  -0.00     0.07   0.05   0.00    -0.01  -0.01   0.00
  26   6     0.00  -0.07  -0.00    -0.00   0.04   0.00     0.00  -0.01  -0.00
  27   6     0.00  -0.00  -0.00    -0.00   0.00  -0.00     0.00  -0.00   0.00
  28   7    -0.00  -0.00  -0.00    -0.00  -0.00  -0.00    -0.00   0.00   0.00
  29   1     0.00  -0.00   0.00    -0.00   0.00  -0.00    -0.00   0.00   0.00
  30   1    -0.03   0.02   0.00     0.02  -0.01  -0.00     0.00  -0.00  -0.00
  31   1     0.00   0.00  -0.00    -0.00  -0.00   0.00    -0.00  -0.00   0.00
  32   1    -0.46   0.30  -0.00     0.24  -0.16   0.00     0.03  -0.02   0.00
  33   1     0.01   0.23  -0.00    -0.01  -0.13   0.00    -0.00  -0.02   0.00
  34   1     0.00   0.04  -0.00    -0.00   0.03  -0.00     0.00   0.05  -0.00
  35   1     0.07   0.14   0.00     0.14   0.28   0.00    -0.21  -0.41  -0.00
  36   1    -0.01  -0.01   0.03    -0.02  -0.03   0.06    -0.08  -0.08   0.17
  37   1     0.02   0.10   0.17     0.03   0.16   0.28    -0.02  -0.09  -0.16
  38   1    -0.01  -0.01   0.00    -0.01  -0.03   0.00    -0.14  -0.27  -0.00
  39   1    -0.07  -0.08   0.16    -0.15  -0.16   0.32    -0.10  -0.11   0.23
  40   1     0.07  -0.08  -0.16     0.15  -0.15  -0.32    -0.10   0.11   0.23
  41   1     0.00  -0.01  -0.00     0.01  -0.03  -0.00    -0.14   0.27  -0.00
  42   1    -0.02   0.10  -0.17    -0.03   0.16  -0.28    -0.02   0.10  -0.16
  43   1     0.01  -0.01  -0.03     0.02  -0.03  -0.06    -0.08   0.08   0.18
  44   1    -0.07   0.14  -0.00    -0.14   0.28  -0.00    -0.21   0.41  -0.00
  45   1    -0.00   0.04   0.00     0.00   0.02   0.00     0.00  -0.05  -0.00
  46   1     0.03   0.02  -0.00    -0.02  -0.01   0.00     0.00   0.00  -0.00
  47   1    -0.00   0.00   0.00     0.00  -0.00  -0.00    -0.00   0.00   0.00
  48   1    -0.00  -0.00  -0.00     0.00   0.00   0.00    -0.00  -0.00   0.00
  49   1     0.46   0.30   0.00    -0.24  -0.16  -0.00     0.03   0.02   0.00
  50   1    -0.01   0.23   0.00     0.01  -0.13  -0.00    -0.00   0.02   0.00
  51   1    -0.00   0.00   0.00    -0.00   0.00  -0.00    -0.00   0.00  -0.00
                    142                    143                    144
                        a                      a                      a 
 Frequencies --  3084.9761              3090.4747              3091.0706
 Red. masses --     1.8698                 1.9196                 1.9212
 Frc consts  --     0.0000                 0.0000                 0.0000
 IR Inten    --    98.3823                83.1135                10.7737
 Raman Activ --     0.0000                 0.0000                 0.0000
 Depolar     --     0.0000                 0.0000                 0.0000
 Atom AN      X      Y      Z        X      Y      Z        X      Y      Z
   1   6     0.00  -0.00  -0.00     0.00  -0.00   0.00     0.00  -0.00  -0.00
   2   6     0.00   0.00  -0.00     0.00  -0.00  -0.00     0.00   0.00   0.00
   3   6    -0.00   0.00  -0.00     0.00  -0.00  -0.00     0.00  -0.00   0.00
   4   6    -0.00   0.00   0.00    -0.00  -0.00  -0.00     0.00  -0.00   0.00
   5   6    -0.00  -0.00   0.00    -0.00   0.00  -0.00    -0.00  -0.00   0.00
   6   6    -0.00   0.00   0.00     0.00  -0.00   0.00     0.00  -0.00   0.00
   7   6     0.00   0.01   0.00    -0.00  -0.00  -0.00    -0.00  -0.01   0.00
   8   6    -0.00  -0.00   0.00    -0.00   0.00   0.00    -0.00  -0.00  -0.00
   9   6    -0.00  -0.00  -0.00    -0.00  -0.00  -0.00    -0.00  -0.00  -0.00
  10   6    -0.05  -0.11  -0.00    -0.04  -0.07  -0.00    -0.04  -0.07  -0.00
  11   6    -0.02  -0.03   0.06    -0.04  -0.04   0.09    -0.04  -0.04   0.09
  12   6    -0.00  -0.01  -0.03     0.01   0.06   0.11     0.01   0.06   0.11
  13   6    -0.04  -0.08  -0.00     0.04   0.07  -0.00     0.04   0.07  -0.00
  14   6    -0.04  -0.04   0.09     0.02   0.02  -0.04     0.02   0.02  -0.04
  15   6     0.00  -0.00   0.00    -0.00   0.00  -0.00     0.00  -0.00   0.00
  16   6     0.04  -0.04  -0.09     0.02  -0.02  -0.04    -0.02   0.02   0.04
  17   6     0.04  -0.08   0.00     0.04  -0.07  -0.00    -0.04   0.07   0.00
  18   6     0.00  -0.01   0.03     0.01  -0.06   0.11    -0.01   0.06  -0.11
  19   6     0.02  -0.03  -0.05    -0.04   0.04   0.09     0.04  -0.04  -0.09
  20   6     0.05  -0.11   0.00    -0.04   0.07  -0.00     0.04  -0.07   0.00
  21   6     0.00   0.00  -0.00     0.00   0.00   0.00    -0.00  -0.00  -0.00
  22   6    -0.00   0.01  -0.00    -0.00   0.00  -0.00     0.00  -0.01  -0.00
  23   6    -0.00   0.00   0.00     0.00   0.00  -0.00    -0.00   0.00  -0.00
  24   6    -0.00  -0.00   0.00     0.00   0.00   0.00    -0.00  -0.00   0.00
  25   6     0.00   0.00   0.00     0.00   0.00  -0.00    -0.00  -0.00  -0.00
  26   6    -0.00   0.00  -0.00    -0.00   0.00  -0.00    -0.00  -0.00  -0.00
  27   6     0.00  -0.00  -0.00    -0.00  -0.00  -0.00     0.00  -0.00  -0.00
  28   7     0.00   0.00  -0.00     0.00  -0.00  -0.00     0.00  -0.00  -0.00
  29   1     0.00   0.00   0.00    -0.00  -0.00  -0.00    -0.00  -0.00  -0.00
  30   1    -0.00   0.00   0.00    -0.00   0.00   0.00    -0.00   0.00   0.00
  31   1    -0.00  -0.00  -0.00     0.00   0.00  -0.00     0.00  -0.00   0.00
  32   1     0.00  -0.00  -0.00    -0.00   0.00   0.00    -0.01   0.01  -0.00
  33   1    -0.00  -0.01   0.00     0.00   0.00   0.00     0.00   0.01  -0.00
  34   1    -0.00  -0.03  -0.00    -0.00   0.00   0.00     0.00   0.02  -0.00
  35   1     0.19   0.37   0.00     0.13   0.25   0.00     0.12   0.25   0.00
  36   1     0.08   0.09  -0.19     0.13   0.13  -0.28     0.12   0.13  -0.28
  37   1     0.01   0.06   0.10    -0.03  -0.21  -0.36    -0.03  -0.21  -0.36
  38   1     0.14   0.26   0.00    -0.11  -0.22  -0.00    -0.12  -0.23  -0.00
  39   1     0.14   0.15  -0.31    -0.06  -0.07   0.14    -0.07  -0.07   0.15
  40   1    -0.14   0.15   0.31    -0.06   0.07   0.14     0.07  -0.07  -0.15
  41   1    -0.13   0.26  -0.00    -0.11   0.22  -0.00     0.12  -0.23   0.00
  42   1    -0.01   0.05  -0.09    -0.03   0.21  -0.36     0.03  -0.21   0.36
  43   1    -0.08   0.09   0.18     0.13  -0.13  -0.28    -0.12   0.13   0.28
  44   1    -0.19   0.37  -0.00     0.13  -0.25   0.00    -0.12   0.24  -0.00
  45   1     0.00  -0.03   0.00    -0.00  -0.00   0.00    -0.00   0.02   0.00
  46   1     0.00   0.00  -0.00    -0.00  -0.00   0.00     0.00   0.00  -0.00
  47   1     0.00  -0.00   0.00     0.00  -0.00  -0.00    -0.00  -0.00  -0.00
  48   1    -0.00   0.00  -0.00    -0.00   0.00  -0.00     0.00  -0.00   0.00
  49   1    -0.00  -0.00   0.00    -0.00  -0.00   0.00     0.01   0.01   0.00
  50   1     0.00  -0.01  -0.00     0.00  -0.00   0.00    -0.00   0.01   0.00
  51   1     0.00   0.00   0.00     0.00  -0.00   0.00     0.00   0.00   0.00
                    145                    146                    147
                        a                      a                      a 
 Frequencies --  3101.6350              3101.9429              3447.5994
 Red. masses --     1.8117                 1.8113                 1.8265
 Frc consts  --     0.0000                 0.0000                 0.0000
 IR Inten    --     4.1960                30.1491                 2.9286
 Raman Activ --     0.0000                 0.0000                 0.0000
 Depolar     --     0.0000                 0.0000                 0.0000
 Atom AN      X      Y      Z        X      Y      Z        X      Y      Z
   1   6     0.00  -0.00   0.00     0.00  -0.01   0.00    -0.00   0.00   0.00
   2   6    -0.01  -0.01   0.00    -0.01  -0.01   0.00    -0.00  -0.00   0.00
   3   6    -0.00   0.01  -0.00    -0.01   0.01  -0.00     0.00   0.00  -0.00
   4   6     0.00   0.00  -0.00     0.00   0.00  -0.00    -0.00  -0.00   0.00
   5   6    -0.00   0.00  -0.00    -0.00   0.00  -0.00     0.00   0.01  -0.00
   6   6     0.00  -0.00  -0.00     0.00  -0.00  -0.00    -0.00  -0.00   0.00
   7   6    -0.01  -0.19   0.01    -0.01  -0.19   0.01     0.00   0.00  -0.00
   8   6     0.00   0.00  -0.00    -0.00  -0.00   0.00     0.00  -0.00  -0.00
   9   6    -0.00   0.00   0.00     0.00   0.00   0.00    -0.00  -0.00  -0.00
  10   6    -0.00  -0.01  -0.00     0.00   0.00   0.00    -0.00  -0.00   0.00
  11   6    -0.00  -0.00   0.00    -0.00  -0.00   0.00     0.00   0.00   0.00
  12   6     0.00   0.00  -0.00     0.00   0.00   0.00     0.00  -0.00  -0.00
  13   6    -0.00  -0.00   0.00    -0.00  -0.00  -0.00    -0.00  -0.00   0.00
  14   6    -0.01  -0.01   0.01    -0.01  -0.01   0.01     0.00   0.00  -0.00
  15   6    -0.00  -0.00   0.00    -0.00   0.00  -0.00     0.00  -0.00   0.00
  16   6    -0.01   0.01   0.01     0.01  -0.01  -0.01    -0.00   0.00   0.00
  17   6    -0.00   0.00   0.00     0.00  -0.00   0.00     0.00  -0.00  -0.00
  18   6     0.00  -0.00  -0.00    -0.00   0.00  -0.00    -0.00  -0.00   0.00
  19   6    -0.00   0.00   0.00     0.00  -0.00  -0.00    -0.00   0.00  -0.00
  20   6    -0.00   0.01  -0.00    -0.00   0.00  -0.00     0.00  -0.00  -0.00
  21   6     0.00   0.00  -0.00    -0.00  -0.00   0.00     0.00  -0.00  -0.00
  22   6    -0.01   0.19   0.01     0.01  -0.19  -0.01    -0.00   0.00   0.00
  23   6    -0.01   0.01   0.00     0.01  -0.01  -0.00     0.00  -0.00  -0.00
  24   6     0.00   0.00   0.00    -0.00  -0.01  -0.00     0.00   0.00  -0.00
  25   6    -0.00  -0.01  -0.00     0.01   0.01   0.00    -0.00   0.00   0.00
  26   6     0.00  -0.00  -0.00    -0.00   0.00   0.00     0.00  -0.00  -0.00
  27   6    -0.00  -0.00  -0.00     0.00   0.00   0.00    -0.00   0.01   0.00
  28   7    -0.00   0.00  -0.00    -0.00  -0.00  -0.00     0.00   0.25  -0.00
  29   1     0.00   0.00   0.01     0.00   0.01   0.01    -0.00  -0.00  -0.00
  30   1    -0.01   0.01   0.00    -0.01   0.01   0.00     0.00  -0.00   0.00
  31   1     0.00   0.01  -0.01     0.00   0.01  -0.01    -0.00  -0.00   0.00
  32   1     0.02  -0.01   0.00     0.02  -0.02   0.00    -0.00  -0.00   0.00
  33   1    -0.00  -0.01   0.00    -0.00  -0.01   0.00     0.00  -0.00   0.00
  34   1     0.03   0.68  -0.02     0.03   0.68  -0.02     0.00   0.00  -0.00
  35   1     0.01   0.03   0.00    -0.00  -0.01  -0.00     0.00   0.00  -0.00
  36   1     0.00   0.00  -0.01     0.00   0.00  -0.00     0.00  -0.00   0.00
  37   1     0.00   0.00   0.00    -0.00  -0.00  -0.00     0.00   0.00   0.00
  38   1     0.00   0.01  -0.00     0.00   0.00  -0.00     0.00   0.00  -0.00
  39   1     0.03   0.02  -0.05     0.02   0.02  -0.05    -0.00  -0.00   0.00
  40   1     0.03  -0.02  -0.05    -0.02   0.02   0.05     0.00  -0.00  -0.00
  41   1     0.00  -0.01  -0.00    -0.00   0.00   0.00    -0.00   0.00   0.00
  42   1     0.00  -0.00   0.00     0.00  -0.00   0.00    -0.00   0.00  -0.00
  43   1     0.00  -0.00  -0.01    -0.00   0.00   0.00    -0.00  -0.00  -0.00
  44   1     0.01  -0.03   0.00     0.00  -0.01   0.00    -0.00   0.00   0.00
  45   1     0.03  -0.68  -0.02    -0.03   0.68   0.02    -0.00   0.00   0.00
  46   1    -0.01  -0.01   0.00     0.01   0.01  -0.00    -0.00  -0.00  -0.00
  47   1     0.00  -0.01  -0.01    -0.00   0.01   0.01     0.00  -0.00  -0.00
  48   1     0.00  -0.00   0.01    -0.00   0.01  -0.01     0.00  -0.00   0.00
  49   1     0.02   0.01   0.00    -0.02  -0.02  -0.00     0.00  -0.00  -0.00
  50   1    -0.00   0.01   0.00     0.00  -0.01  -0.00    -0.00  -0.00  -0.00
  51   1    -0.00  -0.00   0.00    -0.00   0.00   0.00    -0.00  -0.97   0.00
