$hessian                                                                        
        0.4689912172   0.0056282384   0.0359692330  -0.1425670136   0.0175133104
        0.0568318564  -0.0298374241   0.0030164231   0.0119201872  -0.0011738691
       -0.0041219929   0.0074455292   0.0002238653   0.0009417120  -0.0005065025
        0.0001447784  -0.0000585964   0.0003306333   0.0000067229  -0.0000137407
       -0.0000425599   0.0000351541  -0.0002326326   0.0002443756  -0.0000201629
        0.0000793452   0.0000118275  -0.0000514622  -0.0000409329  -0.0000213273
       -0.0000074569  -0.0000182750   0.0000088229  -0.0006085187   0.0002096128
       -0.0011236919   0.0001428525  -0.0002015987  -0.0001555289  -0.0008106087
       -0.0000842283  -0.0000150704   0.0004746124   0.0002531559   0.0000848128
        0.0000082760   0.0000059818   0.0000128828  -0.0000334702  -0.0000479475
        0.0000105459  -0.0000406319   0.0000283554   0.0000038302  -0.0000758480
        0.0000438598  -0.0000014364   0.0001169283   0.0000048142  -0.0001326768
        0.0000063753  -0.0000508603   0.0000732323   0.0000899611  -0.0000257544
       -0.0000441267  -0.0000572471   0.0000581208  -0.0000372972  -0.0000260139
       -0.0000181802   0.0000604791  -0.0000891150   0.0001331305  -0.0001299597
        0.0001554211  -0.0000818310  -0.0000128467  -0.0001472726  -0.0000037926
        0.0001476675  -0.0000004356   0.0000388925  -0.0000580395  -0.0000715559
        0.0000190700   0.0000493484   0.0000687618  -0.0000633634   0.0000358259
        0.0000339140   0.0000261157  -0.0000780526   0.0000761220  -0.0001154642
        0.0001257270   0.0000096439   0.0000199602  -0.0000102479  -0.0000332456
       -0.0000019665  -0.0000007453   0.0000260198   0.0000063223   0.0000159134
       -0.0000526570   0.0000111702   0.0000017690  -0.0000832297  -0.0000144373
       -0.0000055126   0.0001214630  -0.0000190478   0.0001411184  -0.0000140151
        0.0000404854  -0.0000617422   0.0000753970   0.0000240519   0.0000379713
       -0.0000506941  -0.0000519827   0.0000321159  -0.0000217826   0.0000183612
       -0.0000525729  -0.0000844144  -0.0001331302   0.0001245812   0.0001425379
        0.0000881130  -0.0000055931  -0.0001280814   0.0000005103  -0.0001254638
       -0.0000007893  -0.0000332690   0.0000494126  -0.0000660793  -0.0000187300
       -0.0000492433   0.0000680869   0.0000607463  -0.0000309707   0.0000204955
       -0.0000247393   0.0000667842   0.0000687582   0.0000928233  -0.0001155372
        0.0000041380   0.0000358150   0.0000035380  -0.0000157615  -0.0001058136
       -0.0000325936  -0.0000426497   0.0000175581  -0.0000046523   0.0000377245
        0.0001618813  -0.0000818929   0.0002805147  -0.0001545732   0.0000921557
       -0.2026320998  -0.0333963793  -0.1083135908  -0.0422593562   0.0042112318
       -0.0071565844  -0.0427842981   0.0041241804   0.0004989243  -0.0042873149
        0.0024674797   0.0045749840  -0.0052534275  -0.0008093767  -0.0023345866
        0.0007871582  -0.0001140932   0.0009265253   0.0011982593   0.0006028942
        0.0008125716  -0.0000981088   0.0000436609   0.0000938204  -0.0000288549
        0.0000411920  -0.0000034342  -0.0000154427   0.0000314610  -0.0000231220
        0.0000256379  -0.0000505474  -0.0000118320   0.0000013482   0.0000135948
        0.0000106780   0.0000361484   0.0000028380   0.0000027656   0.0000184934
       -0.0000033805  -0.0000272735  -0.0000034414  -0.0000043430  -0.0000224038
        0.0000102323   0.0000096406   0.0000056757   0.0000112917   0.0000019646
       -0.0000096224   0.0000381533  -0.0000011231  -0.0000066383  -0.0000017743
       -0.0000005206   0.0000012991   0.0000001182   0.0000000559   0.0000002398
       -0.0000052629   0.0000011525   0.0000015805  -0.0000043529   0.0000023358
        0.0000009171  -0.0000011614   0.0000016469  -0.0000020179  -0.0000023745
        0.0000019713  -0.0000006697  -0.0000025337  -0.0000003318  -0.0000009702
       -0.0000045486   0.0000022648  -0.0000018968   0.0000142133  -0.0000031288
        0.0000028543   0.0000150266  -0.0000063042  -0.0000053302   0.0000065168
        0.0000019848  -0.0000041264   0.0000007442   0.0000017371  -0.0000034751
       -0.0000001306   0.0000005210  -0.0000006804  -0.0000008601  -0.0000002025
       -0.0000018921  -0.0000001293  -0.0000006391   0.0000008224   0.0000002983
        0.0000007947  -0.0000002433  -0.0000015375   0.0000037894   0.0000016217
        0.0000012784   0.0000003543   0.0000069793   0.0000038558  -0.0000194325
       -0.0000081614
        0.0056282384   0.5245615766  -0.0040303883   0.0133451040  -0.0700563285
       -0.0110277999  -0.0037962569   0.0013395336   0.0021400779  -0.0126038213
        0.0029789749   0.0111584943  -0.0000711402  -0.0010138117   0.0005025444
        0.0004078141   0.0005055284  -0.0005655479  -0.0000271215   0.0001730889
        0.0003174553   0.0008719867  -0.0001542103   0.0004279633   0.0000411881
       -0.0001785932   0.0000065531   0.0000288826   0.0000515409   0.0000434148
       -0.0000253761   0.0000260750   0.0000478966  -0.0002069925  -0.0019420088
        0.0009434500  -0.0003563917   0.0003446421  -0.0005722535   0.0002428018
       -0.0000427644   0.0001392546  -0.0001513803  -0.0000242355  -0.0000914058
       -0.0000433249   0.0001804955  -0.0000079686   0.0000046545   0.0000257319
       -0.0000093697   0.0000001325  -0.0000113256   0.0000007926   0.0000124096
       -0.0000090410  -0.0000129303  -0.0000120528  -0.0000053702   0.0000313472
       -0.0000075214   0.0000076821  -0.0000048972  -0.0000015375  -0.0000019193
        0.0000046695  -0.0000005448   0.0000041711  -0.0000032916  -0.0000016584
       -0.0000010609   0.0000031660   0.0000021675  -0.0000009925   0.0000061727
        0.0000122242  -0.0000007906  -0.0000142970  -0.0000078786   0.0000014729
        0.0000060762   0.0000021017  -0.0000018526  -0.0000023022  -0.0000027756
       -0.0000000336   0.0000032758  -0.0000046242   0.0000051368  -0.0000055351
       -0.0000208548   0.0000051577   0.0000075902   0.0000016813   0.0000055040
       -0.0000076380   0.0000110507  -0.0000237892  -0.0000052989  -0.0000142757
        0.0000336019   0.0000091578  -0.0000018137  -0.0000188427  -0.0000031309
        0.0000080052  -0.0000004329   0.0000028255  -0.0000118941   0.0000023790
       -0.0000181212   0.0000110214  -0.0000088401   0.0000260309   0.0000077472
        0.0000096760  -0.0000006746   0.0000027704  -0.0000015388   0.0000032128
        0.0000023227   0.0000068376  -0.0000079450  -0.0000004773  -0.0000034591
        0.0000046339   0.0000009052  -0.0000006766  -0.0000021604  -0.0000276806
       -0.0000017033  -0.0000246140   0.0000181637  -0.0000006188   0.0000203967
       -0.0000051363  -0.0000036016  -0.0000048406   0.0000046723  -0.0000015423
        0.0000046707   0.0000084591   0.0000095178  -0.0000071836   0.0000245090
        0.0000124432   0.0000077836  -0.0000051685  -0.0000081019   0.0000061251
        0.0000081663   0.0000521415   0.0000002464   0.0000176406   0.0000828994
       -0.0000157674  -0.0000130118   0.0000311513   0.0000106380  -0.0002201501
       -0.0001174214   0.0002376403   0.0001149677   0.0001164635  -0.0001950512
       -0.0334424395  -0.0522985708  -0.0221259170   0.0044871703  -0.1423999499
        0.1175335344   0.0044366397  -0.2556304058  -0.0778802038   0.0236584139
       -0.0075144746  -0.0183587410  -0.0011622007   0.0005137926  -0.0002332271
        0.0003483173   0.0001309544  -0.0001596040  -0.0007145531   0.0006658958
        0.0006620150  -0.0006826764  -0.0004529285   0.0009238061   0.0000026654
        0.0000014658   0.0000279865  -0.0001213265   0.0000090978   0.0000858836
       -0.0000090703   0.0000548749   0.0000380466   0.0000075671   0.0000059842
       -0.0000245240  -0.0000075734  -0.0000038610  -0.0000134719  -0.0000150485
        0.0000061364   0.0000480084   0.0000277115   0.0000202809   0.0000488343
       -0.0000139752   0.0000084848  -0.0000165612  -0.0000026913  -0.0000062066
       -0.0000099955  -0.0000128208  -0.0000088106   0.0000009279   0.0000019288
       -0.0000013772   0.0000047191   0.0000031433   0.0000015007  -0.0000031890
        0.0000049724   0.0000003521  -0.0000035344   0.0000050670  -0.0000003567
       -0.0000022378   0.0000041517  -0.0000027407  -0.0000005214   0.0000056924
       -0.0000049232   0.0000007738   0.0000030349  -0.0000017478  -0.0000024803
        0.0000055437   0.0000026038  -0.0000026321   0.0000054044  -0.0000031456
       -0.0000023486   0.0000006243  -0.0000053559  -0.0000038311  -0.0000004031
       -0.0000020028   0.0000015758  -0.0000030556   0.0000010322  -0.0000053323
       -0.0000043651  -0.0000005794  -0.0000049844  -0.0000039079  -0.0000004985
       -0.0000045561  -0.0000041842  -0.0000031826  -0.0000028885  -0.0000074377
       -0.0000059981  -0.0000009286  -0.0000050314  -0.0000021369  -0.0000034535
       -0.0000087111  -0.0000016595  -0.0000014144   0.0000124972  -0.0000100598
        0.0000073231
        0.0359692330  -0.0040303883   0.4972138699   0.0620481198  -0.0145861167
       -0.1022299889  -0.0090055991   0.0015538320   0.0065914666   0.0185785515
        0.0034020291  -0.0231065461   0.0006925635  -0.0010006371  -0.0002666026
       -0.0008638196  -0.0002385042  -0.0001088461  -0.0000356901  -0.0001989504
       -0.0001241224  -0.0012090047   0.0001985446  -0.0007926723   0.0000067371
        0.0001036642  -0.0001100762  -0.0000189600  -0.0000339661  -0.0000190847
       -0.0000174935  -0.0000299020  -0.0000063934   0.0003619200   0.0021943593
       -0.0009983415   0.0005073819   0.0000747767   0.0001458916   0.0001016515
        0.0001759501   0.0000087839  -0.0002194662  -0.0001665991   0.0000533884
        0.0000269478  -0.0000017319  -0.0000366677  -0.0000027455  -0.0000269341
       -0.0000123369   0.0000304083   0.0000254332   0.0000111893   0.0000217693
       -0.0000248811   0.0000127493  -0.0000201027  -0.0000082742   0.0000372989
       -0.0000098994   0.0000188622  -0.0000182296  -0.0000224741   0.0000065453
        0.0000141420   0.0000073827  -0.0000061920   0.0000018653   0.0000034871
        0.0000009717  -0.0000053513   0.0000077789  -0.0000074862   0.0000025146
       -0.0000111978  -0.0000042404   0.0000155605   0.0000218767   0.0000005683
       -0.0000210913   0.0000022361  -0.0000000528   0.0000000737   0.0000073693
       -0.0000031765  -0.0000050486  -0.0000077374   0.0000112894  -0.0000148341
       -0.0000106666  -0.0000008244   0.0000164814  -0.0000114866   0.0000377063
       -0.0000600790  -0.0000404797  -0.0000208486   0.0000071247   0.0000226383
        0.0000214492  -0.0000017305   0.0000082790  -0.0000196601   0.0000003114
       -0.0000107501   0.0000225661   0.0000076926   0.0000077428   0.0000090384
        0.0000266462  -0.0000409858  -0.0000137994  -0.0000384123   0.0000049409
        0.0000013165   0.0000241691  -0.0000203401  -0.0000052624  -0.0000060191
        0.0000229202   0.0000261515  -0.0000167413   0.0000079221  -0.0000080811
        0.0000275634   0.0000390142   0.0000585953  -0.0000571534  -0.0000639490
       -0.0000509874   0.0000115346   0.0000465615  -0.0000057544   0.0000454704
        0.0000000207   0.0000217298  -0.0000296840   0.0000316351   0.0000081655
        0.0000210962  -0.0000270504  -0.0000215112   0.0000015627  -0.0000072118
        0.0000156043  -0.0000220113  -0.0000203692  -0.0000264596  -0.0000027035
        0.0000010119  -0.0000150795   0.0000138060   0.0000295148   0.0000178116
       -0.0000197201   0.0000248450  -0.0000340702  -0.0000018986  -0.0001044942
        0.0002300526  -0.0000535746   0.0000568671  -0.0002506334   0.0000273225
       -0.1079159710  -0.0219850897  -0.1150079024  -0.0069543658   0.1170993504
       -0.1818806752   0.0006308566  -0.0776933202  -0.0719964932   0.0113249419
       -0.0044391924  -0.0078694134  -0.0034059199  -0.0003564192  -0.0006136299
       -0.0007243180  -0.0002083439   0.0008533811  -0.0004648101   0.0003150068
        0.0005950634   0.0003848818  -0.0001275905  -0.0001318507   0.0000428305
       -0.0000062883   0.0000144377   0.0002132912   0.0000172208  -0.0000158411
        0.0000100260   0.0000424185   0.0000010708   0.0000035018   0.0000005024
        0.0000032917  -0.0000281607   0.0000041924   0.0000118145   0.0000102795
        0.0000040402  -0.0000357933  -0.0000200439  -0.0000032546  -0.0000327825
        0.0000042739   0.0000002599  -0.0000010456   0.0000229445   0.0000099706
       -0.0000125574  -0.0000217131  -0.0000062381  -0.0000091858   0.0000039638
        0.0000023023   0.0000017190   0.0000004394   0.0000019676  -0.0000005287
        0.0000047678   0.0000005736  -0.0000034815   0.0000041288  -0.0000012450
       -0.0000018965   0.0000020044  -0.0000025601   0.0000005941   0.0000021765
       -0.0000035060   0.0000010279  -0.0000004014  -0.0000012513   0.0000015364
        0.0000027229  -0.0000001228   0.0000013918   0.0000007805  -0.0000100011
       -0.0000056347  -0.0000069599  -0.0000083388  -0.0000024459  -0.0000000699
       -0.0000015647  -0.0000029601  -0.0000017442   0.0000013456  -0.0000027481
       -0.0000059635  -0.0000011492  -0.0000020636  -0.0000039220  -0.0000033494
       -0.0000008118  -0.0000006997  -0.0000037861   0.0000017523  -0.0000001200
       -0.0000043719   0.0000003086   0.0000024064  -0.0000031504   0.0000028366
        0.0000038158  -0.0000046207   0.0000040631  -0.0000172057  -0.0000204052
       -0.0000181611
       -0.1425670136   0.0133451040   0.0620481198   0.4457940520  -0.0007215505
        0.0005893555  -0.1511068668  -0.0165902302  -0.0575705053  -0.0558888454
        0.0030929909  -0.0046563501  -0.0005033552   0.0008919492  -0.0003663220
        0.0066065449   0.0001588208  -0.0001490464  -0.0002410142  -0.0000316992
       -0.0000777354   0.0069983345   0.0001078769  -0.0003866986  -0.0003231577
       -0.0000320467  -0.0000056507  -0.0000032726  -0.0000094736  -0.0000035936
       -0.0000167488   0.0000238459  -0.0000277063   0.0030147029   0.0004121640
       -0.0011766264  -0.0022513796   0.0000358614   0.0000046137  -0.0003600090
        0.0003817052  -0.0000050801   0.0004716634   0.0001239757   0.0001346486
       -0.0001188374   0.0000187521   0.0000763844  -0.0000124745  -0.0000005359
       -0.0000057606  -0.0000241611  -0.0000065315  -0.0000003484  -0.0000389164
       -0.0000039643  -0.0000107543   0.0000528084   0.0000112334  -0.0000492089
       -0.0000010945  -0.0000293503   0.0000251802   0.0000417891  -0.0000162375
       -0.0000181086  -0.0000295172   0.0000251900  -0.0000156642  -0.0000163236
       -0.0000093510   0.0000258070  -0.0000430395   0.0000644125  -0.0000611126
        0.0000703359  -0.0000387546   0.0000034361  -0.0000650815   0.0000019747
        0.0000619825  -0.0000044169   0.0000174353  -0.0000276734  -0.0000363399
        0.0000114160   0.0000215520   0.0000360769  -0.0000330101   0.0000125574
        0.0000125610  -0.0000003943  -0.0000366415   0.0000333228  -0.0000313464
        0.0000487213   0.0000005029   0.0000025909  -0.0000054867  -0.0000031827
        0.0000036447   0.0000007986  -0.0000032753  -0.0000025033   0.0000076789
       -0.0000219136  -0.0000016796  -0.0000001999  -0.0000378455   0.0000018077
        0.0000091244   0.0000527521  -0.0000108728   0.0000502230  -0.0000005917
        0.0000292693  -0.0000248678   0.0000415026   0.0000165366   0.0000187432
       -0.0000295670  -0.0000264855   0.0000151902  -0.0000160516   0.0000088185
       -0.0000253841  -0.0000419811  -0.0000666949   0.0000595066   0.0000678293
        0.0000409950  -0.0000023067  -0.0000636565  -0.0000017706  -0.0000607777
       -0.0000041359  -0.0000185551   0.0000281416  -0.0000354423  -0.0000114822
       -0.0000208624   0.0000363498   0.0000341173  -0.0000111680   0.0000140130
        0.0000002485   0.0000376293   0.0000328924   0.0000315909  -0.0000469499
       -0.0000052665  -0.0000000309   0.0000036710  -0.0001155212  -0.0000116805
       -0.0000810159  -0.0000628097  -0.0000008388   0.0000016248  -0.0002124622
       -0.0003872672   0.0000391199   0.0004255491  -0.0000569099  -0.0000927566
       -0.0255517266   0.0030173865   0.0140041416  -0.0023633748  -0.0003067153
        0.0037469552  -0.0027550004   0.0035817390   0.0029965195  -0.0412929155
        0.0005914846   0.0001317091  -0.0257309607  -0.0036204005  -0.0113044944
       -0.0049135939  -0.0000028663  -0.0051465956  -0.0030347328  -0.0038525824
       -0.0028976052  -0.0025496607  -0.0001007564   0.0001081726   0.0000421522
       -0.0000081935  -0.0000047647  -0.0014980424  -0.0000554825   0.0000777391
        0.0000261040   0.0000111967   0.0000027328   0.0000020414   0.0000035238
        0.0000020364   0.0000103612  -0.0000012207   0.0000083275   0.0000068652
       -0.0000140143  -0.0000119815   0.0000003071   0.0000217408   0.0000042163
        0.0000135450   0.0000019108  -0.0000009269   0.0000149907  -0.0000128210
       -0.0000177325   0.0000201608   0.0000180664   0.0000080273   0.0000018646
        0.0000023701   0.0000040729  -0.0000007234   0.0000005417   0.0000013297
       -0.0000017153  -0.0000000804  -0.0000005423  -0.0000006198  -0.0000003735
        0.0000015963   0.0000013968   0.0000008152  -0.0000020672   0.0000002741
        0.0000001569   0.0000008446  -0.0000008177  -0.0000000991   0.0000000610
        0.0000019192   0.0000053946  -0.0000022397   0.0000184201   0.0000000408
        0.0000035124   0.0000174431   0.0000011405  -0.0000037405   0.0000017894
       -0.0000016755  -0.0000043524  -0.0000005114  -0.0000009032  -0.0000008767
       -0.0000011883  -0.0000006078   0.0000006413  -0.0000007997   0.0000000122
       -0.0000011906   0.0000011741  -0.0000005154   0.0000022537   0.0000001212
        0.0000001319  -0.0000003552  -0.0000017822   0.0000002337  -0.0000001499
        0.0000007150  -0.0000052067   0.0000016965   0.0000185061  -0.0000164514
       -0.0000084170
        0.0175133104  -0.0700563285  -0.0145861167  -0.0007215505   0.5328463197
        0.0189649431  -0.0210994976  -0.0709916863  -0.0148637038   0.0035715994
       -0.1166358079   0.0642483747   0.0014220475  -0.0239779109   0.0233559514
        0.0001551657  -0.0051023777  -0.0013281644   0.0000012754  -0.0004724496
       -0.0001334672   0.0000228713  -0.0001784629  -0.0025597418  -0.0000665108
        0.0004551545  -0.0003114688  -0.0000617691  -0.0001709022  -0.0001180529
        0.0000870322  -0.0001306058  -0.0001051090  -0.0002148162   0.0083282958
       -0.0027724327  -0.0001117294  -0.0014661600  -0.0005008040  -0.0000981484
        0.0004425426  -0.0011357395   0.0001197837  -0.0001199621   0.0001089394
        0.0000390351  -0.0002592877   0.0002099290   0.0000402915  -0.0000465521
        0.0000134226   0.0000366863   0.0000684779  -0.0000154054   0.0000233022
        0.0000220754  -0.0000068010  -0.0000168228  -0.0000171336   0.0000270869
        0.0000111936  -0.0000103745   0.0000122662  -0.0000129760   0.0000011485
        0.0000055428  -0.0000040657  -0.0000007430   0.0000033305  -0.0000096126
        0.0000007320   0.0000065582   0.0000107859  -0.0000083311   0.0000103697
       -0.0000056308   0.0000071092  -0.0000144758  -0.0000049948   0.0000016247
        0.0000027776  -0.0000060277   0.0000010185   0.0000038483  -0.0000130339
        0.0000044422   0.0000039856  -0.0000178917   0.0000156363  -0.0000019667
        0.0000164970   0.0000094661   0.0000055517  -0.0000038076   0.0000026006
       -0.0000214247  -0.0000319079  -0.0000088643   0.0000260328  -0.0000027941
       -0.0000015280  -0.0000668487   0.0000302533   0.0000005379   0.0000235188
       -0.0000191709   0.0000625560  -0.0000155081  -0.0000061587   0.0000266695
       -0.0000077688  -0.0000061957  -0.0000140300  -0.0000001321  -0.0000087169
       -0.0000171730   0.0000236458  -0.0000002098  -0.0000019789  -0.0000026521
        0.0000114184   0.0000084800  -0.0000037465   0.0000111899  -0.0000027165
        0.0000155306   0.0000034898   0.0000127302  -0.0000136656  -0.0000230277
       -0.0000057754  -0.0000154740   0.0000286915   0.0000019490   0.0000295255
        0.0000041320   0.0000055983  -0.0000047335   0.0000221170   0.0000066534
        0.0000122635   0.0000073563   0.0000055518   0.0000038535  -0.0000176224
        0.0000138523  -0.0000073258  -0.0000105471  -0.0000181633   0.0000057814
       -0.0000147862  -0.0000305620   0.0000149429  -0.0000435738  -0.0003160671
        0.0002013956  -0.0000300840  -0.0001417072  -0.0000303488   0.0000711937
        0.0005437625  -0.0009498552  -0.0000504547  -0.0001301711   0.0000436270
       -0.0041669709   0.0009647658   0.0027204088  -0.0149380880   0.0018470405
        0.0118443352   0.0233539245  -0.0071855317  -0.0178389502   0.0005575087
       -0.2434214522  -0.0623743419   0.0036277122   0.0010074498   0.0020534557
        0.0156779642   0.0023243428   0.0104272979  -0.0246520761  -0.0080166585
       -0.0159503057  -0.0000299036   0.0006603885   0.0006746126   0.0000886749
       -0.0009406009   0.0010688389  -0.0000392516   0.0001416073  -0.0001163928
        0.0000193826  -0.0000255475  -0.0000773582   0.0000017916   0.0000211482
        0.0000084654   0.0000189371   0.0000193217   0.0000280349   0.0000451749
        0.0000036288  -0.0001130050  -0.0000683676  -0.0000127262  -0.0000955710
       -0.0000103696   0.0000183152   0.0000105200  -0.0000127941   0.0000303760
        0.0000229535   0.0000087411   0.0000096882  -0.0000111243   0.0000030205
        0.0000076898  -0.0000227541   0.0000004328   0.0000034244  -0.0000034829
       -0.0000023395   0.0000012000  -0.0000004371  -0.0000003514   0.0000014579
       -0.0000013272  -0.0000003259   0.0000014689  -0.0000006346   0.0000017172
        0.0000003258  -0.0000000615   0.0000073914  -0.0000069808   0.0000051030
        0.0000059809  -0.0000274701  -0.0000024063   0.0000001981   0.0000071457
       -0.0000058414  -0.0000000984   0.0000060003  -0.0000052436  -0.0000037215
        0.0000083965  -0.0000218063  -0.0000005416   0.0000037832  -0.0000028275
        0.0000023217   0.0000018719  -0.0000001402   0.0000003893   0.0000022471
       -0.0000013973   0.0000003022   0.0000023368  -0.0000011443  -0.0000022327
        0.0000010751  -0.0000004347  -0.0000079219  -0.0000066194   0.0000043032
       -0.0000078220  -0.0000256134  -0.0000021550  -0.0000049734   0.0000115325
       -0.0000092472
        0.0568318564  -0.0110277999  -0.1022299889   0.0005893555   0.0189649431
        0.4692530512  -0.0523682908  -0.0114716776  -0.0928019178  -0.0045632137
        0.0576991935  -0.1452883652  -0.0000983009   0.0081686890   0.0013222906
       -0.0001330869  -0.0017126984   0.0016251364  -0.0000479260   0.0004854463
       -0.0009281698  -0.0003512803  -0.0030713960  -0.0025141317   0.0000049013
        0.0006380508  -0.0008779330  -0.0000264372  -0.0000269578  -0.0001732521
       -0.0000136756  -0.0000119552  -0.0000853590  -0.0015630198   0.0113098359
       -0.0307318599   0.0000319018   0.0014173486  -0.0017005102   0.0000352172
        0.0003481972  -0.0002827824  -0.0001226990  -0.0001874957   0.0000650997
       -0.0000090614   0.0000704341  -0.0000218287   0.0000101940  -0.0000395485
        0.0000002959   0.0000325127   0.0000204242   0.0000073840   0.0000088302
       -0.0000090991   0.0000239420   0.0000041379  -0.0000055706  -0.0000065514
       -0.0000056519   0.0000075396   0.0000033166  -0.0000139445   0.0000072946
        0.0000053652  -0.0000009893  -0.0000007815   0.0000002117   0.0000002918
        0.0000004611   0.0000008628  -0.0000025481   0.0000029591  -0.0000098394
       -0.0000060872  -0.0000084042   0.0000242713   0.0000096590  -0.0000005521
       -0.0000120301  -0.0000029075   0.0000036892  -0.0000003807  -0.0000046242
        0.0000010428   0.0000022606  -0.0000011328   0.0000036228  -0.0000032615
        0.0000112930   0.0000011799   0.0000027233  -0.0000055642   0.0000170702
       -0.0000356421  -0.0000119014  -0.0000204470   0.0000104402  -0.0000033671
        0.0000194089  -0.0000040407   0.0000136839  -0.0000153991   0.0000090846
       -0.0000209863   0.0000195648   0.0000070152   0.0000024636  -0.0000066244
        0.0000239942  -0.0000179119  -0.0000028043  -0.0000229786   0.0000075015
        0.0000031258   0.0000100739   0.0000062064   0.0000056264   0.0000006879
        0.0000049350   0.0000039090  -0.0000030234   0.0000013436  -0.0000027171
        0.0000060054   0.0000093727   0.0000209793  -0.0000209496  -0.0000095382
       -0.0000223233   0.0000212561   0.0000050016  -0.0000010783   0.0000038492
        0.0000025510   0.0000062195  -0.0000052075   0.0000107966   0.0000022594
        0.0000079573  -0.0000041699  -0.0000026041   0.0000004722  -0.0000114593
        0.0000026040  -0.0000047687  -0.0000019686   0.0000049017  -0.0000191984
        0.0000041886  -0.0000261634   0.0000022710   0.0000216279   0.0000275153
       -0.0000151407  -0.0000132249  -0.0000414414  -0.0000048230  -0.0000451303
        0.0004686450  -0.0001878847   0.0001096892  -0.0001976545   0.0000960732
       -0.0102980363   0.0018909000   0.0079371094   0.0204040324  -0.0012659039
       -0.0178424667   0.0098853005  -0.0051804478  -0.0082834272   0.0001280198
       -0.0613269354  -0.0617625953   0.0129688566   0.0025050914   0.0080262174
       -0.0215035354  -0.0019072543  -0.0157707643  -0.0101037308  -0.0051542799
       -0.0071879264   0.0001157777  -0.0009364447  -0.0000017657   0.0000288268
       -0.0004540490   0.0001906077   0.0000697777  -0.0000931574   0.0001114706
       -0.0000212483   0.0001559902   0.0000991733  -0.0000000878  -0.0000319504
        0.0000099825  -0.0000701903  -0.0000132032   0.0000097972   0.0000362732
        0.0000278156  -0.0000393044  -0.0000266130   0.0000082026  -0.0000125938
        0.0000216687  -0.0000390021   0.0000065621   0.0000734502   0.0000170322
       -0.0000124061   0.0000086665  -0.0000086414  -0.0000094912   0.0000039965
        0.0000018960  -0.0000099914   0.0000002411  -0.0000005636   0.0000028329
        0.0000018308  -0.0000006599   0.0000008808   0.0000009510  -0.0000011917
        0.0000007206  -0.0000014725  -0.0000001409   0.0000012769  -0.0000006453
       -0.0000004888  -0.0000001682   0.0000018998  -0.0000050925   0.0000036951
        0.0000014537  -0.0000128560  -0.0000007644   0.0000022375   0.0000064784
       -0.0000029674  -0.0000026779   0.0000059577  -0.0000021748  -0.0000050596
        0.0000019779  -0.0000092610  -0.0000004683  -0.0000009349   0.0000036659
       -0.0000016598  -0.0000009845   0.0000017618  -0.0000007183  -0.0000013691
        0.0000015758   0.0000016594  -0.0000003712   0.0000023182   0.0000013056
       -0.0000007501   0.0000001539  -0.0000013139  -0.0000050333   0.0000034261
       -0.0000018512  -0.0000116394  -0.0000006703  -0.0000063299  -0.0000069839
       -0.0000080626
       -0.0298374241  -0.0037962569  -0.0090055991  -0.1511068668  -0.0210994976
       -0.0523682908   0.4634635080  -0.0077187354  -0.0332891059  -0.0039758707
        0.0041924667  -0.0093591377   0.0002582277  -0.0009728511   0.0004589688
        0.0001984408   0.0000357648  -0.0003437936   0.0000118729  -0.0000202323
        0.0000233108   0.0001113063   0.0002688402  -0.0003451836   0.0000116537
       -0.0000665861  -0.0000155489  -0.0000108934   0.0000266793  -0.0000087203
       -0.0000650921   0.0000211001   0.0000352722  -0.0005668105   0.0000125636
        0.0010601233   0.0000657703   0.0001901061   0.0001793115  -0.0000209544
       -0.0001698702   0.0000866819   0.0003688843   0.0001766246  -0.0000970469
       -0.0000231585   0.0001125787   0.0000357439   0.0000151801  -0.0000467057
       -0.0000080632  -0.0000385870  -0.0000375924  -0.0000049822  -0.0000577867
        0.0000012101   0.0000000405   0.0000850085   0.0000135807  -0.0000933684
       -0.0000101526  -0.0000324802   0.0000430098   0.0000570609  -0.0000202341
       -0.0000256918  -0.0000416072   0.0000376580  -0.0000246332  -0.0000208641
       -0.0000137609   0.0000393192  -0.0000668977   0.0000945186  -0.0000950593
        0.0001042229  -0.0000599813   0.0000084694  -0.0000958822  -0.0000001769
        0.0000861271  -0.0000028596   0.0000259935  -0.0000402970  -0.0000524988
        0.0000148616   0.0000356723   0.0000539026  -0.0000446054   0.0000214707
        0.0000168857   0.0000158281  -0.0000501771   0.0000481497  -0.0000573946
        0.0000729208   0.0000334945  -0.0000031904  -0.0000085463  -0.0000423368
        0.0000011452  -0.0000016950   0.0000105451  -0.0000045476   0.0000107613
       -0.0000130788  -0.0000275001  -0.0000024102  -0.0000497955  -0.0000293355
        0.0000028724   0.0000810979  -0.0000009429   0.0000918397   0.0000095021
        0.0000440107  -0.0000521710   0.0000691349   0.0000236807   0.0000335792
       -0.0000462284  -0.0000435902   0.0000250176  -0.0000246075   0.0000116413
       -0.0000441813  -0.0000654939  -0.0000960126   0.0000903429   0.0001026949
        0.0000566469   0.0000113004  -0.0001056948   0.0000024507  -0.0001009852
       -0.0000041278  -0.0000320904   0.0000439508  -0.0000545053  -0.0000167048
       -0.0000333673   0.0000553472   0.0000506085  -0.0000244112   0.0000317216
       -0.0000164842   0.0000592316   0.0000546393   0.0000811976  -0.0000826687
       -0.0000265641   0.0000467188  -0.0000093058   0.0000053431  -0.0000144303
       -0.0000141757  -0.0000592604  -0.0000280512   0.0000032166  -0.0008044519
        0.0001024457   0.0000223797   0.0004820137  -0.0002551921  -0.0000961878
       -0.0048227143   0.0006064628   0.0026676868   0.0007716055   0.0000992747
       -0.0009158437   0.0011210592  -0.0005467611  -0.0009357016  -0.0047430244
       -0.0027841988  -0.0042679293  -0.1856722146   0.0280566581   0.1151749891
       -0.0424475407   0.0082554917  -0.0079213834  -0.0426748293  -0.0045449563