96
 energy: -156.855291577411 gnorm: 0.000041602567 xtb: 6.7.1 (edcfbbe)
C           -9.81674000481945       -4.78741030412947        0.08086345679596
C          -10.25194700344638       -3.47193852641344        0.02502755953788
C           -9.33448670758936       -2.43925790076723       -0.00045126355339
C           -7.96820398167485       -2.71613848985375        0.03079548923765
C           -6.99501809787304       -1.62400911316402        0.00384201629627
N           -7.45702154496483       -0.37632507422232       -0.02793927779666
C           -6.53847466501472        0.58626024938251       -0.05436918472331
C           -6.99632809305590        1.97547324875997       -0.09021022248179
C           -8.35789797837110        2.26910456502105       -0.02607091107085
C           -8.78607803048821        3.58235572047160       -0.05836555067588
C           -7.86292357698989        4.61257627079601       -0.15593477601553
C           -6.50745874559800        4.32711431782747       -0.22072215266025
C           -6.07303097295863        3.01603520272698       -0.18785879045868
N           -5.22685317741623        0.36230123712214       -0.04915639928044
C           -4.85292168302462       -0.91420460842237       -0.01350339999810
C           -3.41991008976637       -1.20431969280103       -0.00369896537721
C           -2.97098019492017       -2.52693777263128       -0.01390500668992
C           -1.62093614933701       -2.82190659224388       -0.00909613691870
C           -0.71009924640684       -1.77444114183441        0.00667490470880
C           -1.16116517514875       -0.44387876098111        0.01905230617795
C           -2.50227716218390       -0.14950373042282        0.01423113100505
C            0.00868010806929        0.52131614565262        0.03368655267154
C           -0.00515057953221        1.35815640522061        1.29285715356950
C            0.05419036670925        0.74113174004618        2.53645709404553
C            0.02945716430417        1.48283445236928        3.70194294576206
C           -0.05726430706427        2.86523612723371        3.63696365136254
C           -0.11627766692670        3.49555588570712        2.41093632550739
C           -0.09041999912318        2.74523216418318        1.23737605498956
O           -0.15229685693575        3.45064975207312        0.06878971550657
C           -0.08714710559066        2.77361679112182       -1.11630058872182
C           -0.11083111278027        3.55181542176147       -2.27161918979954
C           -0.04807697708555        2.95108948226197       -3.51223042097126
C            0.04065764575118        1.57075206260316       -3.61002726454827
C            0.06308799648898        0.80134355654620       -2.46261984192934
C           -0.00066563218956        1.38835716772411       -1.20479691904495
C            1.18401646374842       -0.43518352407595        0.02428754879034
C            2.52340583253011       -0.13224223981722        0.02575288787054
C            3.44789228602286       -1.18126703625475        0.01283663170512
C            4.87965149913543       -0.88454609991028        0.00844752000359
N            5.73138426763891       -1.90653343999306       -0.02216727715715
C            7.02371763511943       -1.58803882376479       -0.03279335198584
C            7.99939192158488       -2.67768264438404       -0.06929934863035
C            7.57095172081819       -4.00464651992049       -0.08268172137031
C            8.49523101100955       -5.03091341300682       -0.11879975074088
C            9.85192018409567       -4.74472120835732       -0.14180844159063
C           10.28440038751344       -3.42723992730466       -0.12860521874310
C            9.36496802515509       -2.39662429262452       -0.09217532447986
N            7.48206600320575       -0.33877522036178       -0.01460551106784
C            6.56092290087998        0.62113674897428        0.01916341281628
C            7.01584600242268        2.01166377355143        0.03983778767904
C            6.09044539747462        3.05181706737608        0.11979849569827
C            6.52247394728489        4.36400738013594        0.13688370731719
C            7.87770028309798        4.65101676691004        0.07412293211226
C            8.80301937577911        3.62120908213829       -0.00555992786619
C            8.37719693323435        2.30692085106545       -0.02224372664651
N            5.24988806183101        0.39330540397999        0.03253332250713
C            3.00751580469385       -2.50681724031579        0.00036803898940
C            1.65953071629540       -2.81073642695987       -0.00100374086769
C            0.74194538263079       -1.76914808742122        0.01016857928216
N           -5.70163390622453       -1.93873802214090        0.01267255056620
C           -7.53701149475210       -4.04107092800349        0.08712762116851
C           -8.45934716510036       -5.06943474287028        0.11196415318818
H          -10.53554531897460       -5.59317635474805        0.10017910586759
H          -11.30909123472014       -3.25251752882505        0.00082495018772
H           -9.65437474828725       -1.40993022421359       -0.04528813092965
H           -9.06173511479824        1.45511236999714        0.05058325266424
H           -9.84153881314720        3.80513764926210       -0.00770500372830
H           -8.19983670509840        5.63830277945416       -0.18126706732521
H           -5.78847188338981        5.12930442378472       -0.29698396349648
H           -5.02230505686315        2.77598397757034       -0.23858066578745
H           -3.70690430632397       -3.31546846794187       -0.02772648882919
H           -1.28397048066154       -3.84699201925873       -0.01833801275897
H           -2.86345627097098        0.86691749965037        0.02411888516365
H            0.11906575360675       -0.33632831930099        2.58016759602467
H            0.07617505960182        0.98463397738519        4.65816146353863
H           -0.07839438706130        3.45243431891404        4.54231137081695
H           -0.18330283409278        4.56944263000183        2.33110524926781
H           -0.17902740550528        4.62342481221292       -2.16632700629638
H           -0.06774188626922        3.55971758553079       -4.40333727236106
H            0.09080646130213        1.09555624629908       -4.57768490372374
H            0.12954050409564       -0.27470188812475       -2.53204608678993
H            2.87733526844064        0.88671234957358        0.03426661721003
H            6.51176488673212       -4.20846315712971       -0.06469811695832
H            8.15916618492237       -6.05720759010860       -0.12873483347522
H           10.57228823311742       -5.54883172224975       -0.16988518607175
H           11.34100248201143       -3.20461208116479       -0.14625388301595
H            9.68284744944695       -1.36576320397799       -0.08110492329725
H            5.03991305681154        2.81060614790452        0.16828535156769
H            5.80182687824369        5.16593905742811        0.19903286093756
H            8.21269865750274        5.67761135581896        0.08691147184984
H            9.85833112805651        3.84511465218147       -0.05446914439669
H            9.08281002912025        1.49324851503745       -0.08426255679140
H            3.74866300434107       -3.29046334700564       -0.00905521918086
H            1.32918179485099       -3.83795260275032       -0.01134244035596
H           -6.47732139594032       -4.24165113298762        0.11142468933812
H           -8.12117103112031       -6.09415500932306        0.15536007202804
