123
 energy: -185.108645710014 gnorm: 0.000188710640 xtb: 6.7.1 (edcfbbe)
C            7.95251642538156       -0.75158785393234        2.06727439767793
C            6.89036473537281       -0.86705576323360        0.95893907127474
C            7.21300556548866       -2.05219562602521        0.03086658467537
C            6.90498277439615        0.41297181942244        0.14541292019591
C            8.07237847523614        0.78920268796508       -0.50018642661532
C            8.17902242222860        1.96114239700275       -1.24045604245356
C            9.43391643381349        2.31601666573674       -1.91556595362770
C           10.66376385263469        2.10053257055587       -1.29720428222565
C           11.84260823355374        2.43860464633405       -1.93478098662548
C           11.81461099255801        2.99461283230689       -3.20272233394189
C           10.59830108249400        3.21306835779826       -3.82778909230725
C            9.41848577216499        2.87910245395257       -3.19002580709701
C            7.06441820925825        2.79148156408240       -1.30802724958050
C            5.89500850589413        2.44452644232309       -0.66992080766335
C            5.78724531550458        1.24694409531882        0.04312448811172
N            4.59052212592086        0.91527288501850        0.66694137077961
C            3.49042116412643        1.79922654917119        0.56185864353525
C            2.81594747735452        1.93220309306825       -0.65068919370745
C            1.75177903266056        2.80866619389570       -0.75430824245563
C            1.36691704146352        3.54125633741945        0.35299133024378
S           -0.02405393093084        4.66829937670064        0.20356638159054
O            0.14199893965365        5.45396073674370       -0.98958005803927
O           -0.19289454025746        5.35000168172363        1.45859527185478
C           -1.40881415704632        3.55072359635111       -0.04163920963617
C           -2.03603411567667        3.49495655268142       -1.27120685066014
C           -3.09622428174543        2.62590833483778       -1.45370381131232
C           -3.51504652943662        1.81302096213058       -0.40305248580070
N           -4.60479416429654        0.92905380322972       -0.58721788413868
C           -4.44494365643806       -0.17870325754559       -1.40808386728195
C           -3.19224748849678       -0.46158980118743       -1.96070465391083
C           -3.00641575502548       -1.54509799388443       -2.78959777120290
C           -4.06936040318609       -2.38855877454679       -3.09727856091433
C           -3.89845988136907       -3.53531734564157       -3.99850976247400
C           -2.75156437331262       -4.32428828405940       -3.93908212007069
C           -2.59366882137676       -5.40369759370400       -4.78785678478516
C           -3.57602942537725       -5.71234068756385       -5.71384392570151
C           -4.71919317555104       -4.93393301538278       -5.78425230572002
C           -4.88034716465451       -3.85652581633942       -4.93363304842432
C           -5.30290311586740       -2.11902477432069       -2.51449429706411
C           -5.51351331483256       -1.04303300691837       -1.66716906552149
C           -6.87955815778514       -0.85254762090250       -1.03681979543752
C           -7.92175186057650       -0.67757870520443       -2.15620612032142
C           -7.20687127425298       -2.09687001274670       -0.19157267678479
C           -6.92236113690493        0.37131918035184       -0.14191474464272
C           -8.10137760645316        0.68751561011279        0.51432962353114
C           -8.23771434675954        1.81552676590258        1.31581380690429
C           -9.50577494836927        2.10490278916659        1.99754033481170
C           -9.99546908740680        3.40743754042958        2.06795360674929
C          -11.18986072530421        3.67784904695628        2.70879293454932
C          -11.91471630695247        2.65328049929783        3.29419515696407
C          -11.43683986461637        1.35499516449407        3.23314991754716
C          -10.24450210743064        1.08234827658474        2.58940964255027
C           -7.14059218864406        2.66245986456942        1.43878759499359
C           -5.95418402113454        2.36504653909298        0.80682295076508
C           -5.81775705835987        1.21169202178019        0.02891244062235
C           -2.86733969033923        1.87452557999002        0.82964207510638
C           -1.81142612779177        2.74863742013751        1.00976257492722
C            2.01955270512655        3.41271937418048        1.56362008077895
C            3.08847221516195        2.54161514978497        1.66966958089385
C            4.45856751358284       -0.24160508732175        1.42238119565722
C            3.22190802947535       -0.56760097105316        1.98756857089284
C            3.06424149761105       -1.70027096918912        2.75406445141620
C            4.13531054468563       -2.56252546469032        2.96796674973126
C            3.98894692847557       -3.77061376924992        3.78981565197635
C            4.59156731638530       -4.96918957385680        3.41320163260931
C            4.45380135204739       -6.10315901927243        4.19139168671019
C            3.71433829624141       -6.06005214626605        5.36143411154051
C            3.11009993965649       -4.87479089746240        5.74599253231184
C            3.24396024715757       -3.74095049239200        4.96704383778195
C            5.35076749311123       -2.25000106674224        2.36919635022996
C            5.53783425701085       -1.11325748897135        1.59901365486437
H            7.72977117250298        0.10107995993338        2.70604652923952
H            7.97035869093444       -1.64590448888484        2.68389732530911
H            8.94263603009811       -0.61253423221525        1.64248247349769
H            6.44634711010556       -2.14059556780509       -0.73667993564589
H            8.17284639394067       -1.91302840346982       -0.45849681594587
H            7.24894716592465       -2.98352064005373        0.58905531946279
H            8.93563635799175        0.14360795599594       -0.44684989732265
H           10.69322069118653        1.68647385094482       -0.29959001596292
H           12.78820901895750        2.27122344887381       -1.43932997212681
H           12.73616501782683        3.25763374603652       -3.70069457436457
H           10.56999980002636        3.64412390491717       -4.81820065327649
H            8.47353503171652        3.03712689195288       -3.68937566628022
H            7.12025879722014        3.72934685315577       -1.83969777108073
H            5.05420396665775        3.11916669953891       -0.71566399800640
H            3.13940374325070        1.35235147552249       -1.50214430182264
H            1.22366181627655        2.94179909739324       -1.68559114984454
H           -1.69427837120897        4.14887998677267       -2.05812876967926
H           -3.60762442623988        2.56990702727426       -2.40288619360460
H           -2.35148349437284        0.17601037981643       -1.73312616096062
H           -2.03163999974850       -1.72484839173840       -3.21759800469215
H           -1.98905025888963       -4.09981741183929       -3.20730859473327
H           -1.70096743052798       -6.00935425470744       -4.72562494049289
H           -3.45115766262019       -6.55494864648850       -6.37778824134995
H           -5.48719157381613       -5.16649811132967       -6.50790830560805
H           -5.76611308107396       -3.24209562706648       -5.00763748585120
H           -6.11779424116287       -2.79647578918846       -2.71911311179284
H           -7.67712636316566        0.19684795772336       -2.75640668704794
H           -7.94092960684129       -1.54707073924826       -2.80730560717064
H           -8.91718442232104       -0.54091192082883       -1.74318051390736
H           -8.19195315621863       -2.01153280709826        0.25836923794486
H           -7.18880150097762       -2.99671732683761       -0.80001310066248
H           -6.47292485012539       -2.20695189885760        0.60461599732058
H           -8.96391766224690        0.05178302998782        0.38467150022500
H           -9.44368957608805        4.20889810901191        1.59856184322293
H          -11.55909587562355        4.69246033930698        2.75032216802292
H          -12.84707050307960        2.86562406092199        3.79625910125183
H          -11.99514410052488        0.55184799232097        3.69244698055993
H           -9.86810780689277        0.06976240652217        2.56286073393447
H           -7.20772441293635        3.55030124502884        2.04914463061357
H           -5.12038223124106        3.04144845629513        0.91398828735430
H           -3.20409062636710        1.24074008186394        1.63620539454545
H           -1.30265170934502        2.82640489510034        1.95775921586721
H            1.68928442691184        4.01262055879149        2.39712301361936
H            3.61985217118699        2.43017581595829        2.60291351588623
H            2.37016762389095        0.07263631456611        1.81472902264144
H            2.09380457232615       -1.93106228841604        3.16735058434142
H            5.15348462562586       -5.01648133014903        2.49149442289420
H            4.92296942328931       -7.02638854384698        3.88292032471846
H            3.60882494979182       -6.94595803249396        5.97006305730519
H            2.53422670427202       -4.83396127960008        6.65938971682927
H            2.78452678550171       -2.81499816324032        5.28154646488680
H            6.18276974729085       -2.91729322510670        2.53417461854183
