97
 energy: -158.702022468875 gnorm: 0.000068046559 xtb: 6.7.1 (edcfbbe)
C            7.20391485872306        4.78191542422893       -0.17470014187733
C            7.89374686196665        3.57979510487295       -0.22497191107106
C            7.20467808031561        2.38316092992692       -0.18280486759708
C            5.81286803050184        2.38074032814741       -0.09133158996447
C            5.08093047538604        1.11665884829617       -0.04679136518548
N            5.78008295701983       -0.01436087305473       -0.00655209541616
C            5.07604183354744       -1.14236105760079        0.03335786659749
C            5.80256845047008       -2.40953856457607        0.07837729274954
C            5.10938013918504       -3.61917955579260        0.03031222730914
C            5.79953028939676       -4.81513825276579        0.07229069835433
C            7.18339671902328       -4.81652205903790        0.16398875148456
C            7.87834634435874       -3.61730466505793        0.21305530879623
C            7.19436506150694       -2.41779489901452        0.16977656087704
N            3.74346809053133       -1.18513991042047        0.03374593455160
C            3.12814940779737       -0.00864813482804       -0.00649664429873
C            1.66403559276295       -0.00525165572210       -0.00513208491113
C            0.96221558106367       -1.17986016388802        0.24098647507285
C           -0.42439852310017       -1.18580116486331        0.24898432509520
N           -1.10044337147840       -2.38766265028041        0.50179865204415
C           -2.13139717184684       -2.58912508150057        1.40604363610367
C           -2.58823135930279       -1.75635391389188        2.41590868812502
C           -3.63572630981314       -2.20595656592899        3.19720931428055
C           -4.20525412691357       -3.46220358960123        2.99897462949464
C           -3.71887196052457       -4.31810984429972        2.03129122782555
C           -2.66715320689121       -3.88434949767115        1.23403354352513
C           -1.90534562339903       -4.50093645778583        0.18466297585437
N           -2.01717809520587       -5.70720370839799       -0.35196126302141
C           -1.17073181119505       -6.00166094551796       -1.32242087200307
C           -0.19753367225002       -5.12944058585011       -1.80778218790950
C           -0.06981432186730       -3.86227308747702       -1.26140498745343
C           -0.94015054547899       -3.54566914949254       -0.23062547706244
C           -1.13916935895461        0.00202295953879        0.00103155863282
N           -2.53438006557588        0.00698852939034        0.00648774657158
C           -3.35347400625161       -0.79502550335384       -0.77140754059097
C           -3.01216311902980       -1.70603590179740       -1.75851216439041
C           -4.03686785345561       -2.36928602909228       -2.40739613430860
C           -5.37082706836711       -2.11646464560640       -2.10039272041118
C           -5.71582348914459       -1.17321972700520       -1.15188453742517
C           -4.70266606613517       -0.49941863072151       -0.48391934566875
C           -4.69355767195191        0.53583402088338        0.51351633840580
C           -5.69437824702202        1.21998101956058        1.18955868206901
C           -5.33214926210540        2.15869612068754        2.13614871603755
C           -3.99330611946363        2.39675861879497        2.43358764225779
C           -2.98070171347798        1.72323994291492        1.77634813133143
C           -3.33925582264086        0.81712302778044        0.79083669179085
C           -0.41917121301226        1.18585038350591       -0.25137645141952
N           -1.09047685383013        2.39058849615062       -0.50301928928487
C           -2.12458512055116        2.59478282857688       -1.40307337241972
C           -2.58897285687799        1.76226828969803       -2.40970032964843
C           -3.63757176099360        2.21508135415348       -3.18765969265035
C           -4.20101195930789        3.47403015460873       -2.98918349416696
C           -3.70720003341314        4.32943191531271       -2.02481750621088
C           -2.65405144963861        3.89257782775171       -1.23114703445517
C           -1.88472887853436        4.50795342009382       -0.18656004375058
N           -1.98858509613978        5.71596632291902        0.34773545891097
C           -1.13590656961802        6.00901372285277        1.31315333343128
C           -0.16403823616728        5.13371570002539        1.79562182973254
C           -0.04473171321846        3.86467304271798        1.25171382266770
C           -0.92171487152867        3.54939896564612        0.22618474354336
C            0.96735488657820        1.17283509342036       -0.24936409360650
N            3.74856688721858        1.16515961567872       -0.04720940625145
C            5.12483643334931        3.59328041532485       -0.04222279783127
C            5.82005186758675        4.78633534864862       -0.08306863166510
H            7.74477370516996        5.71594081795201       -0.20703626608030
H            8.97110951938969        3.57730140982141       -0.29717994871569
H            7.72400472073200        1.43848328615741       -0.22250162975900
H            4.03300598778740       -3.60065815559214       -0.04197943481743
H            5.25855463623879       -5.74897337852432        0.03407740643979
H            7.72027579499814       -5.75280432642437        0.19733621698793
H            8.95570947733703       -3.61930821371110        0.28528578569912
H            7.71770696336598       -1.47529842545165        0.20863496816998
H            1.50839180483765       -2.08407871755662        0.45676379806753
H           -2.13770716131837       -0.79326156226669        2.59841991573764
H           -4.01598849696560       -1.56761171694859        3.98062924731966
H           -5.02607212291466       -3.77326507015074        3.62704426585268
H           -4.12863657337114       -5.30543127222399        1.88847848343777
H           -1.27802662652105       -6.99261042556016       -1.74295335006244
H            0.45118820277173       -5.44237169997191       -2.61093468418601
H            0.66680043743354       -3.16132697608990       -1.62873060238598
H           -1.98238995279073       -1.88902660203652       -2.02804293481871
H           -3.79336158044925       -3.09466163219890       -3.16967272093502
H           -6.14365123687539       -2.65712557826786       -2.62560066997704
H           -6.75051168139556       -0.95703161597142       -0.93503166881594
H           -6.73294539827444        1.01505429302884        0.98045476785102
H           -6.09515783167766        2.70719605153128        2.66754754503369
H           -3.73634944118106        3.11842773658748        3.19497287031999
H           -1.94694957324576        1.89443354946296        2.03839488747181
H           -2.14317114047011        0.79700683405880       -2.59239373648408
H           -4.02356646713634        1.57716926704481       -3.96861677886462
H           -5.02293430274397        3.78757404129721       -3.61456590164912
H           -4.11220686755653        5.31871062879584       -1.88199732253383
H           -1.23671034310791        7.00143262011357        1.73182474010215
H            0.49017341303496        5.44573328419604        2.59466716253448
H            0.69070027803266        3.16140500408236        1.61695693539166
H            1.51732515132172        2.07410037340629       -0.46783324240914
H            4.04840020470783        3.57926601563961        0.03003930325798
H            5.28304425153444        5.72241537499269       -0.04389381177267
