$hessian                                                                        
        0.6498422327   0.0130683857  -0.0342916351  -0.1541841241   0.0605109816
        0.0070138648   0.0585352658   0.0294011416  -0.0036702491  -0.0443992190
        0.0296336468   0.0023187020  -0.0015317086  -0.0008701189   0.0001734528
       -0.0000014482   0.0014914649  -0.0000654633  -0.0006697897  -0.0005374402
        0.0000440224  -0.0000492474   0.0001182372  -0.0000097774  -0.0000395419
       -0.0000675148  -0.0000022153  -0.0000338155   0.0000224793  -0.0000023985
       -0.0000011005  -0.0000035171   0.0000000985   0.0000229848   0.0000005470
        0.0000018818   0.0000329757  -0.0000105833   0.0000013258   0.0006104697
       -0.0002020035  -0.0000218309  -0.0001421227   0.0001984705   0.0000196252
        0.0000384391  -0.0000059872  -0.0000051538   0.0000207032  -0.0000191748
       -0.0000030417  -0.0000221224  -0.0000304091   0.0000013398   0.0000061571
        0.0000060337  -0.0000040827  -0.0000074397  -0.0000011588   0.0000083056
        0.0000025217   0.0000058432   0.0000017497   0.0000035382   0.0000042040
        0.0000004038  -0.0000017989   0.0000029063   0.0000044169  -0.0000024892
       -0.0000031749   0.0000026349   0.0000001930   0.0000047322   0.0000040449
       -0.0000012044  -0.0000029067   0.0000012883   0.0000003356  -0.0000039963
        0.0000024057  -0.0000025511  -0.0000028600   0.0000023461  -0.0000022628
        0.0000013240   0.0000021644   0.0000026615   0.0000013701   0.0000012002
        0.0000033919   0.0000002083   0.0000020370  -0.0000659042  -0.0000224312
        0.0000052181   0.0000298720  -0.0000091402  -0.0000085280  -0.0000064115
       -0.0000131808   0.0000018658   0.0000019309   0.0000022380   0.0000038355
        0.0000002945   0.0000005366   0.0000007926  -0.0000000662  -0.0000029471
        0.0000003426  -0.0000002593   0.0000049728   0.0000054351   0.0000005278
       -0.0000043000  -0.0000027496   0.0000085695   0.0000041215   0.0000051966
       -0.0000046835  -0.0000005450   0.0000009967   0.0000030924   0.0000049575
        0.0000049204   0.0000048250  -0.0000007107  -0.0000010460   0.0000090408
        0.0000023386  -0.0000013558  -0.0000131694   0.0000174031   0.0000110091
       -0.0000056253   0.0000405653   0.0000002442   0.0000100990  -0.0000417719
       -0.0000082978  -0.0000062733  -0.0000091769  -0.0000000800   0.0000011535
        0.0000014107   0.0000031565   0.0000012737  -0.0000029189  -0.0000005491
       -0.0000012403   0.0000021003  -0.0000005859   0.0000053474   0.0000033722
        0.0000048993  -0.0000066544  -0.0000069853  -0.0000114818  -0.0000031961
        0.0000096602   0.0000075489  -0.0000007496   0.0000002649   0.0000066403
       -0.0000058402   0.0000185070   0.0000025163   0.0000112440   0.0000034016
       -0.0000090331   0.0000329316  -0.0000103477   0.0000126243   0.0000032006
        0.0000121886   0.0000123613   0.0000012179   0.0000737975  -0.0000127386
        0.0001108061  -0.0003375738  -0.0000360781  -0.0372820598  -0.0844718782
        0.0022850634  -0.3256614116   0.0418426966   0.0179014629  -0.1084928823
       -0.1121733765   0.0044699342  -0.0181270039   0.0257948283   0.0013503998
       -0.0006041554  -0.0031540289   0.0006154752   0.0000070378   0.0000060760
       -0.0000002027   0.0000042244   0.0000080031   0.0000007483   0.0000059781
        0.0000086802  -0.0000009726   0.0000001276   0.0000060986  -0.0000012796
        0.0000427341   0.0000253473  -0.0000047420  -0.0000150111  -0.0000065484
        0.0000031961   0.0000001392  -0.0000025794  -0.0000000715  -0.0000006042
       -0.0000004783   0.0000025888   0.0000003693  -0.0000005226   0.0000026684
       -0.0000002975  -0.0000007060   0.0000028981  -0.0000006862  -0.0000029816
        0.0000013801  -0.0000002412  -0.0000035456  -0.0000009793  -0.0000001373
        0.0000007937   0.0000008791  -0.0000016489  -0.0000015627   0.0000007875
       -0.0000017863  -0.0000027447   0.0000008347  -0.0000020964  -0.0000021360
        0.0000017366  -0.0000012271  -0.0000009564   0.0000016544  -0.0000010242
       -0.0000001339   0.0000015718  -0.0000023076   0.0000010679   0.0000009170
       -0.0000024087   0.0000005835   0.0000004800  -0.0000045583  -0.0000035679
       -0.0000019199  -0.0000016160  -0.0000017546   0.0000001055  -0.0000040145
       -0.0000017400  -0.0000016728  -0.0000037402  -0.0000009770  -0.0000010480
       -0.0000031625  -0.0000008245  -0.0000025590  -0.0000028122   0.0000020700
       -0.0000043062  -0.0000156689   0.0000053886  -0.0000015568  -0.0000031240
       -0.0000131284  -0.0000186478   0.0000537977  -0.0000485684   0.0000135180
       -0.0006140511  -0.0028155920   0.0006149990  -0.0174099081   0.0025577602
        0.0012381168
        0.0130683857   0.6669937730   0.0008161168   0.1399357062  -0.2680810732
       -0.0098221659  -0.0296790287  -0.0688887293   0.0016423569   0.0295392263
       -0.0107500199  -0.0018285767  -0.0007826393  -0.0024488663  -0.0000063495
       -0.0003841729   0.0007319716   0.0000316900  -0.0000928354  -0.0003200049
       -0.0000088151  -0.0000593336   0.0000970227  -0.0000007560  -0.0000381489
       -0.0000300555  -0.0000015834  -0.0000163336  -0.0000209640  -0.0000043111
        0.0000033846  -0.0000375858  -0.0000018717   0.0000071049   0.0000098044
       -0.0000026729   0.0001052016   0.0000435821   0.0000064597  -0.0002056978
        0.0003862008   0.0000054881  -0.0002146408  -0.0008671391   0.0000023014
        0.0001369051  -0.0000010630   0.0000065696  -0.0000290591  -0.0000579368
       -0.0000017489   0.0000101820  -0.0000915968  -0.0000005319   0.0000346377
        0.0000661524  -0.0000059986  -0.0000262609   0.0000029576   0.0000141585
        0.0000034739  -0.0000055146  -0.0000066811  -0.0000058246  -0.0000047088
        0.0000054755  -0.0000002405   0.0000012435   0.0000030393   0.0000004857
       -0.0000070516  -0.0000026404  -0.0000038919   0.0000091507   0.0000067425
        0.0000077784  -0.0000031844  -0.0000106126  -0.0000016730   0.0000035033
       -0.0000041584  -0.0000034592  -0.0000066627  -0.0000010477   0.0000026882
       -0.0000006625  -0.0000039184  -0.0000022720   0.0000019933   0.0000039429
        0.0000114064  -0.0000319633  -0.0000169486  -0.0001118127  -0.0000020657
        0.0000044249   0.0001031079   0.0000081025   0.0000084908  -0.0000338622
       -0.0000440062  -0.0000194893   0.0000058279   0.0000066264   0.0000069596
       -0.0000099853  -0.0000031029  -0.0000045768   0.0000045679  -0.0000034500
       -0.0000040184  -0.0000060259   0.0000047149   0.0000027380   0.0000119221
       -0.0000105087  -0.0000094769   0.0000027184   0.0000105443   0.0000115872
        0.0000006346  -0.0000080542  -0.0000032693   0.0000056474   0.0000021336
        0.0000042507  -0.0000126332   0.0000038059   0.0000085482   0.0000020056
       -0.0000081182  -0.0000049605  -0.0000243797   0.0000373588   0.0000113034
        0.0000037048   0.0000472006   0.0000074202   0.0000311431  -0.0000236877
        0.0000210221  -0.0000344797   0.0000109621  -0.0000279775   0.0000031494
       -0.0000045458   0.0000009488  -0.0000080920   0.0000056643  -0.0000012508
        0.0000000072  -0.0000046269   0.0000020218  -0.0000079059   0.0000044107
       -0.0000024692   0.0000006033  -0.0000083476  -0.0000025032  -0.0000095692
        0.0000150045   0.0000065912   0.0000214822  -0.0000128620   0.0000044597
       -0.0000117097  -0.0000026357  -0.0000068863  -0.0000125916   0.0000074731
       -0.0000066324  -0.0000009276  -0.0000065397   0.0000089583   0.0000180310
        0.0000119702   0.0000119278  -0.0000159251   0.0000621738  -0.0000157859
        0.0014836988   0.0006231010  -0.0000495421  -0.0253070112   0.0272813286
        0.0018054460  -0.0375934739  -0.0960297284   0.0023038711  -0.1121445409
       -0.2373319703   0.0066839186   0.0021789277  -0.0013112243  -0.0000866132
       -0.0027904811  -0.0040749967   0.0001265533   0.0000001699  -0.0000131983
       -0.0000011602   0.0000037599   0.0000035922  -0.0000021757  -0.0000062951
       -0.0000025523  -0.0000032878  -0.0000176543  -0.0000088080  -0.0000028012
       -0.0000662410   0.0000334606  -0.0000134739  -0.0000010659   0.0000002605
        0.0000035140   0.0000004911   0.0000025322   0.0000018114  -0.0000005182
       -0.0000014077   0.0000000932  -0.0000001260  -0.0000006344  -0.0000012326
        0.0000001662   0.0000001697  -0.0000007868  -0.0000020569   0.0000003905
       -0.0000010411  -0.0000017386  -0.0000000680  -0.0000014939   0.0000017108
        0.0000030854  -0.0000017519   0.0000007110  -0.0000005448  -0.0000001075
       -0.0000008492   0.0000020332   0.0000007744   0.0000000309   0.0000017840
        0.0000016479   0.0000014747   0.0000011282   0.0000005188   0.0000029307
       -0.0000004362   0.0000023060   0.0000032905  -0.0000017921   0.0000007242
        0.0000008168  -0.0000023645   0.0000006484   0.0000047343   0.0000006450
        0.0000023669   0.0000002375   0.0000018279   0.0000018987   0.0000008845
        0.0000022038   0.0000035124   0.0000024783   0.0000006455   0.0000046292
        0.0000020975  -0.0000005859   0.0000029268   0.0000001150   0.0000012893
        0.0000029054  -0.0000005295  -0.0000028612   0.0000097507   0.0000136586
       -0.0000034417  -0.0000030390   0.0000197783   0.0000189059   0.0000085454
       -0.0032269485  -0.0040528374   0.0001387378   0.0262016598  -0.0019270990
       -0.0017639020
       -0.0342916351   0.0008161168   0.1223631677   0.0072682869  -0.0044562181
       -0.0495665648  -0.0039476356  -0.0022007727   0.0015870419   0.0026044654
       -0.0019968384  -0.0070508815   0.0001032844   0.0000378861  -0.0002922108
       -0.0000139467  -0.0001234984  -0.0000233859   0.0000445011   0.0000459975
        0.0000488781   0.0000011532  -0.0000074038  -0.0000128770   0.0000020910
        0.0000007358   0.0000029306   0.0000001071   0.0000004733   0.0000045177
       -0.0000001202  -0.0000019234  -0.0000040360  -0.0000016866   0.0000005651
       -0.0000035003   0.0000073693   0.0000020860  -0.0000109782  -0.0000499500
        0.0000248178  -0.0000183103   0.0000078791  -0.0000272794   0.0000530519
        0.0000043797   0.0000013403  -0.0000180155  -0.0000020147   0.0000026590
        0.0000022010  -0.0000022690   0.0000038596  -0.0000021002  -0.0000015802
       -0.0000034738   0.0000010708   0.0000030304   0.0000003881   0.0000001949
        0.0000032865  -0.0000001699   0.0000035009   0.0000008944   0.0000012526
        0.0000011341  -0.0000006311   0.0000010397   0.0000026329   0.0000000578
        0.0000006748  -0.0000000404   0.0000017817  -0.0000008201   0.0000024448
        0.0000012560   0.0000006533   0.0000044762  -0.0000018577  -0.0000014434
       -0.0000005122   0.0000022209  -0.0000018326   0.0000034275  -0.0000009752
        0.0000005562  -0.0000005264  -0.0000009080  -0.0000000280   0.0000019880
       -0.0000006768   0.0000032076   0.0000013675   0.0000031106   0.0000008623
        0.0000018364  -0.0000027560   0.0000003236   0.0000020639   0.0000030697
        0.0000021973   0.0000036025  -0.0000018296  -0.0000000862   0.0000021649
        0.0000002546  -0.0000011403   0.0000028451  -0.0000017128  -0.0000017932
        0.0000044433  -0.0000013629   0.0000018068   0.0000011234   0.0000007502
        0.0000013686   0.0000016644   0.0000007385  -0.0000010945   0.0000024464
       -0.0000009573  -0.0000034435   0.0000024567  -0.0000010337   0.0000009981
        0.0000029539   0.0000029353   0.0000006067  -0.0000005116  -0.0000005306
       -0.0000010666   0.0000009202   0.0000040616  -0.0000015722  -0.0000016026
        0.0000007942  -0.0000011141  -0.0000024491  -0.0000009376   0.0000039843
       -0.0000000071   0.0000015191   0.0000010044   0.0000021213  -0.0000037269
       -0.0000013289   0.0000042633  -0.0000021950  -0.0000020732   0.0000014572
       -0.0000023551  -0.0000012516   0.0000003016   0.0000025445   0.0000010398
       -0.0000006256  -0.0000010163   0.0000000470  -0.0000001306   0.0000008819
       -0.0000018342  -0.0000018642  -0.0000028093  -0.0000013514   0.0000015180
        0.0000046752   0.0000016673   0.0000031558  -0.0000019295   0.0000017696
       -0.0000000965  -0.0000010364  -0.0000062552  -0.0000010569   0.0000015056
        0.0000014252  -0.0000011109  -0.0000024000  -0.0000087895  -0.0000013129
        0.0000049878   0.0000501301  -0.0000192681   0.0024464502   0.0057464896
        0.0011704048   0.0175262313  -0.0029855881  -0.0508875538   0.0044880248
        0.0066725057  -0.0355822667   0.0012890670  -0.0017068417   0.0007700916
        0.0005972434   0.0001691172   0.0082879392  -0.0000004240  -0.0000000408
       -0.0000008627   0.0000001373  -0.0000002906  -0.0000006048   0.0000000263
       -0.0000004830  -0.0000022334   0.0000000117   0.0000009404  -0.0000039372
       -0.0000043877   0.0000034556   0.0000036324   0.0000005622   0.0000006908
       -0.0000009857   0.0000030990   0.0000012776   0.0000009110   0.0000013182
        0.0000001905   0.0000015614   0.0000035259  -0.0000002870   0.0000035185
        0.0000023853   0.0000002878   0.0000026563  -0.0000005789   0.0000004228
        0.0000024191  -0.0000019987  -0.0000002331   0.0000007168  -0.0000016194
       -0.0000028260  -0.0000006753   0.0000011047  -0.0000001135   0.0000010446
       -0.0000012927  -0.0000002541   0.0000007574  -0.0000014687  -0.0000014128
        0.0000039814  -0.0000008961  -0.0000003438   0.0000036739   0.0000007685
       -0.0000005729   0.0000029497   0.0000011403   0.0000006988   0.0000018280
        0.0000016790   0.0000005746   0.0000007913   0.0000004903   0.0000009063
        0.0000009756  -0.0000021272  -0.0000009054   0.0000009987  -0.0000010376
       -0.0000008586   0.0000002794  -0.0000039251  -0.0000009003   0.0000023433
       -0.0000017762   0.0000000628  -0.0000001312  -0.0000010080  -0.0000004030
       -0.0000019127   0.0000004576  -0.0000016944  -0.0000053933   0.0000026100
        0.0000047820   0.0000000019  -0.0000094937   0.0000008809   0.0000033007
        0.0005795840   0.0001264757   0.0083110784   0.0013427195  -0.0001833539
        0.0008173124
       -0.1541841241   0.1399357062   0.0072682869   0.6750883206   0.0038834305
       -0.0367955724  -0.1572755898  -0.1448914765   0.0065646856  -0.0336468489
       -0.0251088212   0.0024065310  -0.0061727863  -0.0000133746   0.0009700162
        0.0006433378   0.0016791077  -0.0001508273  -0.0003962442  -0.0007595154
       -0.0000156525  -0.0000825373   0.0002261743  -0.0000093228  -0.0000769790
       -0.0000821725   0.0000003664  -0.0000680075   0.0000178447  -0.0000047540
        0.0000229651  -0.0000071538   0.0000017196   0.0000627793   0.0000674194
        0.0000042095   0.0000462884  -0.0000046264  -0.0000127859   0.0004094051
        0.0003203355   0.0000426692  -0.0008713291  -0.0004528518  -0.0001118908
        0.0000923044  -0.0001203975   0.0000122487  -0.0000521768  -0.0000761436
       -0.0000023953   0.0000040097  -0.0001152433   0.0000011207   0.0000369645
        0.0000603352  -0.0000051558  -0.0000302978   0.0000004792   0.0000162187
        0.0000064236  -0.0000014029  -0.0000057033  -0.0000043105  -0.0000016813
        0.0000046991  -0.0000028448   0.0000034317   0.0000037207  -0.0000003388
       -0.0000069457  -0.0000024838  -0.0000024748   0.0000100146   0.0000075142
        0.0000045943  -0.0000060628  -0.0000086183   0.0000025558   0.0000040100
       -0.0000005662  -0.0000033929  -0.0000070051  -0.0000003326   0.0000007014
        0.0000011973  -0.0000016921  -0.0000009960   0.0000000708   0.0000087756
        0.0000108367  -0.0000266585  -0.0000144198  -0.0001397971  -0.0000176096
        0.0000058318   0.0001229094  -0.0000025863   0.0000024598  -0.0000360675
       -0.0000510623  -0.0000185149   0.0000070527   0.0000069111   0.0000089985
       -0.0000086338  -0.0000023570  -0.0000052594   0.0000068424  -0.0000065332
       -0.0000050977  -0.0000034198   0.0000087910   0.0000059305   0.0000099350
       -0.0000138999  -0.0000128444   0.0000054028   0.0000132635   0.0000135343
       -0.0000003652  -0.0000086128  -0.0000046022   0.0000085218   0.0000041441
        0.0000045455  -0.0000125356   0.0000042135   0.0000080719   0.0000116314
       -0.0000073391  -0.0000042510  -0.0000357344   0.0000517391   0.0000166443
        0.0000118996   0.0000924121   0.0000039597   0.0000363260  -0.0000659420
        0.0000050274  -0.0000376214   0.0000021066  -0.0000292865   0.0000032872
       -0.0000039801   0.0000026143  -0.0000079708   0.0000050840  -0.0000044794
        0.0000031995  -0.0000073175  -0.0000013708  -0.0000004718   0.0000011213
       -0.0000000757  -0.0000041027  -0.0000086261  -0.0000067245   0.0000048975
        0.0000099220   0.0000150383   0.0000121307  -0.0000083621   0.0000068922
       -0.0000109765  -0.0000084997  -0.0000093318  -0.0000027654   0.0000032887
        0.0000013833   0.0000117091  -0.0000004979   0.0000099382   0.0000194047
        0.0000480744   0.0000245411  -0.0000029280   0.0001097138  -0.0000116993
       -0.0003522915  -0.0010418444  -0.0000108779   0.0037371212  -0.0006670461
       -0.0005421335  -0.0342422316   0.0266348591   0.0024181822   0.0066178852
       -0.0122299168  -0.0003682726  -0.3008215273   0.0009222024   0.0177350420
        0.0065768353   0.0116085258  -0.0002883421   0.0000094701  -0.0000048523
       -0.0000013866   0.0000072684   0.0000154456  -0.0000006279  -0.0000004166
        0.0000175660  -0.0000011067  -0.0000085292   0.0000051200  -0.0000019601
        0.0000870050  -0.0001193230   0.0000235812  -0.0000193390  -0.0000054756
        0.0000081703  -0.0000000385   0.0000024954   0.0000017724  -0.0000009033
       -0.0000007961   0.0000004525   0.0000006962   0.0000001702  -0.0000004274
       -0.0000004159   0.0000003109   0.0000007506  -0.0000010390  -0.0000012686
        0.0000002947  -0.0000021480  -0.0000039171  -0.0000020028  -0.0000007549
        0.0000033174  -0.0000021383  -0.0000018544  -0.0000013018  -0.0000005163
       -0.0000018279   0.0000001564   0.0000008846  -0.0000002731   0.0000005785
        0.0000016417   0.0000016885   0.0000005506   0.0000001088   0.0000022111
       -0.0000000661   0.0000011555   0.0000014542  -0.0000001171  -0.0000006296
        0.0000011694  -0.0000017637  -0.0000017338   0.0000000941   0.0000023622
        0.0000006001  -0.0000013853   0.0000000805  -0.0000010731  -0.0000008603
       -0.0000005310   0.0000003041  -0.0000010418  -0.0000008978   0.0000003888
        0.0000017990  -0.0000005097   0.0000003668  -0.0000002404  -0.0000003245
       -0.0000005986  -0.0000005800  -0.0000012268  -0.0000067293   0.0000001901
        0.0000034612  -0.0000036086   0.0000056277  -0.0000169984  -0.0000009829
        0.0008042887  -0.0000565073  -0.0000515219  -0.0059290739   0.0002618982
        0.0009004910
        0.0605109816  -0.2680810732  -0.0044562181   0.0038834305   0.6467335056
        0.0016829218  -0.0674879806  -0.2762464741   0.0036040104  -0.0804382511
        0.0200650683   0.0050777620   0.0032459747   0.0066685880  -0.0001425384
        0.0007017272  -0.0018046255   0.0000080917   0.0004048102   0.0009587486
       -0.0000031532   0.0001124167  -0.0001510488   0.0000099655   0.0000689292
        0.0000745916   0.0000019160   0.0000447411   0.0000060254   0.0000065278
       -0.0000006292   0.0000097838   0.0000005191  -0.0000679358  -0.0000628083
       -0.0000017155  -0.0000332756   0.0000511418   0.0000213548  -0.0001215855
       -0.0009664730  -0.0000155046   0.0007847243   0.0015916095   0.0000108401
       -0.0003025756  -0.0000202927  -0.0000087508   0.0000574060   0.0001615155
       -0.0000074161  -0.0000441099   0.0001773840   0.0000110645  -0.0000902866
       -0.0000977841   0.0000228720   0.0000764488   0.0000043112  -0.0000532397
       -0.0000160641   0.0000008484   0.0000160429   0.0000157764   0.0000081179
       -0.0000109141   0.0000015594  -0.0000063797  -0.0000008086   0.0000028480
        0.0000101159   0.0000040933  -0.0000037103  -0.0000228474  -0.0000041270
        0.0000003237   0.0000166357   0.0000156959  -0.0000193318  -0.0000278819
        0.0000037207   0.0000098102   0.0000071238  -0.0000000346  -0.0000013014
        0.0000093068   0.0000119384   0.0000117942  -0.0000001318  -0.0000198979
       -0.0000241236   0.0000531310   0.0000382933   0.0002348340  -0.0000196894
        0.0000094017  -0.0002653636   0.0000160954   0.0000006119   0.0000592498
        0.0000952749   0.0000397085  -0.0000098938  -0.0000166541  -0.0000194300
        0.0000216574   0.0000081568   0.0000158332  -0.0000138615   0.0000107849
        0.0000111607   0.0000049306  -0.0000161423  -0.0000096661  -0.0000170479
        0.0000231029   0.0000225739  -0.0000219143  -0.0000226745  -0.0000216930
        0.0000069776   0.0000142023   0.0000062206  -0.0000123648  -0.0000062139
       -0.0000087366   0.0000217587  -0.0000112460  -0.0000205799  -0.0000172723
        0.0000221092   0.0000132139   0.0000719277  -0.0001115129  -0.0000421403
        0.0000300161  -0.0002435300   0.0000136484  -0.0000945952   0.0001943047
       -0.0000095737   0.0000807972   0.0000021559   0.0000595637  -0.0000120525
       -0.0000073556  -0.0000229362   0.0000208254  -0.0000164250   0.0000127148
       -0.0000052391   0.0000188570   0.0000054659  -0.0000073614  -0.0000049703
       -0.0000108415   0.0000059428   0.0000246695   0.0000100586  -0.0000467472
        0.0000044232  -0.0000375363  -0.0000008573   0.0000306535  -0.0000099807
        0.0000095230   0.0000056073   0.0000096266  -0.0000080935   0.0000048102
       -0.0000316558   0.0000325442  -0.0000063758   0.0000099453  -0.0000388336
       -0.0001490595  -0.0000617437  -0.0000295790  -0.0001153650  -0.0000124317
       -0.0035249178  -0.0009587016   0.0001131768  -0.0010901607  -0.0631126292
       -0.0001746214   0.0829998625   0.0283316826  -0.0054132015   0.0113851506
       -0.0255838601  -0.0008727148   0.0008102240  -0.0434569777  -0.0001656880
       -0.0114857686  -0.0248419522   0.0007158186  -0.0000170586   0.0000061546
        0.0000019658  -0.0000090612  -0.0000325119   0.0000028657   0.0000035774
       -0.0000317599   0.0000032103   0.0000143469  -0.0000001621   0.0000023691
       -0.0000151308   0.0001162448  -0.0000391495   0.0000234624   0.0000145107
       -0.0000170468   0.0000033077  -0.0000002668  -0.0000037294  -0.0000037888
        0.0000044020   0.0000065065  -0.0000054307  -0.0000007623   0.0000063946
       -0.0000029107  -0.0000030557   0.0000037701  -0.0000018365  -0.0000069060
        0.0000029085   0.0000036168  -0.0000018314   0.0000023532   0.0000000547
       -0.0000024218   0.0000097224   0.0000027024   0.0000008836   0.0000049792
        0.0000010035  -0.0000062712  -0.0000021024  -0.0000050383  -0.0000050603
       -0.0000018461  -0.0000090683  -0.0000020097   0.0000019774  -0.0000076228
        0.0000005565  -0.0000005956  -0.0000065705   0.0000036888   0.0000037645
       -0.0000024077   0.0000082739   0.0000071222   0.0000026171  -0.0000088471
       -0.0000025367   0.0000005461   0.0000026573   0.0000080523  -0.0000021521
       -0.0000020131  -0.0000023601  -0.0000028523  -0.0000001415  -0.0000029820
       -0.0000082340   0.0000038264  -0.0000038846  -0.0000058456   0.0000133784
        0.0000012774  -0.0000027529   0.0000114367   0.0000224070  -0.0000046197
       -0.0000270870  -0.0000115497   0.0000538041  -0.0000798293   0.0000164610
       -0.0001562374  -0.0004841310   0.0000479462  -0.0002172589   0.0012837668
       -0.0000151537
        0.0070138648  -0.0098221659  -0.0495665648  -0.0367955724   0.0016829218
        0.1191653974   0.0068810274   0.0084580268  -0.0482405109   0.0018946492
        0.0019682332   0.0020137643   0.0009734106  -0.0000314057   0.0080267417
       -0.0001686766  -0.0003442464  -0.0006237369   0.0000993671   0.0000706172
       -0.0004194708   0.0000006541  -0.0000171479   0.0000906220   0.0000097616
        0.0000106002   0.0000123338   0.0000058380  -0.0000020251  -0.0000054510
       -0.0000019043  -0.0000026498  -0.0000034659  -0.0000042471  -0.0000017221
       -0.0000128461  -0.0000038078  -0.0000047942  -0.0000020965  -0.0000830119
        0.0000212894   0.0003308684   0.0001193900  -0.0000757607  -0.0009201471
       -0.0000057638   0.0000154865   0.0000483485   0.0000022935   0.0000099162
        0.0000147849  -0.0000003270   0.0000049621  -0.0000109821  -0.0000033185
       -0.0000057830  -0.0000011507   0.0000051804   0.0000004949  -0.0000025838
        0.0000024356   0.0000000197   0.0000037264   0.0000003979   0.0000006755
       -0.0000003244  -0.0000011290   0.0000005698   0.0000008270  -0.0000011640
        0.0000010197  -0.0000017154   0.0000011602  -0.0000016501   0.0000007094
        0.0000009271   0.0000012266   0.0000032933  -0.0000021768  -0.0000024984
       -0.0000014736   0.0000020546  -0.0000005338   0.0000024398  -0.0000003453
        0.0000012840  -0.0000013048  -0.0000009265  -0.0000006266   0.0000005460
       -0.0000021887   0.0000052394   0.0000020385   0.0000075023   0.0000000893
        0.0000007340  -0.0000063963   0.0000011687   0.0000032607   0.0000031626
        0.0000031409   0.0000026244  -0.0000009857  -0.0000002548   0.0000007106
        0.0000006407  -0.0000000758   0.0000013194  -0.0000012819  -0.0000005186
        0.0000032825  -0.0000004044   0.0000013656  -0.0000004089   0.0000004250
        0.0000021742   0.0000012539  -0.0000002109  -0.0000009972   0.0000008424
       -0.0000005284  -0.0000024866   0.0000014150  -0.0000010315   0.0000003929
        0.0000022962   0.0000018255   0.0000002915  -0.0000008993  -0.0000004501
       -0.0000002854   0.0000015075   0.0000033319  -0.0000031219  -0.0000018868
       -0.0000003665  -0.0000079952  -0.0000090647  -0.0000005165   0.0000053663
        0.0000016828   0.0000012074   0.0000016247   0.0000009003  -0.0000037507
       -0.0000010855   0.0000034823  -0.0000008639  -0.0000005412   0.0000016759
       -0.0000003259   0.0000001374   0.0000011671   0.0000031523   0.0000011178
       -0.0000011826  -0.0000003680   0.0000001443   0.0000004874  -0.0000015309
        0.0000020333  -0.0000009152   0.0000002900  -0.0000032907   0.0000041763
        0.0000011873   0.0000020834   0.0000014548  -0.0000014274   0.0000018092
        0.0000006493   0.0000011989  -0.0000035191   0.0000006257   0.0000017098
       -0.0000029310  -0.0000022905   0.0000011030  -0.0000066561  -0.0000001466
        0.0001171888   0.0002323637  -0.0001533774  -0.0005722198  -0.0001685143
       -0.0057362255   0.0026349935  -0.0016536491   0.0013152878  -0.0003071491
        0.0007204035   0.0015329417   0.0177204485  -0.0001300552  -0.0360187349
       -0.0003783834  -0.0008981614   0.0015804837  -0.0000006452   0.0000003424
        0.0000019815   0.0000004919  -0.0000016400  -0.0000019883   0.0000001347
       -0.0000013334   0.0000015174   0.0000026207  -0.0000021141  -0.0000041392
       -0.0000084546   0.0000024708  -0.0000119593   0.0000029023   0.0000027116
        0.0000020009   0.0000023526   0.0000001711   0.0000000876   0.0000003202
       -0.0000005509   0.0000001551   0.0000027875  -0.0000007642   0.0000016980
        0.0000018113   0.0000002629   0.0000004732  -0.0000003390   0.0000006867
        0.0000004981  -0.0000013604   0.0000004160  -0.0000006141  -0.0000013259
       -0.0000025617  -0.0000012473   0.0000011195   0.0000005496   0.0000004064
       -0.0000006372   0.0000006733  -0.0000006028  -0.0000009131  -0.0000005985
        0.0000018455  -0.0000008100   0.0000000618   0.0000019350   0.0000007927
       -0.0000003470   0.0000015958   0.0000007310   0.0000002225   0.0000011241
        0.0000009365   0.0000000955   0.0000001596  -0.0000008399  -0.0000000224
        0.0000004536  -0.0000017475   0.0000004992   0.0000008968   0.0000002191
        0.0000000468  -0.0000002524  -0.0000031169  -0.0000000034   0.0000018894
       -0.0000013731   0.0000005321   0.0000000644  -0.0000000783  -0.0000011367
       -0.0000002570   0.0000006435  -0.0000002107  -0.0000028112  -0.0000007195
        0.0000005396  -0.0000009512  -0.0000001025   0.0000040262   0.0000034037
       -0.0000653986   0.0000024246  -0.0002624006   0.0009109701  -0.0000365906
        0.0078232909
        0.0585352658  -0.0296790287  -0.0039476356  -0.1572755898  -0.0674879806
        0.0068810274   0.6359287785  -0.0002152822  -0.0339304054  -0.3064745863
       -0.0176233198   0.0164524500  -0.0291101852  -0.0237760755   0.0016405099
       -0.0035962699   0.0068473149   0.0002479442  -0.0010917664  -0.0020336305
        0.0000041900  -0.0002925949   0.0006781964  -0.0000186909  -0.0003534927
       -0.0002982807  -0.0000080465  -0.0001756805  -0.0000517482  -0.0000168211
        0.0000325261  -0.0001051355  -0.0000072599   0.0000465010   0.0000332838
        0.0000037571   0.0004476747   0.0002268319   0.0000410639   0.0003926320
        0.0022934586  -0.0000484852  -0.0031812866  -0.0039836620   0.0000489011
        0.0007750374  -0.0001097950   0.0000008391  -0.0001673765  -0.0004276646
        0.0000170393   0.0000445352  -0.0004986974  -0.0000027312   0.0001798342
        0.0002851126  -0.0000330408  -0.0001581092  -0.0000009017   0.0001121336
        0.0000342195   0.0000117178  -0.0000282168  -0.0000253885  -0.0000137410
        0.0000237067   0.0000008918   0.0000181683   0.0000095256   0.0000002488
       -0.0000236903  -0.0000078445  -0.0000027830   0.0000545026   0.0000259607
        0.0000153639  -0.0000271155  -0.0000425105   0.0000233136   0.0000367711
       -0.0000094741  -0.0000211960  -0.0000177630   0.0000071749   0.0000097285
       -0.0000169570  -0.0000259280   0.0000188435   0.0000229175   0.0000131558
        0.0000625947  -0.0001586673  -0.0000868232  -0.0006060587   0.0000507012