$hessian                                                                        
        0.6478200031   0.0320422655   0.0589693452  -0.3155481670  -0.0012656136
       -0.0370084512  -0.0084779083   0.0753919158  -0.0488895552   0.0041958872
        0.0000924178  -0.0004670670  -0.0006593172  -0.0007287916   0.0004418073
        0.0004233024  -0.0002474132  -0.0000146688  -0.0003573344  -0.0000089008
       -0.0001036831   0.0001226330  -0.0000635363   0.0001023499  -0.0000076075
       -0.0000695927  -0.0000067994   0.0000057071  -0.0000443955  -0.0000123778
       -0.0000304839  -0.0000065869  -0.0000041540   0.0000292158   0.0000429459
        0.0000004314  -0.0000312859   0.0000538206   0.0000036825   0.0000360230
        0.0000035141   0.0000081906  -0.0000388255  -0.0000060673  -0.0000090079
       -0.0000079117   0.0000223347  -0.0000050363   0.0000000004   0.0000365545
       -0.0000018520   0.0000623125  -0.0000575823   0.0000031081  -0.0000571689
        0.0001366280   0.0000418016   0.0005243559   0.0000854978   0.0000352028
       -0.0012715723   0.0014845636  -0.0004378298  -0.0566887094  -0.0171342128
        0.0031899174   0.0486991167  -0.0475566381   0.0392442365   0.0012935779
        0.0039371305  -0.0039983693  -0.0005636241   0.0001778201  -0.0002069295
        0.0003396803   0.0001143356   0.0000231952  -0.0001691441   0.0000624678
       -0.0000524099  -0.0000288952   0.0002135357   0.0000365687   0.0001676261
       -0.0001942768  -0.0000590916  -0.0001740574   0.0002372357   0.0000131307
        0.0003541596   0.0000178178  -0.0001392211  -0.0000739232  -0.0000184352
        0.0000319590  -0.0000016562  -0.0000715076   0.0000177349  -0.0000418978
       -0.0000434439  -0.0002151306  -0.0001387262  -0.0000488790   0.0001874047
        0.0002436250  -0.0010140002   0.0000283159  -0.2103216301  -0.0805292820
        0.0236851347  -0.0619125609   0.0534565375  -0.0382022460  -0.0235398329
        0.0007791733  -0.0043826553  -0.0002684681  -0.0001806080   0.0000074861
        0.0000446886   0.0000279445  -0.0000459155  -0.0000161832   0.0000024704
       -0.0000034478   0.0000137135   0.0000134669   0.0000041404   0.0000254260
       -0.0000042957   0.0000029143   0.0000140810  -0.0000178952  -0.0000019839
        0.0000143325  -0.0000035861  -0.0000017617   0.0000043713  -0.0000244285
       -0.0000027313  -0.0000180365  -0.0000261678  -0.0000048352  -0.0000282626
       -0.0000280191  -0.0000081863  -0.0000447750  -0.0002808145   0.0000186201
       -0.0003591942  -0.0003856112   0.0000019175  -0.0002729874   0.0000056457
        0.0002736919  -0.0000054933  -0.0000432433  -0.0000115761   0.0000555474
       -0.0000038421  -0.0000013950   0.0000175712   0.0000323270   0.0000090902
        0.0000200874   0.0000068768  -0.0000090912   0.0000198947   0.0000407879
        0.0000430798  -0.0000493852   0.0000002026   0.0000107671  -0.0000701631
        0.0000441570   0.0001493927  -0.0232717507  -0.0184547238   0.0077228424
        0.0320422655   0.5161246749  -0.2473197446   0.0647707513  -0.0857143314
        0.0346822890   0.0271135061   0.0049210641   0.0017711144   0.0011557758
       -0.0016869899   0.0056739151   0.0002128958  -0.0002335609  -0.0000536413
        0.0000791883   0.0001118384  -0.0002694277  -0.0001373915  -0.0000580322
       -0.0000170280  -0.0000278703  -0.0000033496   0.0001066580  -0.0000105607
       -0.0000129532  -0.0000059639   0.0000088520   0.0000205309  -0.0000032869
        0.0000112939  -0.0000098575   0.0000024044   0.0000140564  -0.0000140191
       -0.0000163671  -0.0000354165   0.0000046479  -0.0000077455   0.0000240403
        0.0000090306   0.0000414650  -0.0000124476  -0.0000079466  -0.0000044452
        0.0000288948   0.0000055690   0.0000025228  -0.0000006110  -0.0000172161
       -0.0000031631  -0.0000377410  -0.0000173578  -0.0000206059   0.0000124144
        0.0000443493   0.0000180075   0.0004172190   0.0000605191  -0.0005359419
        0.0001089863   0.0001422436   0.0000282565  -0.0177134829  -0.0042851187
       -0.0028609283   0.0013929866  -0.0454644817   0.0284617625   0.0011246383
       -0.0012031656   0.0042534586  -0.0004029091  -0.0004236387   0.0002238232
        0.0003474887  -0.0000107932  -0.0002412004  -0.0001636710   0.0000601147
       -0.0000115932   0.0000224675   0.0001993576   0.0000340453   0.0000806575
       -0.0001584231  -0.0000858183  -0.0002986553  -0.0000004863  -0.0000160778
       -0.0000147943  -0.0001140908  -0.0002014750  -0.0000850727  -0.0000073010
       -0.0000838009   0.0000062583  -0.0000204232   0.0000178818  -0.0000910875
       -0.0000383695  -0.0001277737   0.0000280120   0.0000881039  -0.0000027554
        0.0001953464  -0.0008625784   0.0010467724  -0.1458109896  -0.1826000172
        0.0639610137   0.0536915319  -0.2035567822   0.1155009562  -0.0189634241
        0.0017902852  -0.0035572254   0.0000270064  -0.0000159563   0.0002183492
        0.0000174946   0.0000120486  -0.0000032140   0.0000072986  -0.0000000283
        0.0000027550   0.0000016678  -0.0000035693  -0.0000021324   0.0000016986
        0.0000000752   0.0000015004   0.0000026871   0.0000000648   0.0000010632
       -0.0000008356  -0.0000017160   0.0000027693  -0.0000068211  -0.0000014406
        0.0000005329  -0.0000007780   0.0000098453   0.0000017847   0.0000063533
        0.0000067966   0.0000091136  -0.0000384063   0.0000307360   0.0001999459
       -0.0002709117   0.0002909387  -0.0005921159  -0.0002139226   0.0001589298
        0.0002708193   0.0000101488  -0.0000151631  -0.0000295235   0.0000456534
        0.0000076724   0.0000059164   0.0000176200   0.0000285785  -0.0000018891
        0.0000044127   0.0000062249  -0.0000241563   0.0000164802   0.0000178109
        0.0000365724  -0.0000181676   0.0000279568   0.0000141880  -0.0000641982
       -0.0000776866   0.0001407247   0.0013721176   0.0024568364  -0.0006333409
        0.0589693452  -0.2473197446   0.2807241042  -0.0785461648   0.0249770121
       -0.0737363648  -0.0188404008   0.0079047179  -0.0071040577  -0.0006891768
        0.0054753837   0.0033386144   0.0007139452  -0.0000866627   0.0003218307
        0.0000282395   0.0001823813  -0.0001342862   0.0000529202  -0.0001264886
       -0.0000020112  -0.0000111859  -0.0000145439   0.0000345317   0.0000200873
       -0.0000068359   0.0000014342  -0.0000163157  -0.0000223786  -0.0000047983
       -0.0000113599  -0.0000067657  -0.0000025627   0.0000025878   0.0000280131
       -0.0000009635   0.0000181155  -0.0000065192   0.0000041545   0.0000006468
        0.0000502464   0.0000174590  -0.0000099297  -0.0000010358  -0.0000035137
       -0.0000121224   0.0000015719  -0.0000044710  -0.0000114305   0.0000231313
        0.0000004874   0.0000319655  -0.0000093813   0.0000062835  -0.0001250621
        0.0000358800  -0.0000170857   0.0000901914   0.0003975082  -0.0002231735
       -0.0016250183   0.0005168740  -0.0003356441   0.0027751078  -0.0024567045
       -0.0019426998   0.0075832086   0.0208111227  -0.0134447365  -0.0035807704
        0.0047995500   0.0044032278   0.0004190105  -0.0007086302   0.0002743388
       -0.0000506513   0.0001495461   0.0000378527   0.0000657894   0.0000038217
       -0.0001207663  -0.0000096991  -0.0000496124   0.0000070901  -0.0000177417
       -0.0000123103  -0.0000386948  -0.0002382562  -0.0002017665   0.0000171896
       -0.0001913479   0.0005286397   0.0001219839   0.0001257627  -0.0000088751
       -0.0000673128  -0.0000642985  -0.0000439707   0.0000349279   0.0000392660
        0.0001235182  -0.0000080612   0.0001176634  -0.0001409493  -0.0000303877
        0.0010288361   0.0014792884  -0.0005311578   0.0655086892   0.0741776389
       -0.0822129968  -0.0380549897   0.1154534740  -0.1138527023   0.0089629184
       -0.0007641397   0.0021301606   0.0000595484  -0.0001017564  -0.0000238866
        0.0000389278  -0.0000105444   0.0000333576  -0.0000081316  -0.0000000428
       -0.0000038671   0.0000031056   0.0000070264   0.0000025388   0.0000045394
       -0.0000008061   0.0000012506   0.0000026503  -0.0000039284  -0.0000007824
       -0.0000001230   0.0000044124   0.0000028322   0.0000055985  -0.0000036100
       -0.0000002218  -0.0000025573  -0.0000097379  -0.0000012716  -0.0000105279
       -0.0000150705  -0.0000093734  -0.0000774348  -0.0001194290   0.0000531729
        0.0001633707  -0.0004074697   0.0000999380   0.0001131035  -0.0000564679
       -0.0000031860  -0.0000287888   0.0000184016   0.0000235457  -0.0000102273
       -0.0000032288   0.0000217580  -0.0000353024  -0.0000115718   0.0000105200
       -0.0000001468   0.0000332869   0.0000038295  -0.0000028285  -0.0000082402
       -0.0000008545   0.0000019395  -0.0000086116  -0.0000058706   0.0000260461
        0.0000262831  -0.0000265044  -0.0046911366  -0.0044608989   0.0021658524
       -0.3155481670   0.0647707513  -0.0785461648   0.6635811785   0.0432400756
        0.0467012094  -0.1013364176   0.0133592824  -0.0175341139  -0.0178056984
        0.0248157907  -0.0176116786   0.0002803739   0.0025961283  -0.0006798167
       -0.0003481307   0.0001415953   0.0006931968   0.0005252509   0.0002116774
        0.0001570603  -0.0000403108   0.0000668509  -0.0002676585  -0.0000191968
        0.0001361477   0.0000284738   0.0000169886   0.0000667550   0.0000277970
        0.0000374060   0.0000074069   0.0000050044  -0.0000282476  -0.0000873623
        0.0000215953   0.0000411954  -0.0000508954  -0.0000058907  -0.0000609392
        0.0000625437  -0.0000662609   0.0000201853   0.0000070210   0.0000065018
       -0.0000040446  -0.0000290106   0.0000078500   0.0000077241  -0.0000865173
       -0.0000004670  -0.0001008549   0.0000695210   0.0000024348  -0.0002366412
       -0.0002745940  -0.0000607712  -0.0016042896   0.0008942673   0.0009620295
       -0.0029954567  -0.0017916317  -0.0012814858   0.0462399099  -0.0001245525
        0.0065975537  -0.0299341628   0.0281160786  -0.0226012999  -0.0007139928
       -0.0014743727   0.0015175598   0.0005251084   0.0000346691   0.0001260645
       -0.0002362350  -0.0000724635   0.0000908788   0.0001921238  -0.0000135252
        0.0000303073   0.0000144489  -0.0001710288  -0.0000375912  -0.0001413587
        0.0001413774   0.0000587732   0.0002064500  -0.0000498674  -0.0000555098
       -0.0001988243  -0.0000061776   0.0001572255   0.0000803926   0.0000413140
        0.0000058992   0.0000157362   0.0000552433  -0.0000152226   0.0000328802
       -0.0000195943   0.0001681423   0.0000694755  -0.0000215202  -0.0001726390
       -0.0002004130   0.0009412134  -0.0003380352  -0.0590573429  -0.0567351568
        0.0260408018  -0.0097825040   0.0034970600  -0.0033661620  -0.1665933872
       -0.1150438664   0.0589292371  -0.0003613444   0.0000642363  -0.0009248834
       -0.0000706687  -0.0000188818   0.0000013706   0.0000201885  -0.0000056441
       -0.0000078044  -0.0000334099  -0.0000255687  -0.0000134100  -0.0000312128
        0.0000035302  -0.0000114399  -0.0000188690   0.0000193159   0.0000001066
       -0.0000245151   0.0000210990  -0.0000090688  -0.0000141597   0.0000355316
        0.0000011560   0.0000187718   0.0000527695   0.0000051587  -0.0000160892
       -0.0000112609   0.0000035440   0.0001265340   0.0000024836  -0.0004053855
       -0.0025022360  -0.0036045923   0.0012847854  -0.0000319583  -0.0001606043
       -0.0001018781  -0.0000133916   0.0000181330   0.0000259820  -0.0000445521
       -0.0000006504  -0.0000010569  -0.0000134048  -0.0000193768   0.0000010245
       -0.0000101145  -0.0000089824   0.0000035232  -0.0000094397  -0.0000358792
       -0.0000364987   0.0000361710  -0.0000102448  -0.0000205905   0.0000374559
       -0.0000363867  -0.0000893650  -0.0019439680  -0.0034996603   0.0005999018
       -0.0012656136  -0.0857143314   0.0249770121   0.0432400756   0.4934598713
       -0.2375765412   0.0662718520  -0.2186163213   0.1153160916   0.0180886655
       -0.0073680223   0.0068472725  -0.0036584561  -0.0018929026   0.0001997261
        0.0009144562  -0.0005854417   0.0000507344  -0.0009316045   0.0001997310
       -0.0002056740   0.0004566006  -0.0001042839   0.0001492094  -0.0001286703
       -0.0000107333  -0.0000082571   0.0000541756  -0.0000360438   0.0000024957
       -0.0000443036  -0.0000075979  -0.0000054984   0.0001077041   0.0000070025
        0.0000132760  -0.0001160706   0.0001063618  -0.0000082173   0.0000500159
        0.0000001375   0.0000248733   0.0000180579  -0.0000087125   0.0000061080
        0.0000060295   0.0000075091   0.0000011126  -0.0000397725   0.0000166144
       -0.0000020511  -0.0000651897  -0.0000356084  -0.0000418449  -0.0000499697
        0.0001699641  -0.0000001188   0.0013557982  -0.0001737216  -0.0000351368
       -0.0017487698   0.0030514124  -0.0000095452  -0.0419818796  -0.0416113543
        0.0228360040   0.0265505470  -0.0173496997   0.0125179589  -0.0013530555
       -0.0009202745  -0.0003660813   0.0006208955  -0.0000559686   0.0001282089
        0.0000127113   0.0000866609   0.0001080787  -0.0000710738  -0.0000290843
       -0.0000649642   0.0000447144   0.0000072769  -0.0000145864  -0.0000100488
        0.0000514158  -0.0000238176   0.0000089085  -0.0001215124  -0.0000497467
        0.0000124210   0.0001758321  -0.0000311241   0.0000848481  -0.0001344191
       -0.0000238471  -0.0001011383   0.0000380768   0.0000682427  -0.0000135237
        0.0001020338  -0.0000729242  -0.0000911609  -0.0001548001   0.0001086100
       -0.0000900738   0.0001644999  -0.0003378558  -0.0066157362   0.0301332929
       -0.0199298414   0.0231534396  -0.0051238558   0.0072233528  -0.1148952934
       -0.1471808554   0.0601004180  -0.0004067788   0.0000389426  -0.0005261697
       -0.0000406897  -0.0000727886  -0.0000906104   0.0000029925  -0.0000423052
       -0.0000204871  -0.0000146956  -0.0000108607  -0.0000075733  -0.0000150723
       -0.0000023975  -0.0000026331  -0.0000100337   0.0000087372   0.0000002535
       -0.0000125912   0.0000076151  -0.0000017327  -0.0000029109   0.0000111675
        0.0000007267   0.0000019410   0.0000122653   0.0000072080   0.0000064493
       -0.0000506457   0.0000148211  -0.0000291970  -0.0003126456   0.0001997767
       -0.0033097799  -0.0000597507   0.0042203326  -0.0000537153   0.0000204548
        0.0000653870   0.0000043831   0.0000178345   0.0000034512  -0.0000014698
        0.0000045644   0.0000302684  -0.0000020477  -0.0000032010  -0.0000057526
       -0.0000015647  -0.0000020048   0.0000007416   0.0000120837  -0.0000202347
        0.0000189667   0.0000016312  -0.0000140284  -0.0000151642  -0.0000511084
        0.0000115332   0.0000878865  -0.0038583379  -0.0000843996   0.0041491905
       -0.0370084512   0.0346822890  -0.0737363648   0.0467012094  -0.2375765412
        0.2721234962  -0.0546214691   0.1082084152  -0.1252084512  -0.0095042570
        0.0080529666  -0.0043744935   0.0005815175   0.0003183716  -0.0009136977
        0.0001492497   0.0002270662   0.0002331119   0.0001320017   0.0002739359
        0.0001214475  -0.0000332436   0.0000732036  -0.0000631936   0.0000053473
       -0.0000146307  -0.0000024087   0.0000149650   0.0000226205   0.0000090934
        0.0000202880   0.0000190384   0.0000056863  -0.0000440461  -0.0000199885
       -0.0000020658   0.0000256161   0.0000046230   0.0000021319  -0.0000521757
        0.0000115679  -0.0000248354   0.0000103341   0.0000064936   0.0000070548
       -0.0000021977  -0.0000161942   0.0000001249   0.0000132088  -0.0000298791
        0.0000056691  -0.0000178797   0.0000347432   0.0000218990   0.0000160688
       -0.0001496312  -0.0000731687  -0.0006674248   0.0002966741   0.0002008837
        0.0005408081  -0.0015718503   0.0009214292   0.0343953847   0.0284002981
       -0.0124596648  -0.0204370937   0.0120620404  -0.0170461826   0.0006397202
       -0.0000065572   0.0004273900  -0.0001655131   0.0000272711  -0.0001219340
       -0.0000941066  -0.0000056994   0.0000387646   0.0001035692  -0.0000089233
        0.0000483798  -0.0000362360  -0.0000500423  -0.0000017621  -0.0000199362
        0.0000094356   0.0000296962   0.0000363750   0.0000230173   0.0000168100
       -0.0000848595  -0.0001300194   0.0000748012  -0.0000317173   0.0000925229
        0.0000213638   0.0000518806  -0.0000076842  -0.0000463796   0.0000460382
       -0.0000379306   0.0000907879   0.0000884044   0.0001200847  -0.0000335711
       -0.0000460348   0.0001821143   0.0001359484  -0.0045945223  -0.0269978667
        0.0180246834  -0.0162847971   0.0043686224  -0.0041352523   0.0585088813
        0.0593182926  -0.0641957863  -0.0000922621   0.0005020279   0.0000395826
        0.0000620021   0.0000526519   0.0000140302   0.0000133218   0.0000229264
        0.0000076234  -0.0000008913  -0.0000033462  -0.0000002553  -0.0000054302
        0.0000055575  -0.0000012799  -0.0000029824   0.0000057584  -0.0000011884
       -0.0000006362   0.0000014487  -0.0000016393  -0.0000015392   0.0000090549
       -0.0000017237   0.0000099857   0.0000145268  -0.0000016144   0.0000088253
        0.0000272122  -0.0000181565   0.0000967694   0.0002803885  -0.0001340879
        0.0007000537   0.0044782327   0.0048890987  -0.0000291537  -0.0000908535
       -0.0000475563  -0.0000114285  -0.0000016562   0.0000084450  -0.0000180665
       -0.0000047587  -0.0000175437  -0.0000047658  -0.0000057071   0.0000062539
       -0.0000058315  -0.0000060699   0.0000046945  -0.0000116492   0.0000001180
       -0.0000239673   0.0000107597   0.0000022595   0.0000016318   0.0000789457
        0.0000633958  -0.0001006354   0.0008690665   0.0044345622   0.0052568472
       -0.0084779083   0.0271135061  -0.0188404008  -0.1013364176   0.0662718520
       -0.0546214691   0.6171202169   0.0337126533   0.0454925383  -0.2075623021
        0.0225604528  -0.0344360458  -0.0334631242  -0.0095269353  -0.0057075735
        0.0027485517  -0.0043577340  -0.0012596075  -0.0029266750   0.0007095339
       -0.0004634624   0.0011560849  -0.0003530033   0.0006087446  -0.0002486957
       -0.0004158206  -0.0001159285   0.0001004371  -0.0001191204   0.0000059565
       -0.0000775231  -0.0000074693  -0.0000068141   0.0001728221   0.0001201026
        0.0000023046  -0.0002886563   0.0004018814   0.0000070517   0.0001122571
        0.0000757475   0.0001203036  -0.0001077330   0.0000074542  -0.0000108284
        0.0000633381  -0.0000131594  -0.0000091619  -0.0000552125   0.0001527129
       -0.0000025326   0.0002410971  -0.0003701375  -0.0000107131  -0.0006109371
        0.0008263655   0.0000745724   0.0045699148   0.0017516928  -0.0011225240
       -0.0226386660   0.0210878606  -0.0073424192  -0.1942766589  -0.1281368455
        0.0654205307  -0.0562703878  -0.0068949532  -0.0040126681  -0.0036741377
        0.0020997985  -0.0015004781  -0.0018360294  -0.0004743647  -0.0003575681
        0.0001561842  -0.0001144262  -0.0000922233  -0.0000266773  -0.0000165095
        0.0001678133  -0.0000201191   0.0000626676   0.0000000474   0.0000313414
       -0.0001425892   0.0000995775  -0.0001555407   0.0002464592   0.0002745884
        0.0001252070  -0.0001481461   0.0000442309  -0.0001228513   0.0001426743
        0.0000814769   0.0002046151  -0.0000057077  -0.0001331702   0.0000543019
       -0.0002227484   0.0000118565   0.0000392233   0.0005177437   0.0000869384
       -0.0000665745  -0.0007133667   0.0001933737   0.0019081725  -0.0123646917
        0.0091193418  -0.0053661431   0.0009732264  -0.0022213179   0.0042309394
       -0.0159253482   0.0116618307   0.0008176221   0.0011470502   0.0003598801
       -0.0005246537   0.0001586761  -0.0002847938   0.0000012474   0.0000248997
       -0.0000219035   0.0000581981   0.0000186885   0.0000183753   0.0000391729
       -0.0000001286   0.0000057582   0.0000453543  -0.0000272776  -0.0000027546
        0.0000302167  -0.0000239866   0.0000081887   0.0000033978  -0.0000413279
       -0.0000029911  -0.0000219833  -0.0000863770  -0.0000044963  -0.0000720713
        0.0000581505  -0.0000406584   0.0001978819  -0.0015294956   0.0013583346
        0.0052930522   0.0023787670  -0.0026610175  -0.0001161063  -0.0000631067
       -0.0000454854   0.0000184212  -0.0000342282  -0.0000189763   0.0000223016
       -0.0000010920  -0.0000498088   0.0000102169   0.0000266524   0.0000082287
        0.0000337272   0.0000374813  -0.0000218091   0.0000075444   0.0000658043
       -0.0000195207  -0.0000192712   0.0000605595   0.0000368250   0.0001026118
       -0.0004257521  -0.0002073904   0.0006473850  -0.0002552657   0.0003798437
        0.0753919158   0.0049210641   0.0079047179   0.0133592824  -0.2186163213
        0.1082084152   0.0337126533   0.5145461706  -0.2181386046   0.0230012413
       -0.0693021803   0.0093260513  -0.0191142251   0.0050756130  -0.0050804082
       -0.0034522607  -0.0027575557  -0.0021241098   0.0005156376  -0.0006825443
       -0.0000996106  -0.0003146512   0.0000249855   0.0001436555   0.0000075809
        0.0000486913   0.0000046278  -0.0000170904   0.0000561466  -0.0000093895
        0.0000035221   0.0000126336   0.0000025578  -0.0000281746   0.0000079921
       -0.0000397370  -0.0000073090  -0.0001205030  -0.0000067052   0.0000281933
       -0.0003048118   0.0000536255   0.0001222656  -0.0000359366   0.0000041338
        0.0000160193   0.0000212247   0.0000000471  -0.0000199704   0.0000364367
       -0.0000071459   0.0000157282   0.0001069944  -0.0000146659   0.0011818067
       -0.0001859049   0.0002612023   0.0013146523  -0.0045859470  -0.0012177764
        0.0292066602  -0.0094415731   0.0065071479  -0.0762072060  -0.1734914407
        0.0694185042  -0.0543524931   0.0275161256  -0.0290710791   0.0039492202
        0.0045829601   0.0034392669  -0.0011289803  -0.0000992793   0.0005321507
       -0.0000117573  -0.0001965860  -0.0000847688   0.0000111049   0.0000287938
        0.0001302502  -0.0000489746   0.0000328764   0.0000085328  -0.0000318460
       -0.0001350146  -0.0000209668  -0.0001195495   0.0004360104   0.0000063427
        0.0002518610  -0.0000736513  -0.0001163392  -0.0001416517   0.0001923347
        0.0000142392   0.0001790898  -0.0000413220  -0.0001039954   0.0000871244
       -0.0001373318   0.0000174070  -0.0001044565   0.0001956490  -0.0001308734
        0.0007062600  -0.0002269734   0.0003697545  -0.0142828801  -0.0445274542
        0.0234409979   0.0002951465   0.0030442024   0.0033326072   0.0022161810
       -0.0178941832   0.0117891632  -0.0009082726   0.0003294254   0.0005664928
       -0.0012510895  -0.0000310323  -0.0001494046   0.0000721508   0.0000470774
        0.0000247316  -0.0000040219   0.0000027863  -0.0000018976  -0.0000082244
        0.0000078001   0.0000053697  -0.0000161372   0.0000099006  -0.0000019731
        0.0000131103  -0.0000331877   0.0000057478   0.0000055132  -0.0000010783
       -0.0000012491   0.0000040479  -0.0000155042  -0.0000012349   0.0000810772
       -0.0000006825   0.0000360685   0.0008394171   0.0003671632   0.0010042333
       -0.0146564208  -0.0177811733   0.0098216846   0.0000165264  -0.0001394624
       -0.0000873543  -0.0000086381  -0.0000356210   0.0000088357   0.0000054232
       -0.0000077565  -0.0000442828  -0.0000127974   0.0000138011   0.0000058247
        0.0000189219   0.0000166678  -0.0000150679  -0.0000023987   0.0000436842
       -0.0000239966  -0.0000294917  -0.0000085707   0.0000173130  -0.0001218384
       -0.0004126221  -0.0001051512  -0.0002265274  -0.0004020058   0.0002860873
       -0.0488895552   0.0017711144  -0.0071040577  -0.0175341139   0.1153160916
       -0.1252084512   0.0454925383  -0.2181386046   0.2758372196  -0.0353280946
        0.0057555427  -0.0639636528  -0.0103179021  -0.0015184052  -0.0005884779
       -0.0011290467  -0.0023353205   0.0058469917  -0.0005877256   0.0001250392
       -0.0003393294   0.0005366644   0.0001139071  -0.0014107489  -0.0000700209
       -0.0000990898   0.0000171015   0.0000117574  -0.0000272760   0.0000610119
       -0.0000228675  -0.0000028666  -0.0000136269   0.0000199992  -0.0000014480
        0.0002227762  -0.0000981153   0.0000727165   0.0000082826   0.0000962988
       -0.0000291148  -0.0003666127  -0.0000113519  -0.0000197994   0.0000096186
        0.0000333801   0.0000131717   0.0000423922  -0.0000338272   0.0000547680
        0.0000042898   0.0000224622  -0.0000948002   0.0000712141   0.0000305065
        0.0002415107   0.0001596559  -0.0006677354  -0.0010511271   0.0074123546
       -0.0026480913   0.0045390929   0.0000416362   0.0301045946   0.0623028018
       -0.0821336840   0.0253999802  -0.0198044446   0.0153963558  -0.0029248684
        0.0037600200   0.0042089445  -0.0005406158  -0.0008043634   0.0007292001
        0.0001177518  -0.0000369346   0.0000050857  -0.0001053443  -0.0000171189
       -0.0000839024   0.0000753615   0.0000429935  -0.0000125085  -0.0000412906
       -0.0000735625  -0.0000390973  -0.0003142793   0.0001035304   0.0000902212
        0.0000491524   0.0003269640  -0.0001830473   0.0001060301  -0.0001258294
       -0.0000923928  -0.0000935410   0.0000266495   0.0000717812  -0.0000962606
       -0.0000046430  -0.0001238263  -0.0002043458  -0.0002588758   0.0001419176
        0.0006823138  -0.0000536657  -0.0001068516   0.0099551025   0.0234174505
       -0.0181419692  -0.0023039217   0.0032730974   0.0053788234  -0.0012013686
        0.0095155170  -0.0053073737   0.0005510057   0.0007933739  -0.0019545402
       -0.0003014648   0.0000688358  -0.0001563910   0.0000082653   0.0000203121
       -0.0000048525   0.0000148125   0.0000051901   0.0000025119   0.0000126888
        0.0000036842  -0.0000259853   0.0000073677  -0.0000038127  -0.0000015616
        0.0000226504  -0.0000125337  -0.0000426995  -0.0000009136  -0.0000126170
       -0.0000010488  -0.0000061181  -0.0000182871  -0.0000084069  -0.0000185908
        0.0000296131  -0.0000242155   0.0010114516   0.0002249656  -0.0023563418
        0.0107411231   0.0122777387  -0.0059658030   0.0000082352   0.0000602356
        0.0000718234   0.0000059167   0.0000091383  -0.0000068191   0.0000122500
       -0.0000027553   0.0000328047  -0.0000274840  -0.0000065984   0.0000026731
        0.0000046231   0.0000260170  -0.0000007008   0.0000239253  -0.0000041581
        0.0000340737   0.0000057421   0.0000257847  -0.0000023069   0.0000917907
        0.0001474241   0.0001239530   0.0002631128   0.0000937600  -0.0002534306
        0.0041958872   0.0011557758  -0.0006891768  -0.0178056984   0.0180886655
       -0.0095042570  -0.2075623021   0.0230012413  -0.0353280946   0.5968141891
       -0.0128369142   0.1108781777  -0.1568443817  -0.1274494366  -0.0466023834
       -0.0507538759  -0.0114025105  -0.0137282280   0.0086956196  -0.0102627030
        0.0017217451  -0.0045823870   0.0007400826  -0.0008951321   0.0010257805
        0.0008043587   0.0003022931  -0.0006413398   0.0006874302  -0.0000455372
        0.0001656441  -0.0003273188  -0.0000060139  -0.0001675360  -0.0001179643
       -0.0000479306   0.0005502498  -0.0017438948  -0.0001474292  -0.0000364790
        0.0016385172   0.0000089757  -0.0003767999  -0.0002210206   0.0001058314
        0.0003160227  -0.0000913215   0.0000439966   0.0000336121   0.0000673426
        0.0000628461  -0.0000021388  -0.0009367152   0.0001661074  -0.0048616975
        0.0005160492  -0.0029333529  -0.0191425544   0.0292845916  -0.0008318508
       -0.1173843959   0.1118199883   0.0005910320  -0.0380008528  -0.0101027470
       -0.0031630186   0.0012541266  -0.0049053566   0.0018877643  -0.0005711664
        0.0006267612  -0.0002464823  -0.0004023266  -0.0000156014  -0.0000013254
        0.0000781521  -0.0000297409  -0.0000369765  -0.0000799006  -0.0000279386
        0.0000606383   0.0000350695   0.0000572997  -0.0000150756   0.0000242626
       -0.0000122576   0.0000042407  -0.0000533940   0.0000806623   0.0000625010
        0.0001207990   0.0000429188  -0.0000680196  -0.0000171257  -0.0000142587
       -0.0000025184   0.0000256699   0.0000434927  -0.0000147355  -0.0000132809
       -0.0000542592  -0.0000221733  -0.0000486679   0.0001509766  -0.0000071672
        0.0001205662  -0.0004208954   0.0000285805  -0.0022468633   0.0003180588
       -0.0003618069  -0.0000260197  -0.0001507349  -0.0000775497   0.0006590343
       -0.0011898272   0.0004440060   0.0059065212   0.0066258841   0.0030946913
       -0.0051313487   0.0008739279  -0.0027523614   0.0000308018   0.0002318912
        0.0000642131   0.0000315736   0.0000116859   0.0000022465  -0.0000104659
        0.0000134179   0.0000160977   0.0000277253  -0.0000057947  -0.0000072957
       -0.0000276965   0.0000738406   0.0000061088   0.0000384699  -0.0000086736
       -0.0000127332   0.0000184420  -0.0000072115  -0.0000131262   0.0002264110
        0.0003313442  -0.0000083906   0.0054762143  -0.0164503244  -0.0023588128
        0.0007140444   0.0014541030   0.0000581033  -0.0000344787   0.0000028550
        0.0000084077   0.0000162396  -0.0000049571  -0.0000065466   0.0000078982
        0.0000027499  -0.0000038230   0.0000132783   0.0000075139  -0.0000028714
        0.0000060514   0.0000161983  -0.0000041504   0.0000036576   0.0000110577
        0.0000063310  -0.0000002073   0.0000509268   0.0000225551   0.0000293816
       -0.0001215734   0.0000719484   0.0001639861   0.0000803419   0.0002269078
        0.0000924178  -0.0016869899   0.0054753837   0.0248157907  -0.0073680223
        0.0080529666   0.0225604528  -0.0693021803   0.0057555427  -0.0128369142
        0.6503989165   0.0448206831  -0.0632929829  -0.2136005286  -0.0351602403
       -0.0661376616   0.0395568830  -0.0099828578  -0.0003218902  -0.0525847538
       -0.0064522810  -0.0065604791   0.0004636736  -0.0012619604   0.0023668617
        0.0012608810   0.0005883800  -0.0022974881   0.0016954844  -0.0001870786
       -0.0005319690  -0.0026998889  -0.0004224028   0.0027922530   0.0008637431
        0.0005421815  -0.0036491103  -0.0052752637  -0.0009837221   0.0059913510
        0.0039123037   0.0014802501  -0.0001540243  -0.0023999318  -0.0001660775