42
 energy: -72.812322323496 gnorm: 0.000043659993 xtb: 6.7.1 (edcfbbe)
N            5.14822322777600        2.81902670708860       -1.54487247622819
C            5.39370302963175        1.87428034836352       -0.94157030710482
C            5.78493665683183        0.74228340939688       -0.19371288664197
C            7.17769179033279        0.70675819836610        0.06535805421730
N            8.30380509354177        0.67596025994992        0.27435043333761
C            4.99248783544615       -0.25303436199993        0.28002900411127
C            3.57275280760263       -0.41793910405156        0.13346219962955
C            2.74004030209902        0.42774732254757       -0.61426065219522
C            1.38508650484767        0.20366036444544       -0.70218250363075
C            0.78600101051208       -0.87835280052292       -0.05020272026768
C           -0.65161311253160       -1.14331044208779       -0.17092441969177
C           -1.05638017689927       -2.41699996784390       -0.56748288720521
C           -2.38524990333160       -2.71722772738567       -0.77169306461551
C           -3.37208961819931       -1.74909738052036       -0.57507750907818
C           -4.75226843018967       -2.02311450464767       -0.79853603680799
C           -5.69736685675678       -1.07621348254930       -0.59618662221421
C           -5.34704495813958        0.22948319803835       -0.14383457122953
C           -6.30612509211404        1.21974263633376        0.07562893268002
C           -5.93706908900814        2.47576358748677        0.52137086880074
C           -4.60844053838443        2.77343068831830        0.76166132750861
C           -3.61552145689214        1.81472921249578        0.55290523389183
C           -2.23944301021581        2.07622546477622        0.81101701730425
C           -1.28862289460728        1.13860685589253        0.58960439840066
C           -1.61947281078550       -0.15165528656934        0.07802081801381
C           -2.98820331161852       -0.45777211845655       -0.13527941901631
C           -3.98132658655441        0.52733698339945        0.09003558335597
C            1.59706351232373       -1.74432736250708        0.68229165489158
C            2.94912548886074       -1.50609730840776        0.76695171015503
F            3.69946098946167       -2.35550085818870        1.49631638399924
H            5.49202685429932       -1.02863994335279        0.84959787520646
H            3.17091347422364        1.26610026246966       -1.13673471135160
H            0.77551401000059        0.85967657951083       -1.30486265268727
H           -0.30326512888613       -3.16978109847672       -0.75136736203035
H           -2.67229141235924       -3.70669345948987       -1.09650299561964
H           -5.02446559219003       -3.01286717086730       -1.13648918460196
H           -6.74197430493360       -1.29175909550924       -0.77000121829358
H           -7.34674865495585        0.99363402924659       -0.10739297251415
H           -6.69334822284421        3.22935069557100        0.68575043285639
H           -4.32677193777559        3.75475925608251        1.11526685419476
H           -1.96964285465744        3.04771056085319        1.20003173512177
H           -0.25584780724789        1.35425208480654        0.81942508857687
H            1.17547750518412       -2.59019957178354        1.20294319829529
