$hessian                                                                        
        0.0360812344   0.0918307402   0.1146152875  -0.0474906497  -0.0878713680
       -0.1088203393   0.0168827963  -0.0045653798  -0.0049078189  -0.0025280008
       -0.0015079294  -0.0026548758   0.0020226617  -0.0001472926   0.0003822811
       -0.0003638409   0.0023688794   0.0024135298  -0.0003783345   0.0000244125
       -0.0003544144   0.0001842150   0.0013078879   0.0015607364  -0.0006935896
       -0.0004090326  -0.0006411088   0.0000174468   0.0001221339   0.0001411508
       -0.0001213529  -0.0000413280  -0.0000986491   0.0000169693  -0.0000243417
       -0.0000489863  -0.0000451714  -0.0000344066   0.0000057527   0.0000202593
        0.0000099944   0.0000020089  -0.0000186955  -0.0000408452  -0.0000041288
        0.0000203807   0.0000201367  -0.0000007427  -0.0000093435  -0.0000167409
       -0.0000005719   0.0000142679  -0.0000097334  -0.0000009199   0.0000111634
        0.0000201587  -0.0000004439   0.0000034383   0.0000249065  -0.0000013840
       -0.0000254854  -0.0000133500  -0.0000006439   0.0000355109   0.0000272160
       -0.0000065591   0.0000015908  -0.0000455558  -0.0000040633   0.0000075365
        0.0000871545   0.0000298882  -0.0000133790   0.0000056521   0.0000097567
       -0.0000091147   0.0000115707  -0.0000016127   0.0000146595  -0.0000667072
       -0.0000834997  -0.0000442356   0.0002153069   0.0002779119   0.0000904448
       -0.0002997726  -0.0003660544   0.0003700345  -0.0002129613   0.0005462584
       -0.0040691020  -0.0006479658  -0.0019184622   0.0000963577  -0.0000909944
       -0.0000666601   0.0000053963  -0.0000506126   0.0000148723  -0.0000133835
        0.0000126311   0.0000063970  -0.0000041429   0.0000101050   0.0000005771
       -0.0000170555   0.0000012895   0.0000005981  -0.0000130061   0.0000022170
        0.0000003168  -0.0000135807  -0.0000101237  -0.0000001852   0.0000022740
       -0.0000085982  -0.0000003080  -0.0000031861  -0.0000100904   0.0000040298
        0.0000000565   0.0000362133   0.0000028479  -0.0000240445  -0.0000134762
       -0.0000317691
        0.0918307402   0.5129690277   0.6159016901  -0.0863580127  -0.4985649127
       -0.5788109300  -0.0075618581  -0.0164630532  -0.0396650593  -0.0059048927
        0.0019014110   0.0001075897   0.0025197409  -0.0008589477  -0.0003786258
        0.0112453633   0.0000852658   0.0019340189  -0.0042061238   0.0019490099
       -0.0000863129   0.0014471489  -0.0008949939  -0.0012714652  -0.0011083050
       -0.0002366670  -0.0002163791   0.0012223272  -0.0003165092   0.0000910170
       -0.0006488112   0.0003401042   0.0000271430   0.0000193324  -0.0004410244
       -0.0002417555  -0.0002836457  -0.0000565704   0.0000350514   0.0002007361
        0.0000471804   0.0000060255  -0.0001567870  -0.0000934713  -0.0000062137
        0.0000923774   0.0001046274   0.0000004184  -0.0000368864  -0.0000619896
       -0.0000066944   0.0000447412  -0.0000082068  -0.0000009177   0.0000212968
        0.0000517555   0.0000039951   0.0000564549   0.0000588364   0.0000026266
       -0.0001039465  -0.0000355389  -0.0000164301   0.0001747015   0.0000716199
       -0.0000037004  -0.0000746357  -0.0001802866  -0.0000228795   0.0002329416
        0.0003091590   0.0001621223  -0.0000226934   0.0000732214   0.0000141366
       -0.0000083988   0.0000117065  -0.0000090883  -0.0007029535   0.0006812807
        0.0004693666   0.0015930461   0.0006136888   0.0012849217  -0.0000422491
       -0.0000803559  -0.0001675252  -0.0012116664  -0.0014882459   0.0008534023
       -0.0021134346   0.0003784082  -0.0001140532  -0.0000845470   0.0000338860
        0.0000656335   0.0000309039   0.0000288526   0.0000020673  -0.0000395394
        0.0000509349   0.0000321646  -0.0000119726   0.0000276997  -0.0000028626
       -0.0000238284   0.0000029943   0.0000018150  -0.0000175919   0.0000042007
        0.0000044453  -0.0000176401  -0.0000156456  -0.0000012488   0.0000068921
       -0.0000105070  -0.0000061295   0.0000015765  -0.0000149088   0.0000201016
        0.0000090806   0.0000139091  -0.0000122548  -0.0000089814   0.0000130547
        0.0000207733
        0.1146152875   0.6159016901   0.7805128733  -0.1070446887  -0.5792042090
       -0.7502704729  -0.0085088635  -0.0388376835  -0.0334815147  -0.0077839424
        0.0013636320  -0.0002549538   0.0035094901  -0.0011684247  -0.0002334031
        0.0129534224  -0.0005946694   0.0041265410  -0.0053931244   0.0011397992
        0.0008184168   0.0016125837  -0.0013506862  -0.0006044121  -0.0014652875
       -0.0002792744  -0.0005169617   0.0014759925  -0.0002743316   0.0000887764
       -0.0008208895   0.0003525670   0.0000429321   0.0000930181  -0.0004758308
       -0.0002904406  -0.0003554753  -0.0000869747   0.0000431848   0.0002453803
        0.0000634313   0.0000047852  -0.0001964204  -0.0001229240  -0.0000049469
        0.0001131572   0.0001364132   0.0000016925  -0.0000505462  -0.0000813026
       -0.0000094551   0.0000610818  -0.0000124404   0.0000003041   0.0000292796
        0.0000670355   0.0000057385   0.0000676369   0.0000800279   0.0000077470
       -0.0001374585  -0.0000495891  -0.0000208207   0.0002163744   0.0000961994
        0.0000010970  -0.0001345364  -0.0002200391  -0.0000119772   0.0002767148
        0.0004063093   0.0002007946  -0.0000399605   0.0000719989   0.0000130606
       -0.0000083151   0.0000159016  -0.0000097360  -0.0008207229   0.0008343079
        0.0005027351   0.0019246573   0.0009271422   0.0014824986  -0.0000539611
       -0.0002754419  -0.0002120819  -0.0006378033   0.0011306360  -0.0012938899
       -0.0035916724   0.0003343564  -0.0006891895  -0.0000694189   0.0000639348
        0.0000257351   0.0000352359  -0.0000055883   0.0000017807  -0.0000394098
        0.0000508598   0.0000365239  -0.0000110200   0.0000292584  -0.0000065560
       -0.0000320637   0.0000017079  -0.0000012003  -0.0000221546   0.0000046727
        0.0000034871  -0.0000250650  -0.0000226998  -0.0000030108   0.0000063682
       -0.0000224329  -0.0000068450  -0.0000061073  -0.0000368776   0.0000213240
        0.0000250927   0.0000249754  -0.0000287236  -0.0000118663   0.0000245634
        0.0000085634
       -0.0474906497  -0.0863580127  -0.1070446887   0.1136203729   0.0904959357
        0.1191998751  -0.0545201189  -0.0028344551  -0.0046332375   0.0004635495
        0.0162278645   0.0190548208  -0.0061377809   0.0002426429  -0.0015823041
       -0.0003007260  -0.0171533152  -0.0205500660   0.0009095632  -0.0007133381
        0.0007166892  -0.0029362194  -0.0011755715  -0.0021526824   0.0001487930
        0.0003041285   0.0002689416  -0.0001770913  -0.0000609751  -0.0001239870
        0.0001009043   0.0000230432   0.0000881621   0.0000023267   0.0000243574
        0.0000467609   0.0000408513   0.0000203162  -0.0000103282  -0.0000153852
       -0.0000053692  -0.0000013942   0.0000204103   0.0000340355   0.0000032535
       -0.0000157447  -0.0000100247   0.0000000720   0.0000115390   0.0000111357
        0.0000010871  -0.0000150318   0.0000099348  -0.0000000134  -0.0000120023
       -0.0000184484   0.0000000853  -0.0000060165  -0.0000304547   0.0000008263
        0.0000239237   0.0000182328   0.0000013205  -0.0000209732  -0.0000273881
        0.0000052528  -0.0000075309   0.0000594187   0.0000069979  -0.0000034297
       -0.0000943030  -0.0000246040   0.0000185853  -0.0000047349  -0.0000078590
        0.0000112149  -0.0000080786   0.0000012654   0.0000881684   0.0000709113
        0.0000519737   0.0001580984  -0.0004884747  -0.0005667182  -0.0002853065
        0.0003657968   0.0004291850  -0.0026851291   0.0002871216  -0.0037590975
       -0.0010672971   0.0006897003   0.0004992852  -0.0000097741   0.0000785025
        0.0000725338  -0.0000103321   0.0000454283  -0.0000083630   0.0000152210
       -0.0000128212  -0.0000046185   0.0000036784  -0.0000107277   0.0000001356
        0.0000123016  -0.0000009854  -0.0000002139   0.0000100305  -0.0000019307
       -0.0000001902   0.0000117746   0.0000075001   0.0000003057  -0.0000016206
        0.0000086844   0.0000000848   0.0000027797   0.0000086149  -0.0000044426
       -0.0000028636  -0.0000366759  -0.0000037968   0.0000469371   0.0000127790
        0.0000296912
       -0.0878713680  -0.4985649127  -0.5792042090   0.0904959357   0.6559253230
        0.7194127999  -0.0016113147  -0.1342717246  -0.1006428545   0.0207053541
       -0.0174890173  -0.0170293878  -0.0042446099   0.0028992051   0.0016617185
       -0.0273309653  -0.0104551586  -0.0200934445   0.0091637208  -0.0052316281
        0.0019707309  -0.0015758235   0.0026638425   0.0031885843   0.0019735713
        0.0005233616   0.0002076871  -0.0021831615   0.0006323866   0.0000564225
        0.0011934204  -0.0006512389  -0.0000368263  -0.0000488730   0.0007051635
        0.0004473329   0.0005131162   0.0001045967  -0.0000631152  -0.0003412261
       -0.0000774509  -0.0000120426   0.0002722231   0.0001674663   0.0000139915
       -0.0001696462  -0.0001747512   0.0000004579   0.0000673834   0.0001046478
        0.0000127126  -0.0000952676   0.0000211590   0.0000021192  -0.0000449201
       -0.0000973371  -0.0000072278  -0.0000960232  -0.0001144445  -0.0000054721
        0.0001830221   0.0000688982   0.0000313548  -0.0002861994  -0.0001325108
        0.0000053319   0.0001541702   0.0003347440   0.0000446808  -0.0004008754
       -0.0005287690  -0.0002904601   0.0000587608  -0.0001392500  -0.0000238134
        0.0000073385  -0.0000143685   0.0000160087   0.0014873133  -0.0011807414
       -0.0009774853  -0.0029239266  -0.0015856734  -0.0027793532  -0.0002118514
        0.0003310398   0.0005406735   0.0007764944   0.0064052691  -0.0063553650
        0.0021401264   0.0000170757   0.0001518797   0.0001514229  -0.0000661334
       -0.0001170791  -0.0000613628  -0.0000418417  -0.0000111459   0.0000557588
       -0.0000795483  -0.0000605433   0.0000185395  -0.0000478325   0.0000051279
        0.0000438503  -0.0000049623  -0.0000026187   0.0000319892  -0.0000067118
       -0.0000071321   0.0000317704   0.0000317953   0.0000028110  -0.0000131559
        0.0000283321   0.0000087269  -0.0000032768   0.0000342775  -0.0000385233
       -0.0000336131  -0.0000185811   0.0000184751   0.0000221787  -0.0000239957
       -0.0000415281
       -0.1088203393  -0.5788109300  -0.7502704729   0.1191998751   0.7194127999
        0.9610766876  -0.0031274312  -0.1009816840  -0.1712957701   0.0242474040
       -0.0183335939  -0.0131696977  -0.0068688940   0.0030184743   0.0019413779
       -0.0326428333  -0.0171726608  -0.0298602748   0.0124807834  -0.0008905055
       -0.0021497978  -0.0025207079   0.0033412048   0.0028641073   0.0022674228
        0.0002209464   0.0007306407  -0.0026359684   0.0007126718   0.0000344473
        0.0014724008  -0.0006490245  -0.0001278906  -0.0001356641   0.0008236671
        0.0005301604   0.0006301388   0.0001465042  -0.0000733910  -0.0004177922
       -0.0001033934  -0.0000117650   0.0003396571   0.0002094639   0.0000129214
       -0.0002039967  -0.0002210143  -0.0000000532   0.0000862744   0.0001337334
        0.0000160905  -0.0001188488   0.0000253614   0.0000024706  -0.0000580025
       -0.0001173280  -0.0000088711  -0.0001149993  -0.0001441516  -0.0000094209
        0.0002301182   0.0000868064   0.0000369128  -0.0003484795  -0.0001673017
        0.0000033062   0.0002304408   0.0003926269   0.0000370737  -0.0004650529
       -0.0006835476  -0.0003534238   0.0000774832  -0.0001388116  -0.0000173061
        0.0000080148  -0.0000205919   0.0000176934   0.0017132160  -0.0017022692
       -0.0008893387  -0.0034887732  -0.0021054146  -0.0033552142  -0.0002475458
        0.0007680299   0.0005386201  -0.0031827941  -0.0064938387   0.0031887598
        0.0021337577  -0.0003074171   0.0007245657   0.0001720789  -0.0001387948
       -0.0000688612  -0.0000760918  -0.0000155914  -0.0000087677   0.0000626784
       -0.0000873794  -0.0000706749   0.0000195318  -0.0000536384   0.0000089649
        0.0000543698  -0.0000039098  -0.0000000163   0.0000394002  -0.0000075823
       -0.0000077919   0.0000410478   0.0000409016   0.0000044480  -0.0000129025
        0.0000411780   0.0000133196   0.0000054498   0.0000600207  -0.0000436893
       -0.0000531283  -0.0000316502   0.0000314219   0.0000287020  -0.0000523660
       -0.0000215005
        0.0168827963  -0.0075618581  -0.0085088635  -0.0545201189  -0.0016113147
       -0.0031274312   0.6212264597  -0.0177175839   0.1266208080  -0.2064357303
        0.0749890366   0.0447290013  -0.0472318595   0.0281962526   0.0162105982
       -0.2733107515  -0.0774840817  -0.1599812818  -0.0596904835   0.0037990017
       -0.0127047118   0.0062026916  -0.0075475163  -0.0070466449  -0.0051370583
       -0.0011068156  -0.0017239607   0.0049990013  -0.0015302856  -0.0002585276
       -0.0026287023   0.0011219930   0.0000740689   0.0003563114  -0.0013748005
       -0.0008352591  -0.0010187483  -0.0002424546   0.0000757281   0.0007219326
        0.0001742705   0.0000180679  -0.0005547945  -0.0003250125  -0.0000300486
        0.0003073452   0.0003907150  -0.0000056337  -0.0001253002  -0.0002208742
       -0.0000209237   0.0001491203  -0.0000230034  -0.0000102457   0.0000550838
        0.0001828501   0.0000100468   0.0001863292   0.0002145295   0.0000034236
       -0.0004109714  -0.0001242056  -0.0000480039   0.0005925772   0.0002761662
       -0.0000290148  -0.0003889835  -0.0006614700  -0.0000813120   0.0008596380
        0.0010927327   0.0006271092  -0.0000984531   0.0002105431   0.0000616409
       -0.0000157052   0.0000488223  -0.0000326771  -0.0046992490   0.0028826531
        0.0013637259   0.0043637777   0.0067689374   0.0085497920   0.0015109652
       -0.0016424278  -0.0013096696  -0.0008639218  -0.0017382651  -0.0028774980
       -0.0007213270   0.0004007544   0.0000315578   0.0000384026  -0.0000270265
       -0.0000242857   0.0000693491  -0.0000300164   0.0000277155  -0.0000806593
        0.0001070669   0.0001211713  -0.0000224967   0.0000767261  -0.0000055429
       -0.0000949585   0.0000221010   0.0000055264  -0.0000770332   0.0000274148
        0.0000163116  -0.0000841601  -0.0000605284  -0.0000021363   0.0000109887
       -0.0000734755  -0.0000150756  -0.0000188114  -0.0000994668   0.0000666645
        0.0000238139   0.0000997835  -0.0000367327  -0.0003263063   0.0001201326
        0.0001025231
       -0.0045653798  -0.0164630532  -0.0388376835  -0.0028344551  -0.1342717246
       -0.1009816840  -0.0177175839   0.3055650479   0.2430394424   0.0761358669
       -0.0854544758  -0.0237207112   0.0263227894   0.0036861829  -0.0054495841
       -0.0638360530  -0.0742271649  -0.0651774046  -0.0035607577   0.0068807998
        0.0060944467   0.0020807248  -0.0022360811  -0.0015238829  -0.0020773557
       -0.0003460757  -0.0003843503   0.0014869489  -0.0002229407   0.0002425398
       -0.0007765081   0.0004124715  -0.0000215108   0.0000979570  -0.0003958025
       -0.0002501442  -0.0002982716  -0.0000528014   0.0000263005   0.0002206236
        0.0000453787   0.0000052584  -0.0001686858  -0.0000787176  -0.0000109543
        0.0000923685   0.0001095539  -0.0000008564  -0.0000360732  -0.0000616195
       -0.0000063711   0.0000474500  -0.0000039065  -0.0000009429   0.0000144412
        0.0000480282   0.0000049732   0.0000646628   0.0000563631   0.0000031138
       -0.0001153384  -0.0000361514  -0.0000153772   0.0001743307   0.0000715997
       -0.0000019851  -0.0001139499  -0.0002034919  -0.0000240573   0.0002617790
        0.0002884350   0.0001635968  -0.0000259806   0.0000735479   0.0000264020
        0.0000030767   0.0000041993  -0.0000092648  -0.0006128334   0.0009484563
        0.0008977045   0.0048038006   0.0016577509  -0.0000772414  -0.0003681844
       -0.0002288145  -0.0000712760  -0.0152605223  -0.0054825864  -0.0138374192
        0.0005160330  -0.0000157844  -0.0002399120  -0.0000197183   0.0000491870
       -0.0000098663   0.0000200607   0.0000112762  -0.0000008044  -0.0000184174
        0.0000237198   0.0000355914  -0.0000047377   0.0000177836  -0.0000028979
       -0.0000173941   0.0000032958   0.0000026036  -0.0000142625   0.0000048921
        0.0000044242  -0.0000145184  -0.0000134786   0.0000001606   0.0000045956
       -0.0000144330  -0.0000044306   0.0000010870  -0.0000182303   0.0000182330
       -0.0000017034  -0.0000107526  -0.0000073147   0.0001100880  -0.0001198832
        0.0001031363
       -0.0049078189  -0.0396650593  -0.0334815147  -0.0046332375  -0.1006428545
       -0.1712957701   0.1266208080   0.2430394424   0.4230354464   0.0461217813
       -0.0240514174  -0.0633076234   0.0139642497  -0.0049473716   0.0125854208
       -0.1433941591  -0.0690336057  -0.1578138979  -0.0214968488   0.0082744236
        0.0046397679   0.0043946830  -0.0042869582  -0.0043170568  -0.0039002031
       -0.0004381509  -0.0011631697   0.0031871175  -0.0006570414   0.0001851429
       -0.0017484275   0.0006946304   0.0001253171   0.0002593002  -0.0008725771
       -0.0005272479  -0.0006530101  -0.0001429126   0.0000375895   0.0004730857
        0.0001053277   0.0000105597  -0.0003609804  -0.0001864862  -0.0000147007
        0.0001986457   0.0002413060  -0.0000018023  -0.0000782521  -0.0001364880
       -0.0000138209   0.0001005389  -0.0000077872  -0.0000047909   0.0000349681
        0.0001061177   0.0000062177   0.0001259482   0.0001278580   0.0000052297
       -0.0002447624  -0.0000790130  -0.0000259788   0.0003611696   0.0001578314
       -0.0000172877  -0.0002305862  -0.0004152258  -0.0000652356   0.0005391832
        0.0006852860   0.0003955569  -0.0000684169   0.0001363701   0.0000316562
       -0.0000026069   0.0000256750  -0.0000213058  -0.0019583004   0.0020716339
        0.0013141745   0.0061322910   0.0005520239   0.0051226367   0.0000679956
       -0.0004935484  -0.0006722189  -0.0192124929  -0.0100777681  -0.0148430695
        0.0003537138  -0.0002102519  -0.0000325950  -0.0000258370  -0.0000158408
        0.0000295297   0.0000473634   0.0000033286   0.0000125209  -0.0000412630
        0.0000580492   0.0000759111  -0.0000116821   0.0000433312  -0.0000042650
       -0.0000472339   0.0000108372   0.0000028095  -0.0000383631   0.0000138763
        0.0000110240  -0.0000408985  -0.0000323209  -0.0000013102   0.0000079841
       -0.0000382692  -0.0000093236  -0.0000050186  -0.0000498273   0.0000372669
        0.0000133063   0.0000232959  -0.0000191676   0.0000962660   0.0001101308
       -0.0000106251
       -0.0025280008  -0.0059048927  -0.0077839424   0.0004635495   0.0207053541
        0.0242474040  -0.2064357303   0.0761358669   0.0461217813   1.2579314040
       -0.5293104195  -0.2969581697  -0.9878547039   0.4351866354   0.2494510851
       -0.0679336742   0.0057020175  -0.0125220439   0.0102121752  -0.0035095681
       -0.0043981392  -0.0023454400   0.0028861131   0.0026337167   0.0028881660
        0.0005111340   0.0010732175  -0.0027879178   0.0006486775  -0.0000795455
        0.0016322547  -0.0006420022  -0.0000277065  -0.0001809395   0.0008794971
        0.0006183417   0.0006899062   0.0001786531  -0.0000671698  -0.0004411958
       -0.0001147015  -0.0000195266   0.0003792381   0.0002617329   0.0000244559
       -0.0002204848  -0.0002486856   0.0000060009   0.0001031036   0.0001528436
        0.0000157601  -0.0001282652   0.0000360517   0.0000098712  -0.0000762409
       -0.0001420876  -0.0000037213  -0.0001130796  -0.0001868990   0.0000007079
        0.0002678545   0.0001005229   0.0000331902  -0.0003918421  -0.0002073308
        0.0000234654   0.0002444801   0.0004295422   0.0000680763  -0.0004928395
       -0.0007801201  -0.0004108009   0.0000947633  -0.0001432888  -0.0000288295
        0.0000215250  -0.0000327204   0.0000203167   0.0015020055  -0.0018267510
       -0.0010321356  -0.0046635946  -0.0022698413  -0.0041607989  -0.0004013747
        0.0015456495   0.0016303687   0.0003692032  -0.0001960732   0.0014192806
       -0.0000619495   0.0002339738   0.0003161578   0.0000730343  -0.0000486734
       -0.0000518311  -0.0000699683   0.0000244142  -0.0000500847   0.0000769747
       -0.0001011176  -0.0000912369   0.0000252686  -0.0000657913   0.0000019268
        0.0000863928  -0.0000115064  -0.0000041722   0.0000656818  -0.0000160928
       -0.0000105742   0.0000720764   0.0000575585   0.0000041415  -0.0000129189
        0.0000655786   0.0000097822   0.0000118953   0.0000887244  -0.0000572121
       -0.0000437443  -0.0000694674   0.0000033728  -0.0000270480  -0.0000025101
        0.0000252199
       -0.0015079294   0.0019014110   0.0013636320   0.0162278645  -0.0174890173
       -0.0183335939   0.0749890366  -0.0854544758  -0.0240514174  -0.5293104195
        0.3227561653   0.1499576498   0.4340154338  -0.2303567028  -0.1145736432
        0.0123800542   0.0047720279   0.0088682722  -0.0055624019   0.0076300375
       -0.0057097542   0.0012090168  -0.0013766619  -0.0015283145  -0.0014211264
       -0.0008015259  -0.0000228502   0.0014003151  -0.0003133029  -0.0000354939
       -0.0007276521   0.0004596820  -0.0001258964   0.0000504404  -0.0003891609
       -0.0002971909  -0.0003175746  -0.0000763981   0.0000454520   0.0002068283
        0.0000458225   0.0000089362  -0.0001785662  -0.0001243857  -0.0000142895
        0.0001043869   0.0001157567  -0.0000021522  -0.0000506790  -0.0000718990
       -0.0000080395   0.0000658348  -0.0000229612  -0.0000039117   0.0000340175
        0.0000731787   0.0000030387   0.0000613188   0.0000924923  -0.0000004150
       -0.0001352490  -0.0000527001  -0.0000218213   0.0001924623   0.0001075148
       -0.0000090007  -0.0001497313  -0.0002187379  -0.0000247429   0.0002778225
        0.0003606946   0.0001896618  -0.0000494344   0.0000797020   0.0000280779
       -0.0000039619   0.0000111808  -0.0000099213  -0.0010881337   0.0000448157
        0.0009122195   0.0013918071   0.0020350284   0.0020866250   0.0004503960
       -0.0007138554  -0.0009675190  -0.0023894758  -0.0030479286   0.0024547146
        0.0000413004   0.0000271113  -0.0003008618  -0.0000441058  -0.0000011235
        0.0000470760   0.0000318651  -0.0000163843   0.0000177410  -0.0000361355
        0.0000446600   0.0000429004  -0.0000103177   0.0000288143  -0.0000010868
       -0.0000398602   0.0000035763   0.0000029692  -0.0000307116   0.0000063914
        0.0000037972  -0.0000333697  -0.0000295346  -0.0000025817   0.0000055654
       -0.0000347990  -0.0000058168  -0.0000091743  -0.0000506694   0.0000294596
        0.0000251647   0.0000356766  -0.0000085654  -0.0000649210   0.0000104841
       -0.0000033429
       -0.0026548758   0.0001075897  -0.0002549538   0.0190548208  -0.0170293878
       -0.0131696977   0.0447290013  -0.0237207112  -0.0633076234  -0.2969581697
        0.1499576498   0.1670846122   0.2480982610  -0.1142641271  -0.0980442175
       -0.0046344862   0.0069545576   0.0073123175  -0.0067900901  -0.0051226117
        0.0030324144   0.0007048189  -0.0011063748  -0.0008827080  -0.0006707480
        0.0002416393  -0.0005995768   0.0008509542  -0.0002566896   0.0000107039
       -0.0005094288   0.0000880005   0.0001110137   0.0000840691  -0.0003035896
       -0.0001840700  -0.0002143858  -0.0000574293   0.0000090661   0.0001388437
        0.0000412813   0.0000058628  -0.0001218976  -0.0000744277  -0.0000060294
        0.0000671342   0.0000757735  -0.0000023554  -0.0000312201  -0.0000482793
       -0.0000048165   0.0000385872  -0.0000062443  -0.0000032142   0.0000227266
        0.0000392229   0.0000003559   0.0000319107   0.0000536150  -0.0000007658
       -0.0000744922  -0.0000278008  -0.0000067493   0.0001153476   0.0000625249
       -0.0000108492  -0.0000669076  -0.0001175243  -0.0000232833   0.0001366831
        0.0002435716   0.0001263090  -0.0000231147   0.0000321326  -0.0000023884
       -0.0000092555   0.0000097388  -0.0000058280  -0.0004965781   0.0009157241
       -0.0003349063   0.0001933653   0.0010082471   0.0018925928   0.0003485584
       -0.0006733575  -0.0004757990  -0.0011558859   0.0030676690  -0.0023018618
       -0.0000546768  -0.0001867100  -0.0000234082  -0.0000267895   0.0000394999
        0.0000051403   0.0000258645   0.0000043078   0.0000176252  -0.0000221258
        0.0000318653   0.0000275147  -0.0000069715   0.0000200584  -0.0000008958
       -0.0000237252   0.0000039013   0.0000004415  -0.0000189958   0.0000048384
        0.0000038533  -0.0000203236  -0.0000164009  -0.0000003849   0.0000037695
       -0.0000184106  -0.0000005654  -0.0000031208  -0.0000264234   0.0000177079
        0.0000215818   0.0000238080   0.0000024962  -0.0000780331   0.0000292832
       -0.0000130795
        0.0020226617   0.0025197409   0.0035094901  -0.0061377809  -0.0042446099
       -0.0068688940  -0.0472318595   0.0263227894   0.0139642497  -0.9878547039
        0.4340154338   0.2480982610   1.0298587689  -0.4617772301  -0.2650651131
        0.0138492446   0.0024246917   0.0064453011  -0.0062624091   0.0012525112
        0.0003407311   0.0012791468  -0.0015283287  -0.0014054281  -0.0015077216
       -0.0003259409  -0.0005512636   0.0015605587  -0.0003822417   0.0000300813
       -0.0008796192   0.0003542662   0.0000025415   0.0000999678  -0.0005027506
       -0.0003356747  -0.0003863302  -0.0001078173   0.0000364155   0.0002545285
        0.0000695055   0.0000101466  -0.0002127048  -0.0001528863  -0.0000129520
        0.0001231635   0.0001487096  -0.0000027895  -0.0000588900  -0.0000929476
       -0.0000085022   0.0000683841  -0.0000184133  -0.0000048204   0.0000359795
        0.0000841465   0.0000022537   0.0000640374   0.0000999097  -0.0000001702
       -0.0001566040  -0.0000570017  -0.0000183657   0.0002379359   0.0001195938
       -0.0000135641  -0.0001280900  -0.0002508533  -0.0000314407   0.0002888483
        0.0004547961   0.0002344278  -0.0000456058   0.0000790856   0.0000175591
       -0.0000190254   0.0000254129  -0.0000114089  -0.0009116598   0.0008504352
        0.0004477211   0.0017310594   0.0014465788   0.0022759680   0.0002299759
       -0.0007644243  -0.0008244047   0.0002629065   0.0000484665  -0.0001304701
        0.0000788465  -0.0001793750  -0.0002400556  -0.0000496145   0.0000234673
        0.0000283179   0.0000341798  -0.0000328580   0.0000270694  -0.0000504269
        0.0000629472   0.0000486738  -0.0000147066   0.0000386415  -0.0000012604
       -0.0000525866   0.0000075866   0.0000022948  -0.0000406437   0.0000105788
        0.0000061708  -0.0000441721  -0.0000330465  -0.0000017309   0.0000065483
       -0.0000335686  -0.0000053727  -0.0000097015  -0.0000489241   0.0000309583
        0.0000190518   0.0000587022  -0.0000098254  -0.0000509376   0.0000152208
       -0.0000151256
       -0.0001472926  -0.0008589477  -0.0011684247   0.0002426429   0.0028992051
        0.0030184743   0.0281962526   0.0036861829  -0.0049473716   0.4351866354
       -0.2303567028  -0.1142641271  -0.4617772301   0.2268212960   0.1206858810
       -0.0044278970  -0.0013159097  -0.0044834367   0.0029603918  -0.0017671809
        0.0014591955  -0.0006773434   0.0007663698   0.0007269576   0.0007248996
        0.0002946454   0.0001556304  -0.0007615489   0.0001766767  -0.0000006985
        0.0004306572  -0.0002093948   0.0000384953  -0.0000492789   0.0002189493
        0.0001613188   0.0001792820   0.0000477019  -0.0000228417  -0.0001194455
       -0.0000286351  -0.0000047616   0.0001044029   0.0000713443   0.0000066294
       -0.0000581072  -0.0000667849   0.0000008177   0.0000281410   0.0000419673
        0.0000041052  -0.0000359101   0.0000124495   0.0000021078  -0.0000211137
       -0.0000395994  -0.0000012606  -0.0000349277  -0.0000579214   0.0000008240
        0.0000772108   0.0000319100   0.0000104929  -0.0001116256  -0.0000683158
        0.0000071846   0.0000882029   0.0001231119   0.0000137294  -0.0001496725
       -0.0002158911  -0.0001106765   0.0000268487  -0.0000346132  -0.0000114350
        0.0000034628  -0.0000069177   0.0000049995   0.0005267336  -0.0001853047
       -0.0002928646  -0.0006460552  -0.0011382643  -0.0012289883  -0.0002391447
        0.0005303165   0.0005458270   0.0004220325   0.0005831225  -0.0004161320
       -0.0000742888   0.0000391280   0.0001586278   0.0000213119  -0.0000042150
       -0.0000110744  -0.0000133148   0.0000200865  -0.0000117324   0.0000204080
       -0.0000237161  -0.0000235280   0.0000049929  -0.0000143282   0.0000001457
        0.0000235145  -0.0000017582  -0.0000016442   0.0000172961  -0.0000029241
       -0.0000026859   0.0000214122   0.0000183746   0.0000012464  -0.0000026796
        0.0000249553   0.0000032203   0.0000079645   0.0000342823  -0.0000157839
       -0.0000146447  -0.0000303618   0.0000048249   0.0000468237  -0.0000143887
        0.0000087322
        0.0003822811  -0.0003786258  -0.0002334031  -0.0015823041   0.0016617185
        0.0019413779   0.0162105982  -0.0054495841   0.0125854208   0.2494510851
       -0.1145736432  -0.0980442175  -0.2650651131   0.1206858810   0.0857001589
       -0.0017228906  -0.0025266530  -0.0021294999   0.0023776365   0.0009788837
       -0.0004254433  -0.0004129102   0.0004845201   0.0004250109   0.0003887063
        0.0000159648   0.0002462000  -0.0004491438   0.0001239991  -0.0000077012
        0.0002681226  -0.0000769096  -0.0000179006  -0.0000333451   0.0001528382
        0.0001016658   0.0001091198   0.0000307578  -0.0000056281  -0.0000742768
       -0.0000205674  -0.0000037543   0.0000630475   0.0000422925   0.0000057802
       -0.0000361638  -0.0000390022   0.0000025175   0.0000176678   0.0000246759
        0.0000017193  -0.0000224444   0.0000047108   0.0000027811  -0.0000127770
       -0.0000238348  -0.0000000611  -0.0000175009  -0.0000305485   0.0000018565
        0.0000404664   0.0000163283   0.0000037576  -0.0000630654  -0.0000332213
        0.0000079209   0.0000357717   0.0000695723   0.0000153550  -0.0000786087
       -0.0001310161  -0.0000692311   0.0000153873  -0.0000203170  -0.0000014288