42
 energy: -72.812254128731 gnorm: 0.000033762998 xtb: 6.7.1 (edcfbbe)
N            6.83510905822228        1.22953589077623        2.24712338751208
C            6.70021311262014        0.51461115485757        1.35971845901022
C            6.62834631963205       -0.38210846303821        0.27133676970860
C            7.88369350305605       -0.95268705330281       -0.05541854255065
N            8.89815975343475       -1.41463186102141       -0.32039836667214
C            5.53084934336495       -0.72641881315175       -0.44976544314823
C            4.17531805810267       -0.27627053937878       -0.29399199102627
C            3.73887576947785        0.63137735932439        0.68203158245216
C            2.41961968046930        1.01448945126351        0.76280458092736
C            1.46031823361747        0.50404971866737       -0.11568149433738
C            0.06475702395081        0.94845280798754       -0.03413694599504
C           -0.18804056337721        2.31925886950675       -0.01322943076950
C           -1.47442267213866        2.81217247608008       -0.01088262000811
C           -2.56904227691082        1.94526099586563       -0.01881376363703
C           -3.91049830066102        2.42485805973218       -0.03919401769629
C           -4.96079215483678        1.57184198490448       -0.03918587547034
C           -4.76340449672077        0.16031140360605       -0.01077686693252
C           -5.83238947945319       -0.73738123709364       -0.00587993549869
C           -5.61035878750548       -2.10191152809668        0.02888241806678
C           -4.32229744814919       -2.60324243176619        0.06295323833056
C           -3.22347457014626       -1.74239872661557        0.05649329854934
C           -1.88287737783173       -2.21984744068734        0.11493423841289
C           -0.82916839956174       -1.37051979235337        0.09328166035184
C           -1.01158757767386        0.04164795327145        0.00120679118307
C           -2.33712401217576        0.54734187901188       -0.00088921637806
C           -3.43890139064154       -0.34339147976866        0.01401074821885
C            1.87185523058867       -0.39485703503001       -1.09994315378620
C            3.19496620002192       -0.76345139599321       -1.17527111792467
F            3.55858036126061       -1.62696711251797       -2.14448421680890
H            5.69326806110605       -1.43558777581006       -1.25365662658440
H            4.45015964408250        1.03541470379223        1.38357461449056
H            2.11310650492169        1.70713420289140        1.53178597644700
H            0.64793655661297        3.00354078980448       -0.03559355150460
H           -1.64454034857722        3.87891551972916       -0.01314112754996
H           -4.06637966198963        3.49412067430785       -0.05542380642434
H           -5.97523098005361        1.94396106494094       -0.05665904674490
H           -6.84192109908959       -0.35293810999451       -0.02960666181232
H           -6.45015649317685       -2.78133050031971        0.03232734883409
H           -4.15522132708909       -3.67021208253762        0.09592478532230
H           -1.72469568750326       -3.28653446851236        0.18678848553080
H            0.17584739738799       -1.75811882407551        0.16783829609580
H            1.17154429334142       -0.78748828925268       -1.82099286018156
