58
 energy: -98.655041051114 gnorm: 0.000068287350 xtb: 6.7.1 (edcfbbe)
C            7.05765379025804       -2.21242124116984       -0.71469318764081
C            5.86228461763226       -2.80065692562649       -1.08989621006607
C            4.66609659433411       -2.12911927339342       -0.90422163729045
C            4.64860428557318       -0.86813443274267       -0.31860797226412
C            5.86528970502639       -0.25649571755612       -0.00331719636624
C            7.06182013825306       -0.93093214419212       -0.19020255577068
O            5.90907873315003        1.02504067118031        0.48115390992708
C            4.80573865618190        1.80165921875275        0.19868936273364
C            4.97344457959688        3.17571481028520        0.24012627952660
C            3.90481360345474        4.01178617255979       -0.03678813953592
C            2.68046141742431        3.46710617668135       -0.37640068683182
C            2.50910679422555        2.09276736690540       -0.42865370339654
C            3.56226133801448        1.24228365560198       -0.12094507636411
N            3.45005186144361       -0.16661020968787       -0.08867872177407
C            2.29738529239849       -0.83641058393908        0.27219026899587
C            2.40095197217406       -2.05715837304753        0.99580898993577
C            1.25777570283037       -2.70143504065706        1.36793368082778
C            0.00647081918112       -2.15061063932052        1.02937992823374
C           -1.24183855729238       -2.71033503060474        1.36361473152008
C           -2.38824520314932       -2.07101447664343        0.99222702923474
C           -2.29012673861491       -0.84509982137563        0.27737775166594
N           -3.44777299353990       -0.17698509532160       -0.07466178693803
C           -4.63377427438582       -0.88725727343931       -0.33768974200659
C           -4.62544025666257       -2.13842014793715       -0.94429428851243
C           -5.80984376793658       -2.81990760697048       -1.16606506467169
C           -7.01925516681302       -2.25111352406168       -0.80666113518186
C           -7.04830103227580       -0.97903371955935       -0.26029607691154
C           -5.86365053523045       -0.29516211996762       -0.03628778558409
O           -5.93318536807795        0.97612455310046        0.47173589170818
C           -4.83025819780266        1.76930824430742        0.23841985086998
C           -5.01158645577176        3.13995036963131        0.31775939745551
C           -3.94441555646202        3.99367267003264        0.09400581957587
C           -2.70680019759555        3.47031416286286       -0.23036908897764
C           -2.52157561735590        2.09970349412961       -0.32043858204446
C           -3.57416117057642        1.23067014642233       -0.06761068954073
N           -1.13358210500143       -0.29540972278415       -0.02312285670221
C            0.00370307761068       -0.90990649669509        0.33243750336425
N            1.13765911951970       -0.29218947674844       -0.02707639473540
H            7.98977155978546       -2.73888763485560       -0.84637262312827
H            5.85447084880671       -3.78542729861449       -1.53072636505603
H            3.73351619100936       -2.58277076683263       -1.20453895841108
H            7.98000179937882       -0.43650004888152        0.08468960349954
H            5.94483310219616        3.56603222492040        0.50054305640098
H            4.03823931859835        5.08151857659690        0.00676230443018
H            1.84552001961774        4.11038072287978       -0.60647200709678
H            1.55527020747535        1.66160425190860       -0.67773021818631
H            3.36980391267188       -2.43923958958552        1.27583801206532
H            1.29814868568324       -3.62147575116503        1.93518926885236
H           -1.27763646125848       -3.63300229479967        1.92689504589013
H           -3.35579644306748       -2.46048601676463        1.26677311881191
H           -3.68198790433119       -2.57661873160789       -1.23331614908081
H           -5.78154277845273       -3.79689228179919       -1.62311238403134
H           -7.94260624641688       -2.78494601808558       -0.96731591652663
H           -7.97744083735727       -0.49938263756313        0.00383184414427
H           -5.99276254294290        3.51353216805382        0.56583605500324
H           -4.08908211280690        5.06028919704635        0.16743984403749
H           -1.87185567455146        4.12732976369519       -0.41760422801391
H           -1.55775951685273        1.68447020043426       -0.55845761945647
