$hessian                                                                        
        0.6464729911  -0.0174990720   0.0489582843  -0.1977725407  -0.1075304691
        0.0173344278   0.0051618121  -0.0193804708   0.0050247343   0.0023539449
        0.0052719620  -0.0011627623   0.0006067261  -0.0016198774   0.0002735064
       -0.0003947954   0.0006866931  -0.0001296968   0.0008650149  -0.0019258770
        0.0003454678  -0.0012046458   0.0004875437   0.0001905565   0.0001435729
       -0.0007330651  -0.0003184772  -0.0000320807   0.0001295621   0.0001140758
        0.0000599541  -0.0001107187  -0.0000762036  -0.0000718803  -0.0000375483
       -0.0000404422   0.0000793492  -0.0000085589   0.0000036925  -0.0002060686
       -0.0000395046  -0.0000740283  -0.0001542035   0.0001778482   0.0000644519
        0.0000587200  -0.0000816657  -0.0000185040   0.0000170441   0.0000195964
        0.0000057167   0.0001048133  -0.0000050544   0.0000313825  -0.0001349645
       -0.0002493764   0.0000235367   0.0006728543   0.0004126701   0.0001981088
       -0.0039319020   0.0031065907  -0.0009270230  -0.0536312620  -0.0188538091
       -0.0001634531   0.0010714949  -0.0008152062   0.0007099910   0.0061692464
       -0.0028505270   0.0010516246  -0.0010674399   0.0026310197  -0.0012764351
        0.0016324853   0.0000496415  -0.0001394148  -0.0012873448   0.0005131018
       -0.0003177637   0.0017985601  -0.0010494584   0.0006590084  -0.0003049613
       -0.0001818565   0.0001257544   0.0000321844   0.0003616091  -0.0000075774
        0.0000120243  -0.0001046361  -0.0000418117   0.0000145787   0.0000519354
        0.0000187668  -0.0000293798  -0.0000235382   0.0000241216   0.0000171983
       -0.0000340465  -0.0000121314  -0.0000754607   0.0000128386   0.0000478819
       -0.0000518239  -0.0000999325   0.0000051834   0.0000074472   0.0000146437
       -0.0000063683  -0.0000153017  -0.0000428353   0.0000029603   0.0000246277
       -0.0000133807  -0.0000319712  -0.0000378708   0.0000575056   0.0000569496
        0.0002863410  -0.0001504044  -0.0001104582  -0.0031353350  -0.0010220073
        0.0006171854  -0.0425327850   0.0471712151  -0.0199297196  -0.0638160885
        0.0628490501  -0.0208486865  -0.0031098198  -0.0268102833   0.0081292977
       -0.0036231566   0.0017055865  -0.0016144339  -0.0020111096  -0.0015565459
        0.0005654390   0.0011936451   0.0010863272  -0.0002590907  -0.0002404644
       -0.0020413251   0.0013141076  -0.0001296928   0.0000693977  -0.0002618743
        0.0000803056  -0.0001944159   0.0000281284   0.0001231784   0.0001053286
       -0.0000950642   0.0000860503  -0.0000095834   0.0000107272  -0.0000042642
       -0.0000006921   0.0000181067   0.0000256603   0.0000048391   0.0000042093
       -0.0000638805  -0.0000224758  -0.0000335483  -0.0000290080   0.0000579637
        0.0000098711  -0.0000004944  -0.0000142055   0.0000004845  -0.0000436067
        0.0000260511   0.0000010317   0.0000755653   0.0000330651   0.0000391484
       -0.0000478584  -0.0000335193  -0.0000303311   0.0001220558   0.0001076966
        0.0001568781   0.0034878291  -0.0005941287   0.0005514067  -0.2865537112
        0.0763640794  -0.0393571660   0.0000008374   0.0000775864  -0.0000832160
        0.0001846265   0.0003107403  -0.0001314178   0.0000069303   0.0001494060
       -0.0000675159   0.0000237524  -0.0000415265  -0.0000312106   0.0000229036
        0.0000311861   0.0000215341  -0.0000117474   0.0000413825   0.0000151002
       -0.0000530357   0.0000223233  -0.0000006262  -0.0000558292   0.0000355630
        0.0000044221  -0.0000594592  -0.0000049453  -0.0000180256  -0.0000626228
       -0.0000204836  -0.0000534552   0.0000528090   0.0001812311  -0.0001182184
        0.0000627126   0.0023546093   0.0001283648  -0.0050852672   0.0025442687
        0.0002094779   0.0000563270  -0.0003901584   0.0002596469  -0.0000269641
       -0.0000188039  -0.0000248562   0.0000133997   0.0000077117  -0.0000161268
        0.0000114511   0.0000754785   0.0000487033  -0.0000072991  -0.0000251034
       -0.0000188187  -0.0000132270  -0.0000236290  -0.0000034677  -0.0000128405
       -0.0000085592   0.0000002714  -0.0000181722  -0.0000162360   0.0000006941
       -0.0000131882  -0.0000028386   0.0000068499  -0.0000068903   0.0000051814
        0.0000059119   0.0000306014  -0.0000318146  -0.0000209890  -0.0000920245
        0.0002415675  -0.0000039072  -0.0001441339  -0.0001497996   0.0001496673
       -0.0002275581  -0.0004234181   0.0001063474  -0.0000671044  -0.0001761042
       -0.0000335841  -0.0001818170  -0.0000742175   0.0001428622  -0.0000292670
        0.0000270643   0.0000089675  -0.0000217845   0.0000091854  -0.0000001987
       -0.0000284750   0.0000063231  -0.0000100683  -0.0000201779   0.0000015001
       -0.0000097223  -0.0000121440  -0.0000176540  -0.0000066345  -0.0000037116
       -0.0000266017  -0.0000041170   0.0000088652  -0.0000163328   0.0000174020
       -0.0013325498  -0.0024793729   0.0000981841
       -0.0174990720   0.5828971234  -0.1409115712  -0.1018807884  -0.1383700748
        0.0186080059  -0.0189165234  -0.0492127117   0.0112830540   0.0064327799
        0.0016690639  -0.0001472631  -0.0005601528  -0.0025719573   0.0013335448
       -0.0001143233   0.0008521157  -0.0001160762  -0.0007563035  -0.0017465975
        0.0006908356  -0.0002458614   0.0001591323  -0.0000071795  -0.0000156428
       -0.0000343967   0.0000146707  -0.0000125306  -0.0000159666  -0.0000083479
       -0.0000236222   0.0000172938  -0.0000001902   0.0000168196  -0.0000138812
       -0.0000074372   0.0000180000  -0.0000065834  -0.0000008028  -0.0000010969
        0.0000030153   0.0000026639  -0.0000099307   0.0000089118   0.0000009558
        0.0000076019  -0.0000147939  -0.0000079697   0.0000225028  -0.0000030358
        0.0000123766  -0.0000544120   0.0000161091  -0.0000063477  -0.0000036903
        0.0000051612  -0.0000610863  -0.0000411262  -0.0000141081  -0.0000245668
       -0.0052222783   0.0029087198  -0.0010715127  -0.0003506413   0.0153114232
       -0.0065738286  -0.0006245715  -0.0108320399   0.0023983662   0.0004557838
       -0.0016819004   0.0005022059   0.0000761536   0.0015775418  -0.0007912192
        0.0004932904   0.0003340164  -0.0003108647  -0.0005322925   0.0014057770
       -0.0007642085   0.0006413658  -0.0023935142   0.0015713610   0.0006149732
        0.0004820438  -0.0003135409   0.0000116070  -0.0004376897   0.0000058493
       -0.0000357558   0.0000850606   0.0001292032   0.0000041266  -0.0000760012
       -0.0000467663   0.0000381654  -0.0000223686  -0.0000304347  -0.0000501397
       -0.0000005208   0.0000215140   0.0001248492  -0.0000168951  -0.0000901930
        0.0000316207   0.0001264419   0.0000032403   0.0000033099  -0.0000620527
       -0.0000061104   0.0000140843   0.0000457469   0.0000037445  -0.0000698745
        0.0000236163   0.0000373986   0.0000846145  -0.0000619072  -0.0000736600
       -0.0003881039   0.0001720450   0.0001803434  -0.0021771241  -0.0003785580
        0.0002829406   0.0222957595  -0.0184009986   0.0098171948   0.0624168520
       -0.2696501411   0.0736666295  -0.0283393961  -0.0537800599   0.0146587546
       -0.0024365229   0.0129894271  -0.0049544676  -0.0068270411  -0.0035553122
        0.0006670119   0.0035245152   0.0027057426  -0.0006214724  -0.0029196915
       -0.0061842082   0.0027458459   0.0012612787   0.0000531074   0.0003506778
       -0.0002317062   0.0006456828  -0.0000066419   0.0000620501  -0.0002175993
        0.0000024634  -0.0000846619   0.0000640480  -0.0000018923   0.0000290534
        0.0000278607   0.0000291648  -0.0000673793  -0.0000442324  -0.0000245632
        0.0001822100   0.0001000841   0.0001129239   0.0002160418  -0.0001541253
       -0.0000017891  -0.0000769294   0.0000181652  -0.0000260539   0.0000315612
       -0.0000483927  -0.0000008432  -0.0000708651  -0.0000420078  -0.0000852308
        0.0000574125   0.0001095837   0.0001387357  -0.0004392317  -0.0005586586
       -0.0002707728   0.0141444971   0.0000459877   0.0014825893   0.0757256800
       -0.0614224328   0.0152684198  -0.0002441404  -0.0000232181  -0.0001421506
        0.0000408060  -0.0003919905  -0.0000116757  -0.0000869678  -0.0000426320
       -0.0000737595   0.0000147937   0.0000064021   0.0000106358   0.0000084353
       -0.0000034997  -0.0000025007   0.0000081141   0.0000043892  -0.0000048054
       -0.0000011697  -0.0000031629  -0.0000040043   0.0000022389   0.0000124728
        0.0000006173  -0.0000015344   0.0000097237   0.0000012205   0.0000226445
        0.0000172576   0.0000051512   0.0000410451  -0.0000412260  -0.0000094615
       -0.0004988798  -0.0018737405   0.0001469762   0.0019989822  -0.0001741916
        0.0015113703   0.0001655294   0.0000303307  -0.0000503949   0.0000535268
       -0.0000825476   0.0000162778   0.0000696106  -0.0000025743   0.0000087836
       -0.0000059885  -0.0000191777  -0.0000384118  -0.0000164508  -0.0000043997
        0.0000104245   0.0000143269   0.0000240831  -0.0000022730   0.0000263567
        0.0000120297  -0.0000161255   0.0000165676   0.0000142923  -0.0000106766
        0.0000210093  -0.0000048201  -0.0000112607   0.0000071822  -0.0000237622
       -0.0000120426  -0.0000051905   0.0000259090   0.0000240818  -0.0001551414
        0.0000046302   0.0000710687   0.0002819486   0.0002207027  -0.0002187182
       -0.0001457348  -0.0001606129  -0.0001553124   0.0000717332  -0.0000150021
       -0.0000716606  -0.0000039935   0.0000741527  -0.0000386368   0.0000043341
       -0.0000237455  -0.0000170226   0.0000300332  -0.0000349032   0.0000009227
        0.0000461152   0.0000071840   0.0000141466   0.0000441157  -0.0000067789
        0.0000059849   0.0000201514   0.0000157312   0.0000225886  -0.0000083906
        0.0000306133   0.0000148965  -0.0000479780  -0.0000267151  -0.0000320029
        0.0002526827  -0.0003855285   0.0003999688
        0.0489582843  -0.1409115712   0.1232968079   0.0144325933   0.0151949679
       -0.0359701403   0.0037953413   0.0145691486  -0.0028735740  -0.0014202871
        0.0003123113   0.0032031756  -0.0000114563   0.0009744939   0.0000465697
        0.0000795909  -0.0004061871   0.0001171395  -0.0000807234   0.0007360784
       -0.0004165619   0.0002185635  -0.0000413772   0.0001357292   0.0000097151
        0.0000826835  -0.0000089897  -0.0000017245  -0.0000073650   0.0000052778
       -0.0000047913   0.0000053357   0.0000117953   0.0000091947   0.0000068514
        0.0000085978   0.0000006307  -0.0000086927   0.0000009240  -0.0000118871
        0.0000170623   0.0000067337   0.0000350594  -0.0000054461   0.0000140506
       -0.0000242219   0.0000015616   0.0000010415  -0.0000029984   0.0000007022
        0.0000026688   0.0000056109  -0.0000072647   0.0000000309   0.0001408816
       -0.0000619628  -0.0000287976  -0.0001933503  -0.0000625139  -0.0000936835
        0.0024445141  -0.0014410519   0.0000000486  -0.0021524489  -0.0043923754
        0.0038157302   0.0006201014   0.0014151118  -0.0033470416   0.0007964013
        0.0001002090  -0.0002514654  -0.0001770942  -0.0001831355   0.0000524797
        0.0000907531  -0.0000956416   0.0000472491  -0.0000149899  -0.0003059195
        0.0001672650   0.0001657434   0.0005759804  -0.0003056021  -0.0002766943
       -0.0001831420   0.0001343994  -0.0000035387   0.0001884736  -0.0000077729
        0.0000095939  -0.0000448715  -0.0000487947   0.0000035792   0.0000375196
        0.0000099365  -0.0000227210   0.0000089954   0.0000169539   0.0000199184
       -0.0000049592  -0.0000098946  -0.0000523733   0.0000107542   0.0000371095
       -0.0000234518  -0.0000603816   0.0000004931   0.0000013012   0.0000234647
       -0.0000011163  -0.0000069588  -0.0000178802   0.0000000445   0.0000271922
       -0.0000079525  -0.0000199553  -0.0000349060   0.0000289499   0.0000365783
        0.0001833009  -0.0000823023  -0.0000846946   0.0001498566  -0.0000203429
       -0.0000211493  -0.0119500884   0.0141663586   0.0031043319  -0.0207570615
        0.0686315267  -0.0588708113   0.0102430709   0.0165441917  -0.0032443672
        0.0000734152  -0.0031583721   0.0039719032   0.0022756696   0.0012602848
        0.0000840647  -0.0012494050  -0.0010716168   0.0003174396   0.0015877797
        0.0019664886  -0.0010732711  -0.0006947848   0.0001182922  -0.0001159654
        0.0002902527  -0.0005081888  -0.0000298703  -0.0001792815   0.0001252479
       -0.0000973289   0.0000614901  -0.0000443943   0.0000074328  -0.0000149394
       -0.0000102483  -0.0000034613   0.0000517571   0.0000017024   0.0000178382
       -0.0001235410  -0.0000245754  -0.0000496425  -0.0000775499   0.0000851737
        0.0000174273   0.0000216547  -0.0000186012   0.0000112242  -0.0000300947
        0.0000355286   0.0000055820   0.0000523906   0.0000311205   0.0000579532
       -0.0000338046  -0.0000709666  -0.0000608721   0.0002490464   0.0003237430
        0.0001310320  -0.0057464161  -0.0002113764  -0.0006932480  -0.0388358530
        0.0162773737  -0.0325865761  -0.0000075157  -0.0000552417  -0.0001215855
       -0.0000596730   0.0000058312  -0.0002967756   0.0000008759  -0.0000246097
        0.0000424632   0.0000025293   0.0000067416  -0.0000061873  -0.0000016181
        0.0000022107  -0.0000018007  -0.0000010328  -0.0000001398  -0.0000011267
        0.0000005394  -0.0000016190  -0.0000014220  -0.0000050457   0.0000080028
        0.0000039797  -0.0000102460   0.0000048985   0.0000031595   0.0000256946
        0.0000119815   0.0000246460  -0.0000515277  -0.0000396626   0.0000295360
       -0.0001736175   0.0001452437   0.0001201593  -0.0022175757   0.0004395684
        0.0015530624  -0.0000273719  -0.0000334865   0.0000702931  -0.0000280806
        0.0000337375  -0.0000108733  -0.0000273061  -0.0000035960  -0.0000222627
        0.0000076505   0.0000111091   0.0000189616   0.0000083738   0.0000022838
       -0.0000064487  -0.0000052152  -0.0000103037  -0.0000010611  -0.0000123858
       -0.0000049706   0.0000047306  -0.0000077325  -0.0000063659   0.0000015233
       -0.0000092431   0.0000022455   0.0000044164  -0.0000038572   0.0000102778
        0.0000041518   0.0000076210  -0.0000117170  -0.0000133201   0.0000146953
       -0.0000220578  -0.0000936671  -0.0000613823  -0.0002310144  -0.0000266730
        0.0000679815  -0.0001126325  -0.0001427196  -0.0000381682  -0.0000194210
        0.0000935027   0.0000166638  -0.0001018070   0.0000342651  -0.0000263895
        0.0000558357   0.0000234197  -0.0000010206   0.0000182367   0.0000058099
       -0.0000140781   0.0000064271  -0.0000022541  -0.0000234814   0.0000026400
       -0.0000048633  -0.0000116810  -0.0000086887  -0.0000108922   0.0000032681
       -0.0000161868  -0.0000070751   0.0000168884   0.0000243152   0.0000151132
       -0.0002423475  -0.0004750772   0.0001374031
       -0.1977725407  -0.1018807884   0.0144325933   0.5793951204   0.0194608729
        0.0132809505  -0.0697921864   0.0336718190  -0.0083791517   0.0014742042
       -0.0248171536   0.0052690216  -0.0047617712  -0.0001324837   0.0018901441
        0.0007388409  -0.0008756459   0.0001128825  -0.0045147448   0.0027806226
        0.0013681872  -0.0000061768   0.0011981423  -0.0002869750  -0.0002861419
        0.0005112897   0.0000298055  -0.0000011175  -0.0000751080  -0.0001009063
       -0.0000008457   0.0000319316   0.0000396099   0.0000175962   0.0000130588
        0.0000131742  -0.0000584471  -0.0000145178   0.0000056897   0.0000586701
        0.0000533454   0.0000932232   0.0000490331  -0.0000823350  -0.0000297807
       -0.0000318939   0.0000334973   0.0000155003   0.0000048752  -0.0000411837
       -0.0000234820  -0.0000459936  -0.0000467397  -0.0000184205   0.0000414881
        0.0000643480   0.0001257209  -0.0002579132  -0.0001274619  -0.0000767787
       -0.0037313401   0.0262458088  -0.0058046422  -0.2489067240   0.0530295197
       -0.0257116016  -0.0006678416   0.0290788810  -0.0082171042  -0.0103555852
        0.0031049077  -0.0005502591   0.0021440649  -0.0045294626   0.0018696204
       -0.0032073400  -0.0004241322   0.0003435729   0.0018871801  -0.0006615065
        0.0004297784  -0.0035260719   0.0021128842  -0.0011317204   0.0009947551
        0.0003594557  -0.0003460588  -0.0000100606  -0.0005049133  -0.0000193403
       -0.0000116407   0.0001416191   0.0001830785  -0.0000157501  -0.0001700352
       -0.0000219880   0.0000780531  -0.0000479371  -0.0000666103  -0.0000797676
        0.0000495545   0.0000560396   0.0001496429  -0.0000607658  -0.0001040188
        0.0001234903   0.0002309849  -0.0000151192  -0.0000517087  -0.0000637366
        0.0000390393   0.0000140080   0.0000552347   0.0000040455  -0.0000693587
        0.0000241184   0.0000878674   0.0001305098  -0.0000596943  -0.0001060375
       -0.0006605557   0.0003048244   0.0002973806   0.0059132414   0.0020199419
       -0.0008607325   0.0033526736  -0.0075427367   0.0029068975  -0.0005165988
       -0.0248479760   0.0072040192   0.0066422893   0.0098951345  -0.0025086492
        0.0011768376  -0.0037042875   0.0014500650   0.0012625357   0.0003222447
        0.0002821845  -0.0003330368  -0.0010514429   0.0004535898  -0.0003901419
        0.0021064174  -0.0013525671   0.0007953842  -0.0001575456   0.0003450799
       -0.0002054685   0.0004944331   0.0000021596   0.0000258057  -0.0001313454
       -0.0000912616  -0.0000634660   0.0000574072   0.0000212910   0.0000460074
        0.0000416939   0.0000280203  -0.0000474169  -0.0000322398  -0.0000225439
        0.0001474771   0.0000846666   0.0001100455   0.0001317803  -0.0001455683
       -0.0000184184  -0.0000273812   0.0000578875   0.0000015417   0.0000543162
       -0.0000433466  -0.0000024570  -0.0000735103  -0.0000585837  -0.0000486889
        0.0000705824   0.0001203921   0.0001028409  -0.0003609588  -0.0003912005
       -0.0002285709  -0.0038635898  -0.0001474227  -0.0005532734  -0.0238911638
       -0.0143906507   0.0029039716  -0.0009942550  -0.0000955113  -0.0004910479
       -0.0001189984  -0.0012640093   0.0004410552  -0.0001282363  -0.0000070522
       -0.0001413573  -0.0000113126   0.0000357417   0.0000400481  -0.0000119829
       -0.0000084136  -0.0000099903   0.0000113004  -0.0000151211  -0.0000083590
        0.0000216028   0.0000046832   0.0000063064   0.0000304045  -0.0000147272
       -0.0000057508   0.0000320225   0.0000112496   0.0000026462   0.0000090798
        0.0000252003   0.0000125076  -0.0000225648   0.0000188168  -0.0000445212
        0.0001969957  -0.0001725999  -0.0006429232  -0.0267582135   0.0008868123
        0.0018817529  -0.0001453727   0.0000238536   0.0000309390   0.0000956052
       -0.0001431268   0.0001051810   0.0001274137  -0.0000748854   0.0000617180
       -0.0000179337  -0.0000403104  -0.0001151315  -0.0000219276   0.0000133360
        0.0000285895   0.0000348039   0.0000736759  -0.0000076715   0.0000659184
        0.0000263058  -0.0000293091   0.0000420716   0.0000349721  -0.0000142671
        0.0000389806  -0.0000132744  -0.0000313591   0.0000146066  -0.0000444014
       -0.0000206932  -0.0000647266   0.0000052227   0.0000267931  -0.0008247191
       -0.0003161845   0.0000215222  -0.0000523655   0.0002429829  -0.0001697089
        0.0000264008   0.0001899752  -0.0000086125   0.0000505416   0.0000313610
       -0.0000293078   0.0000049860   0.0000266129  -0.0000173898  -0.0000157284
       -0.0000159814  -0.0000100380   0.0000213123  -0.0000223595  -0.0000034447
        0.0000363113  -0.0000012910   0.0000161172   0.0000270186  -0.0000141196
        0.0000048553   0.0000206337   0.0000170018   0.0000105102  -0.0000036960
        0.0000284132   0.0000100044  -0.0000083164  -0.0000342032  -0.0000445158
       -0.0000318739   0.0001043631   0.0000433783
       -0.1075304691  -0.1383700748   0.0151949679   0.0194608729   0.5930035691
       -0.1151525005   0.0116375408  -0.2198998387   0.0429695063  -0.0224919337
       -0.0477258226   0.0130802490  -0.0080994073   0.0096889578  -0.0000097086
        0.0018012080  -0.0063477546   0.0012149974   0.0030322012   0.0112005734
       -0.0018726169   0.0012519429  -0.0008956166   0.0000660372  -0.0001368565
        0.0008030373   0.0003084528   0.0000116417  -0.0001107673  -0.0001547351
       -0.0000170416   0.0000575632   0.0000705924   0.0000512587   0.0000450330
        0.0000378103  -0.0000856597  -0.0000020635  -0.0000098503   0.0002225138
        0.0000159441   0.0000513897   0.0000899215  -0.0001686282  -0.0000655695
       -0.0000228798   0.0000921126   0.0000403526   0.0000081744  -0.0000607135
       -0.0000597957  -0.0001024899  -0.0000444763  -0.0000377675   0.0001609728
        0.0000755641   0.0001277531  -0.0007376238  -0.0002624496  -0.0002088842
        0.0348588973  -0.0359162274   0.0057241215   0.0609917602  -0.1003196026
        0.0181806005   0.0353386291  -0.0172786481   0.0039678544  -0.0028008044
       -0.0028687169   0.0009179206   0.0017329952  -0.0024596457   0.0014177601
       -0.0009919065  -0.0003459355   0.0005034446   0.0007002993  -0.0008809756
        0.0004667410  -0.0009441889   0.0017856091  -0.0010646053  -0.0003794694
       -0.0001333776   0.0000660844   0.0000199577   0.0000197269   0.0000437460
       -0.0000026511   0.0000158395  -0.0001997128  -0.0000350935   0.0000896025
        0.0000193720  -0.0000530002   0.0000466193   0.0000372093   0.0000284664
       -0.0000034691  -0.0000245173  -0.0000046979   0.0000364948   0.0000210741
       -0.0000329874  -0.0000471062   0.0000189718   0.0000019290   0.0000351950
       -0.0000024679  -0.0000013444   0.0000180543   0.0000019398   0.0000210288
       -0.0000069240  -0.0000070175  -0.0000567948   0.0000149138   0.0000185418
        0.0001951239  -0.0000672119  -0.0000878624   0.0010060093   0.0010701683
       -0.0000528343   0.0206131742  -0.0036282541   0.0032108460  -0.0555149294
       -0.0663601784   0.0143130344   0.0221219354   0.0179657267  -0.0020641229
       -0.0013839083  -0.0121093954   0.0048370260   0.0060392899   0.0023997394
        0.0000557911  -0.0033055680  -0.0024930268   0.0006830334   0.0044725715
        0.0053470939  -0.0017663648  -0.0022237289   0.0002762079  -0.0007182311
        0.0006582118  -0.0014471675   0.0000173307  -0.0001497937   0.0004185339
        0.0000273076   0.0001949265  -0.0001653512  -0.0000349786  -0.0001026008
       -0.0000130475  -0.0000658749   0.0000855249   0.0000853518   0.0000316948
       -0.0003652731  -0.0001975604  -0.0002321810  -0.0003699578   0.0003162272
        0.0000224661   0.0000955548  -0.0000744780   0.0000172068  -0.0001207555
        0.0001252010  -0.0000014685   0.0001586427   0.0001055206   0.0001522753
       -0.0001017396  -0.0002789345  -0.0002730308   0.0008772056   0.0010853956
        0.0005204871  -0.0116294468  -0.0012061689  -0.0011770799   0.0053532967
        0.0060700800  -0.0007007637   0.0016773191   0.0007833610  -0.0004954022
       -0.0000468315  -0.0006827509   0.0005049749  -0.0000112458  -0.0000210716
       -0.0001821829   0.0000011258   0.0000412547   0.0000544311  -0.0000269298
       -0.0000186436  -0.0000147884   0.0000019862  -0.0000361449  -0.0000126331
        0.0000409338  -0.0000169371   0.0000012548   0.0000336598  -0.0000306183
       -0.0000016430   0.0000439633  -0.0000062670   0.0000118996   0.0000121752
        0.0000060928   0.0000409953  -0.0000096659  -0.0000651415  -0.0000837885
       -0.0013846177  -0.0001052843  -0.0008395948  -0.0129117972   0.0095267053
       -0.0006998483  -0.0001030594   0.0003282431  -0.0002711889   0.0000691105
        0.0000269736  -0.0000222478  -0.0000771989   0.0000493121  -0.0000511878
        0.0000627755  -0.0000079963   0.0001342649   0.0000289485   0.0000138505
        0.0000158321  -0.0000034082  -0.0000227328   0.0000099777  -0.0000226059
       -0.0000176689   0.0000209158  -0.0000024700  -0.0000099924   0.0000104566
       -0.0000137778   0.0000034766   0.0000149971  -0.0000078554   0.0000168737
        0.0000144438  -0.0000023445  -0.0000082406   0.0000040744   0.0002780809
        0.0005256667  -0.0004708281  -0.0002207909  -0.0000583982  -0.0001322125
       -0.0000778279  -0.0002209498   0.0002219097  -0.0000578365  -0.0000136375
        0.0000906278   0.0000002430  -0.0002016130   0.0000116385  -0.0000241588
        0.0000744002   0.0000569258  -0.0000590024   0.0000533029   0.0000099267
       -0.0000682519  -0.0000069367  -0.0000242502  -0.0000822297   0.0000125731
       -0.0000132944  -0.0000428396  -0.0000336814  -0.0000375557   0.0000142727
       -0.0000520191  -0.0000241055   0.0000542520   0.0001024312   0.0000906616
       -0.0005607775  -0.0000478387  -0.0003549036
        0.0173344278   0.0186080059  -0.0359701403   0.0132809505  -0.1151525005
        0.1181675662  -0.0002572267   0.0438537576  -0.0507258682   0.0041405612
        0.0154930635  -0.0038175917   0.0039957236  -0.0009847271   0.0044905240
       -0.0012018909   0.0012818899  -0.0002068038   0.0011469258  -0.0008616839
        0.0047820895  -0.0001023419   0.0000947140   0.0002045857  -0.0000264003
       -0.0000606583   0.0000080660  -0.0000268455  -0.0000212454   0.0000054754
       -0.0000031155   0.0000081733  -0.0000213071   0.0000013725  -0.0000163911
       -0.0000051891   0.0000191927   0.0000038670   0.0000037657  -0.0000067486
       -0.0000028481  -0.0000087008   0.0000249761   0.0000177660  -0.0000096176
        0.0000047107  -0.0000229458  -0.0000154969   0.0000055512   0.0000087537
        0.0000132930   0.0000050859   0.0000320016  -0.0000047121  -0.0000364639
       -0.0000008366  -0.0000245515   0.0001148718  -0.0000022679   0.0000190507
       -0.0079073340   0.0040265161  -0.0005639217  -0.0144955735   0.0116398231
       -0.0263433550  -0.0106910046   0.0072964858  -0.0038546913  -0.0005756770
        0.0019411301   0.0000281301  -0.0001677073   0.0004330567   0.0004003347
       -0.0001695366   0.0000810043  -0.0001379141   0.0000594634   0.0002500852
       -0.0001020839  -0.0001082084  -0.0003614970   0.0002050138   0.0002664106
        0.0001129285  -0.0001596050   0.0000270479  -0.0000912836   0.0000107822
       -0.0000552313   0.0000137094   0.0000724179  -0.0000030620  -0.0000482073
       -0.0000104967   0.0000235163  -0.0000105677  -0.0000171349  -0.0000169538
        0.0000119517   0.0000089528   0.0000321558  -0.0000244189  -0.0000302646
        0.0000335711   0.0000601203  -0.0000079084  -0.0000099318  -0.0000203901
        0.0000051607   0.0000045883   0.0000097150  -0.0000014864  -0.0000253517
        0.0000048273   0.0000161760   0.0000313903  -0.0000189295  -0.0000353583
       -0.0001548173   0.0000700815   0.0000876456   0.0003796076  -0.0001754820
        0.0001174709  -0.0056171219  -0.0010470548  -0.0044546522   0.0143074842
        0.0163784285  -0.0018948887  -0.0053276335  -0.0018006193   0.0061471353
       -0.0000365651   0.0025626094  -0.0007496939  -0.0010822295  -0.0008676993
       -0.0005486295   0.0006799712   0.0006320160  -0.0001687957  -0.0009146569
       -0.0014579041   0.0002081447   0.0004719206  -0.0000688885   0.0001308204
       -0.0001614526   0.0003279456   0.0000012128   0.0000625813  -0.0000846407
        0.0000057203  -0.0000406648   0.0000277378   0.0000021130   0.0000238147
        0.0000021149   0.0000118547  -0.0000187036  -0.0000132561  -0.0000071567
        0.0000869179   0.0000390581   0.0000506203   0.0000715668  -0.0000666949
       -0.0000100118  -0.0000155566   0.0000186250  -0.0000029876   0.0000294295
       -0.0000276559  -0.0000026658  -0.0000365849  -0.0000251122  -0.0000368921
        0.0000214865   0.0000654708   0.0000560638  -0.0001843339  -0.0002269029
       -0.0001153913   0.0027933190   0.0004417338   0.0002066120  -0.0026182223
       -0.0025656216  -0.0000819627  -0.0007329727  -0.0004534984  -0.0012497875
        0.0000396980   0.0004049014   0.0000178493  -0.0001808684  -0.0003263741
       -0.0010982017   0.0000193848  -0.0000136094  -0.0000058551   0.0000055480
        0.0000014271   0.0000038083   0.0000009300   0.0000026111   0.0000078111
       -0.0000067030   0.0000022215   0.0000004019  -0.0000030242   0.0000064415
        0.0000013855  -0.0000087069   0.0000003733   0.0000025228   0.0000010934
        0.0000004143  -0.0000053798   0.0000201611  -0.0000033783   0.0000352529
       -0.0001924727  -0.0004932219  -0.0013660927  -0.0065627986   0.0009349354
       -0.0018974253   0.0000454355  -0.0000428140   0.0000530496  -0.0000045435
       -0.0000465832  -0.0000523912   0.0000211276   0.0000114969   0.0000308153
       -0.0000009332   0.0000003329  -0.0000242169  -0.0000092135  -0.0000045666
        0.0000018477   0.0000105678   0.0000176395  -0.0000010011   0.0000187358
        0.0000088752  -0.0000094530   0.0000107337   0.0000100503  -0.0000035406
        0.0000125424  -0.0000024384  -0.0000082777   0.0000068618  -0.0000119237
       -0.0000072219  -0.0000036334   0.0000027550   0.0000095903  -0.0000209585
       -0.0000470805  -0.0000092204  -0.0000000095   0.0001264489   0.0001593621
       -0.0000073521   0.0000218538  -0.0000465086  -0.0000152577   0.0000520612
        0.0000697302  -0.0000178205   0.0000365705  -0.0000133790   0.0000017182
       -0.0000197644  -0.0000118172   0.0000073140  -0.0000105418  -0.0000029822
        0.0000112096   0.0000007535   0.0000036269   0.0000164327  -0.0000033128
        0.0000013159   0.0000090289   0.0000069304   0.0000050226  -0.0000034202
        0.0000101501   0.0000021395  -0.0000098967  -0.0000242834  -0.0000208162
        0.0001366175   0.0001239109   0.0001091652
        0.0051618121  -0.0189165234   0.0037953413  -0.0697921864   0.0116375408
       -0.0002572267   0.5985002361  -0.0229978746  -0.0773299114  -0.2055296801
       -0.0622965950   0.0450496229   0.0272724949  -0.0524949587   0.0089604188
       -0.0416689205  -0.0045313470   0.0084260728   0.0035659837   0.0657078852
       -0.0207137609   0.0038195875  -0.0013931837   0.0024319250  -0.0005842017