$hessian                                                                        
        0.6351063541  -0.0110264820   0.0574766707  -0.3069106076   0.0659033221
       -0.0001451957  -0.0464105480  -0.0656069293  -0.0360574832  -0.0281368457
        0.0296435518   0.0091986387  -0.0003409381  -0.0006665231  -0.0000447127
        0.0002255287   0.0000497646  -0.0008262043  -0.0004380927  -0.0000503528
        0.0003176608  -0.0000852093  -0.0000418478   0.0000442500  -0.0002469952
        0.0000015062   0.0003495785   0.0003423198   0.0000248407  -0.0006525609
        0.0001824566   0.0006132026   0.0007269209   0.0009558672   0.0006146606
        0.0002096861  -0.0004992280  -0.0001177569   0.0006742668   0.0001465092
       -0.0000062429  -0.0003831255   0.0000146616  -0.0001936950  -0.0002056135
        0.0000803710  -0.0001452142  -0.0005585555  -0.0010717647  -0.0005088096
        0.0007279660   0.0376108676   0.0180486247   0.0124004659   0.0084980341
       -0.0117162189  -0.0080156835  -0.0022912011   0.0051738997   0.0020098390
        0.0057741244  -0.0052380671  -0.0016388942   0.0002520086   0.0010199406
       -0.0003071750  -0.0004803352  -0.0001913733   0.0000846228  -0.0000190035
        0.0003680475  -0.0000776456  -0.0000972812  -0.0003171935   0.0000318152
        0.0003023129   0.0002274821   0.0000068884   0.0001182318  -0.0006277024
        0.0001713047   0.0001203564   0.0000638925  -0.0003035281   0.0000254335
       -0.0000145482   0.0000616528  -0.0000819627   0.0000116078   0.0000239578
        0.0000887496  -0.0000430882   0.0000690393  -0.0001345705  -0.0000309564
       -0.0000343075   0.0001402735  -0.0001221105  -0.0000860404   0.0000206031
        0.0001340434   0.0001458981   0.0001916676  -0.0001074683  -0.0000783944
       -0.0000806801   0.0001086422   0.0001465106  -0.0000480060   0.0000270882
       -0.0000009932  -0.0000177430  -0.0000433921   0.0000262913  -0.0000331634
       -0.0001027459  -0.0000302444  -0.0001074826   0.0001513559   0.0000658146
       -0.0059883449  -0.0010588265   0.0021461608   0.0117258739  -0.0030220688
       -0.0042936658  -0.0071982003  -0.0006030942   0.0020136879   0.0025671062
       -0.0015757159  -0.0009357180  -0.0020877456  -0.0009129121   0.0004314517
        0.0011759924   0.0008415841  -0.0001174337  -0.0008864949   0.0001899269
        0.0004955789   0.0023611121   0.0017965009  -0.0005411070  -0.0003086959
       -0.0002302073   0.0001040438   0.0002417941  -0.0001339930  -0.0000019770
       -0.0000287445  -0.0000163561  -0.0001886154   0.0000350294  -0.0001415902
       -0.0001056875  -0.0000885479   0.0000883399   0.0000554854  -0.0001332120
        0.0000883352   0.0000027053  -0.0003195876   0.0001205721   0.0002203209
       -0.0003082573   0.0002974822   0.0000480298  -0.0001808616   0.0001601031
       -0.0000569281   0.0000611923   0.0000574631   0.0001034917   0.0001391682
       -0.0000837501   0.0000684309   0.0001171875  -0.0001019276   0.0001846346
       -0.0000575554  -0.0003511955  -0.0003068459  -0.0108707204   0.0052791146
        0.0035911798  -0.1313339117   0.0547029686   0.0145951284  -0.1314691679
       -0.1073239479  -0.0599560140  -0.0140896517   0.0036418709   0.0003470457
       -0.0009195194  -0.0023769765  -0.0024300231   0.0001845897  -0.0000104524
       -0.0000923157   0.0000300148  -0.0000003203   0.0000403949  -0.0000273498
       -0.0000086435   0.0000107122   0.0000377686  -0.0000057540   0.0000097702
        0.0000221788   0.0000008355   0.0000025511   0.0000154008   0.0000098604
       -0.0000087255  -0.0000206226   0.0000397473  -0.0000233242  -0.0001334123
       -0.0000518510  -0.0000116079   0.0000070424  -0.0000186941  -0.0000191650
        0.0000471512  -0.0000066820  -0.0000317038   0.0000278192  -0.0000527397
        0.0000123833   0.0000321517   0.0000072618   0.0000649985   0.0000356523
       -0.0000439190  -0.0000206160  -0.0000213584  -0.0000105244  -0.0000016852
        0.0000465801   0.0000324983   0.0000468367  -0.0000136339  -0.0000582764
        0.0000560951  -0.0000074697  -0.0000243266  -0.0000511918   0.0000031461
       -0.0000042303   0.0000469770  -0.0000476847  -0.0000241293  -0.0000045001
       -0.0000050547  -0.0000147273  -0.0000639093  -0.0000307751   0.0000143839
       -0.0000673621   0.0001064354  -0.0000826004  -0.0000476311  -0.0000186299
        0.0000381998  -0.0000903413   0.0001224441   0.0000316431  -0.0000541783
        0.0000345504   0.0000195305   0.0000770779   0.0000125279   0.0000020597
       -0.0000419767  -0.0000263940   0.0000551698  -0.0000567656   0.0000570075
        0.0000388302   0.0001145081  -0.0000653048   0.0000288825   0.0000135073
       -0.0000821434   0.0000207151   0.0000020347  -0.0000053542   0.0000262203
        0.0000187881  -0.0000308602  -0.0000625296  -0.0000736089  -0.0151067228
        0.0255161074   0.0092472316
       -0.0110264820   0.5828470921   0.2054238917  -0.0083062264  -0.0881179850
       -0.0202973244  -0.0145168166   0.0322130519   0.0118012591   0.0232105109
       -0.0162227207  -0.0010242960  -0.0013079944  -0.0012977784  -0.0008067950
       -0.0003863780   0.0007174523   0.0008740318   0.0002593240  -0.0000181329
       -0.0003227358   0.0001069829   0.0000643758   0.0000214667   0.0001214388
       -0.0000316880  -0.0002076091  -0.0001699993  -0.0000639000   0.0003466932
       -0.0001805831  -0.0003529680  -0.0002957425  -0.0004978866  -0.0003811946
       -0.0002527411   0.0002612848   0.0000867054  -0.0003908720  -0.0001193894
       -0.0000399653   0.0001720824   0.0000733899   0.0002085053   0.0001384258
       -0.0001516741  -0.0000013594   0.0003996258   0.0015699631   0.0003153084
       -0.0004777425  -0.0273236893  -0.0602064682  -0.0290817751  -0.0108710820
        0.0074077917   0.0011639537   0.0020098689  -0.0070041869  -0.0018194836
       -0.0054119628   0.0044996171   0.0017428442  -0.0004426136  -0.0007691983
        0.0002168894   0.0003448354   0.0001897466  -0.0000852543   0.0000062508
       -0.0002954437   0.0000531325   0.0001226425   0.0002014124  -0.0000068995
       -0.0002771026  -0.0002363193  -0.0000339098   0.0000678203   0.0005001622
       -0.0000320694  -0.0001458589   0.0000447240   0.0000141027  -0.0000028890
        0.0000248115   0.0000131848  -0.0000673374   0.0000089068  -0.0000098859
       -0.0000164349   0.0000669288  -0.0000194597   0.0000283729   0.0000991352
        0.0000823209  -0.0000351025  -0.0000193344  -0.0000374297   0.0000114461
        0.0000249452   0.0000053682  -0.0000338558  -0.0000225483  -0.0000341745
        0.0000457228   0.0000465215   0.0000051029   0.0000100443  -0.0000865755
       -0.0000683649   0.0000283753  -0.0000021600  -0.0000425082  -0.0000305002
        0.0000182021  -0.0000412654   0.0000539445  -0.0001131248  -0.0000163386
        0.0046394079   0.0006465200  -0.0016537741  -0.0088719243   0.0038498592
        0.0037522198   0.0057317968   0.0005230648  -0.0015663940  -0.0020710678
        0.0013093018   0.0007968858   0.0016908994   0.0006861581  -0.0003450031
       -0.0010043213  -0.0006183692   0.0001309118   0.0008245439  -0.0001515446
       -0.0003913039  -0.0018244139  -0.0013761346   0.0003528925   0.0001693803
       -0.0001226253  -0.0000860435  -0.0002272403   0.0000485847  -0.0001607131
        0.0000076263  -0.0000683355   0.0000670215  -0.0000334539   0.0000084214
       -0.0000089568  -0.0000142727  -0.0001310012  -0.0000850187  -0.0000318116
        0.0000130688  -0.0000018773   0.0002910493  -0.0000359062  -0.0000880375
        0.0001297411  -0.0001372811   0.0002011363  -0.0000786914   0.0000496119
       -0.0000192823   0.0000660201  -0.0000929302  -0.0000189727  -0.0001071142
        0.0000521574  -0.0000430474  -0.0000063072  -0.0000366621  -0.0000791749
        0.0000861705   0.0003732209   0.0003363032   0.0096168221  -0.0051634026
       -0.0029008954   0.1253404520  -0.2693669695  -0.0843704004  -0.1075046364
       -0.1737894127  -0.0745742912   0.0253946466  -0.0048721957   0.0004561278
       -0.0029506685  -0.0014287756  -0.0043122256  -0.0001668380  -0.0000908308
        0.0000386602  -0.0000242543  -0.0000075602  -0.0000565522   0.0000170002
        0.0000089817  -0.0000093312  -0.0000144137  -0.0000079611  -0.0000164649
       -0.0000303933   0.0000007148   0.0000008318  -0.0000013017  -0.0000019948
        0.0000116456  -0.0000060253  -0.0000430062   0.0000199608   0.0000247274
        0.0000139705  -0.0000324680   0.0000378943   0.0000390934   0.0000235566
       -0.0000052711   0.0000103618   0.0000222584  -0.0000094993   0.0000466093
       -0.0000040503  -0.0000270386   0.0000086396  -0.0000362216  -0.0000093241
        0.0000192204  -0.0000016316   0.0000244513  -0.0000078355   0.0000154909
       -0.0000410513  -0.0000245644  -0.0000302276  -0.0000100871   0.0000401748
       -0.0000268451  -0.0000096802   0.0000114996   0.0000364585  -0.0000113648
        0.0000063997  -0.0000256891   0.0000312349   0.0000270025   0.0000179812
        0.0000094229   0.0000085257   0.0000453734  -0.0000206311   0.0000231886
        0.0000508020  -0.0000855117   0.0000879662   0.0000268146  -0.0000274893
       -0.0000215108   0.0000674637  -0.0000923700  -0.0000589554   0.0000608157
       -0.0000459959   0.0000229515  -0.0000459865   0.0000080749   0.0000191477
        0.0000574041   0.0000257557  -0.0000254462   0.0000343006  -0.0000615287
       -0.0000321951   0.0001782842   0.0000096816  -0.0001109859   0.0000387276
       -0.0000056314  -0.0000349264  -0.0000621852  -0.0000289726  -0.0000014147
       -0.0000412594   0.0000240024   0.0000388716   0.0000536351   0.0042494364
       -0.0044348995  -0.0028693378
        0.0574766707   0.2054238917   0.2111063663  -0.0322318100  -0.0096995109
       -0.0557718586  -0.0125657469   0.0042662553   0.0014028345   0.0069640734
       -0.0008960532  -0.0041170473  -0.0006524767  -0.0006499751  -0.0006969713
       -0.0002225512   0.0003449007   0.0003769110   0.0001033345   0.0000161790
       -0.0000984911   0.0000196234   0.0000110305   0.0000132881   0.0000518442
        0.0000010419  -0.0000726304  -0.0000700047  -0.0000285250   0.0001223985
       -0.0000271450  -0.0001138049  -0.0001115419  -0.0001353655  -0.0001121594
       -0.0000272860   0.0000833668   0.0000258197  -0.0001191572  -0.0000477491
       -0.0000099978   0.0000772345   0.0000362168   0.0000540934   0.0000279498
       -0.0000702965  -0.0000538273   0.0001882231   0.0006321215   0.0001085542
       -0.0001367986  -0.0056426522  -0.0241944542  -0.0099068753  -0.0053065512
        0.0000702114   0.0060309657   0.0010023208  -0.0043269316  -0.0012623988
       -0.0023098260   0.0017268825   0.0007245963  -0.0002346751  -0.0004753094
        0.0002257685   0.0002555519   0.0001006668  -0.0000347858  -0.0000086739
       -0.0001655536   0.0000181657   0.0000779143   0.0001113914  -0.0000027490
       -0.0001433434  -0.0001354648  -0.0000240062   0.0000654035   0.0002674902
        0.0000081997  -0.0000970201   0.0000386008  -0.0000509895  -0.0000053839
        0.0000275681  -0.0000027179  -0.0000211477  -0.0000202229  -0.0000158494
        0.0000068202   0.0000103558  -0.0000241418   0.0000083366   0.0000386086
        0.0000266351  -0.0000181163  -0.0000071630  -0.0000198032  -0.0000053002
        0.0000084867   0.0000035985  -0.0000121803  -0.0000079578  -0.0000189594
        0.0000087661   0.0000167408  -0.0000022593   0.0000024275  -0.0000262116
       -0.0000296899   0.0000048653   0.0000017202  -0.0000162405  -0.0000038548
        0.0000152005  -0.0000092507  -0.0000028178  -0.0000373392   0.0000064830
        0.0012419492   0.0002566622  -0.0004419275  -0.0034896052   0.0020817281
        0.0011613677   0.0022034078   0.0003509143  -0.0006177215  -0.0008415308
        0.0005254728   0.0003506982   0.0006817267   0.0002799336  -0.0001308471
       -0.0003922570  -0.0002633926   0.0000452728   0.0003139862  -0.0000372062
       -0.0001581034  -0.0006677737  -0.0006328736   0.0001114530   0.0001002908
       -0.0001360319  -0.0001121995  -0.0001565880   0.0001369135  -0.0001251264
       -0.0000253385  -0.0000288883   0.0000156228  -0.0000077339  -0.0000388785
       -0.0000010280   0.0000275026  -0.0000296665   0.0000472666   0.0000720104
        0.0001087875  -0.0001743338   0.0001354667  -0.0000319291  -0.0000621670
        0.0000631611  -0.0000628824   0.0001546286  -0.0000990395   0.0002447682
       -0.0000758959   0.0000234380  -0.0000832000  -0.0000638806  -0.0000281103
        0.0000498823   0.0000465355  -0.0000155441  -0.0000774326  -0.0000821422
        0.0000826759   0.0002900260   0.0001967284   0.0035560773  -0.0014193799
       -0.0009445183   0.0432802697  -0.0929250932  -0.0800428269  -0.0595097484
       -0.0747511033  -0.0743308985   0.0093887178  -0.0020196393   0.0009433906
       -0.0025628664  -0.0043100099   0.0054678097  -0.0000500205  -0.0000276287
        0.0000428398  -0.0000103953  -0.0000025116  -0.0000211412   0.0000009095
        0.0000024440  -0.0000014469  -0.0000082578  -0.0000032323  -0.0000042557
       -0.0000110027   0.0000002663   0.0000080298  -0.0000008825  -0.0000030333
        0.0000073684  -0.0000047447  -0.0000214886   0.0000101655  -0.0000339851
       -0.0000389453  -0.0000434585   0.0000199866   0.0000327995   0.0000166513
       -0.0000049782   0.0000008103   0.0000133265  -0.0000044392   0.0000148356
        0.0000027065  -0.0000088444  -0.0000044821  -0.0000166383  -0.0000041118
        0.0000059465  -0.0000079894   0.0000134058  -0.0000067437   0.0000151308
       -0.0000002361  -0.0000059007  -0.0000087107   0.0000072803   0.0000144572
       -0.0000128404   0.0000041053   0.0000065476   0.0000055547   0.0000008417
        0.0000016923  -0.0000165520   0.0000104775   0.0000106523  -0.0000027287
        0.0000005271   0.0000005614   0.0000085157  -0.0000169670   0.0000047069
        0.0000109658  -0.0000337204   0.0000339824  -0.0000006567  -0.0000118904
       -0.0000083511   0.0000191748  -0.0000307285  -0.0000215476   0.0000216806
       -0.0000255762   0.0000015879  -0.0000292818  -0.0000013762  -0.0000046614
        0.0000148068  -0.0000045857  -0.0000116042   0.0000075730   0.0001136987
       -0.0000381691  -0.0000319871   0.0000007640  -0.0002199225   0.0000555576
        0.0000115129  -0.0000048428  -0.0000264551   0.0000129798  -0.0000217477
       -0.0000043000   0.0000259540   0.0000031436   0.0000246413  -0.0002952136
        0.0011076693   0.0009794773
       -0.3069106076  -0.0083062264  -0.0322318100   0.6263924013  -0.0350601838
        0.0470905985  -0.1696958638  -0.0573598433  -0.0412909248   0.0432786643
       -0.0421094822  -0.0124022024   0.0012472333   0.0054080146   0.0015414708
        0.0000875721  -0.0001386634   0.0003494087   0.0002961777   0.0000022667
       -0.0001893291   0.0001015097   0.0000520089  -0.0001411382   0.0002864603
        0.0000300214  -0.0003532438  -0.0003712891  -0.0000261405   0.0007390696
        0.0000412389  -0.0006290959  -0.0006829961  -0.0008280617  -0.0004104316
        0.0000328066   0.0005215644   0.0000618472  -0.0007132007  -0.0001288137
        0.0000663949   0.0004252472   0.0000089723   0.0001807331   0.0002545823
        0.0000578171   0.0002414002   0.0004691693   0.0004553759   0.0007037968
       -0.0004525182  -0.0337919513  -0.0219256804  -0.0138518676  -0.0049877387
        0.0047316283   0.0037638531   0.0012411602  -0.0034460281  -0.0009891141
       -0.0032781286   0.0032186660   0.0008584196  -0.0001402231  -0.0008053663
        0.0001413195   0.0003165380   0.0001768278  -0.0000823070   0.0000257468
       -0.0002685352   0.0000596218   0.0000326851   0.0002382234  -0.0000300675
       -0.0002077645  -0.0001498522   0.0000327289  -0.0002351029   0.0004717101
       -0.0001739222  -0.0000437313  -0.0000981004   0.0003725821  -0.0000489167
       -0.0000142879  -0.0001128799   0.0000605413  -0.0000077765  -0.0000104071
       -0.0001005561  -0.0000287867  -0.0000801803   0.0001669449  -0.0000403799
       -0.0000294546  -0.0001037450   0.0001546745   0.0001263894  -0.0000138949
       -0.0001730827  -0.0001801437  -0.0002098864   0.0001246512   0.0000999692
        0.0000876232  -0.0001631232  -0.0001783673   0.0000461437   0.0000390431
        0.0000531397   0.0000096798   0.0000453603   0.0000045594   0.0000322301
        0.0000956838   0.0000623670   0.0001458242  -0.0001257482  -0.0000774179
        0.0035581433   0.0004958488  -0.0013200974  -0.0074900373   0.0018134561
        0.0026719371   0.0045886289   0.0005869110  -0.0011332024  -0.0016548002
        0.0009684314   0.0005927615   0.0013120066   0.0006480541  -0.0002716779
       -0.0007367427  -0.0006183774   0.0000610973   0.0004136355  -0.0000639126
       -0.0003714461  -0.0012560904  -0.0014958073   0.0002382416   0.0001313702
        0.0002308175  -0.0001976792  -0.0000217120   0.0001414664   0.0000068407
       -0.0000851072   0.0000369852   0.0000310427   0.0000503100  -0.0000251034
        0.0001343229   0.0001145731   0.0000244243   0.0001078139  -0.0000232814
       -0.0000509643  -0.0001966207   0.0002850663   0.0000006272  -0.0000675651
        0.0000391895  -0.0002432039  -0.0001958683   0.0002508250  -0.0000536969
        0.0002061579  -0.0001026969   0.0000038353  -0.0001477689  -0.0001189731
        0.0000426968  -0.0000668349  -0.0001309374   0.0000855110  -0.0001265212
        0.0000723933   0.0003731279   0.0003094973   0.0062353891  -0.0025623206
       -0.0018534179  -0.0318721470   0.0805155563   0.0295410781  -0.0193966388
        0.0002027857  -0.0017679551  -0.0880643478   0.0927026546   0.0332786426
       -0.0201106598  -0.0207755625  -0.0115988007  -0.0001224784   0.0000072382
        0.0000824073  -0.0000188394   0.0000024164  -0.0000402272   0.0000246028
        0.0000022608  -0.0000103512  -0.0000158300   0.0000188954  -0.0000231279
       -0.0000162650  -0.0000089774   0.0000068573  -0.0000126197  -0.0000144218
       -0.0000048206   0.0000077760  -0.0000528323  -0.0000027038  -0.0000866412
       -0.0002189262  -0.0000330602   0.0000340515  -0.0000001435   0.0000284721
       -0.0000237496  -0.0000016529   0.0000244470  -0.0000072190   0.0000129771
       -0.0000082920  -0.0000071681  -0.0000170377  -0.0000429138  -0.0000204701
        0.0000411531   0.0000054133   0.0000007070   0.0000404878   0.0000284606
       -0.0000092540   0.0000047203  -0.0000097624   0.0000239041   0.0000349683
       -0.0000211551   0.0000185439   0.0000113731   0.0000279856   0.0000070550
        0.0000006544  -0.0000174100   0.0000254022   0.0000081819  -0.0000020701
        0.0000043979   0.0000069300   0.0000342493   0.0000278600  -0.0000076363
        0.0000428034  -0.0000610837   0.0000420468   0.0000293774   0.0000247134
       -0.0000177234   0.0000688746  -0.0000544560   0.0000025825   0.0000443536
       -0.0000036174  -0.0000308433  -0.0000493755  -0.0000011004  -0.0000157674
        0.0000173105   0.0000239726  -0.0000307640   0.0000194100  -0.0000142431
       -0.0001090148   0.0000193403  -0.0000263774  -0.0000435656  -0.0000290544
        0.0000485332  -0.0000034813   0.0000134933   0.0000145942  -0.0000112472
        0.0000014930   0.0000460410   0.0000050103   0.0000572087   0.0003380697
        0.0026017604  -0.0003454210
        0.0659033221  -0.0881179850  -0.0096995109  -0.0350601838   0.5780232889
        0.2023905682  -0.1305962719  -0.2037537043  -0.0866971878   0.0100501309
       -0.0581681244  -0.0242560748   0.0047032902   0.0003952001  -0.0038326530
       -0.0002209319  -0.0021167960  -0.0015016325  -0.0002819442  -0.0000631997
        0.0001755058   0.0000462915   0.0001726691   0.0000629405  -0.0002404142
       -0.0000876247   0.0001850516   0.0000766016  -0.0000326236  -0.0003502399
       -0.0000488950   0.0000839262  -0.0000259404   0.0004147322   0.0003510624
       -0.0001604386  -0.0002358269  -0.0000441706   0.0003350686   0.0000910081
       -0.0000012484  -0.0001969991  -0.0000955001  -0.0000786868   0.0000324957
        0.0002940566   0.0001401984  -0.0004434158  -0.0012980760   0.0000009812
        0.0006200546  -0.0181334638   0.0032197427   0.0009266961   0.0058781856
       -0.0049812599  -0.0023287996  -0.0012683548   0.0041976017   0.0013285451
        0.0037909771  -0.0031606181  -0.0016753681   0.0003211549   0.0004008935
       -0.0001900251  -0.0002703146  -0.0000261448   0.0000109487   0.0000113877
        0.0001391013  -0.0000251429  -0.0000887830  -0.0001740452   0.0000174004
        0.0001976986   0.0001378347   0.0000375829  -0.0000147162  -0.0003006383
        0.0000311679   0.0001623986  -0.0000264167  -0.0000495253  -0.0000540992
       -0.0000710264  -0.0000733573  -0.0000417830   0.0000320317   0.0000511218
        0.0000420217  -0.0000725339   0.0000232660  -0.0000586811  -0.0000587909
       -0.0000634895   0.0000885307  -0.0000375174  -0.0000164339   0.0000104298
        0.0000370317   0.0000418726   0.0000968520  -0.0000363701  -0.0000244163
       -0.0000491156   0.0000367810   0.0000514510  -0.0000248740   0.0000674336
        0.0000247492  -0.0000198423  -0.0000108070   0.0000361406  -0.0000019838
       -0.0000669747   0.0000013787  -0.0001239036   0.0001401303   0.0000605041
       -0.0032683981  -0.0008713547   0.0013221175   0.0060544358  -0.0026653582
       -0.0024442240  -0.0038573634  -0.0003381945   0.0011886809   0.0013581858
       -0.0009146974  -0.0005437036  -0.0011014918  -0.0004005557   0.0002096464
        0.0006494109   0.0003700376  -0.0001107838  -0.0006154893   0.0001175777
        0.0002099514   0.0013147547   0.0007737912  -0.0003046198  -0.0002663517
        0.0003150294   0.0001632320   0.0003143127  -0.0001596820   0.0001980602
       -0.0000161888  -0.0000334417  -0.0000947424   0.0000124154  -0.0000667775
       -0.0000422282  -0.0001000696   0.0000585349   0.0000048614  -0.0000584221
       -0.0000196053   0.0000393918   0.0000198678   0.0000302207   0.0000673749
       -0.0000869607   0.0000806535  -0.0000662328   0.0000029124  -0.0000375578
        0.0000823102  -0.0000481363   0.0000734860   0.0000204137   0.0000761310
       -0.0000913874  -0.0000322833   0.0000080034   0.0000345183   0.0001171228
       -0.0001424153  -0.0003442204  -0.0002909032  -0.0068115579   0.0040127549
        0.0021860064   0.0269949158   0.0024503276   0.0039848627  -0.0212708241
        0.0016107486  -0.0021115500   0.0926517898  -0.2293314412  -0.0756905065
        0.0007922989   0.0020479635   0.0016391486   0.0000443054  -0.0001079871
       -0.0000444535   0.0000057818   0.0000070504   0.0000313221  -0.0000334041
       -0.0000143748   0.0000140063   0.0000129091  -0.0000164875  -0.0000298517
        0.0000317311   0.0000085881   0.0000040646   0.0000311333  -0.0000028432
        0.0000100862   0.0000148911   0.0000602422  -0.0000222192  -0.0002201323
       -0.0001437257   0.0002604775   0.0000549469  -0.0000170264  -0.0000050349
        0.0000358249  -0.0000096959  -0.0000166791   0.0000286332  -0.0000689144
       -0.0000005326   0.0000171332  -0.0000147751   0.0000351731   0.0000428295
       -0.0000278038  -0.0000290058  -0.0000061770  -0.0000120731  -0.0000076883
        0.0000460700   0.0000275672   0.0000379762   0.0000054003  -0.0000660203
        0.0000646436   0.0000137455  -0.0000440433  -0.0000566878   0.0000162312
       -0.0000140553   0.0000477646  -0.0000473323  -0.0000374450  -0.0000212583
       -0.0000057886  -0.0000202192  -0.0000622097   0.0000336723   0.0000575429
       -0.0000290027   0.0000715352  -0.0000432598  -0.0000200729  -0.0000287866
        0.0000308439  -0.0000417938   0.0000874978   0.0000004337  -0.0000342403
        0.0000247326   0.0000410217   0.0000418935  -0.0000136297   0.0000132330
       -0.0000435684  -0.0000477147   0.0000792829  -0.0000509742   0.0000483734
        0.0001136507  -0.0000341415   0.0000000550   0.0001327842  -0.0000277012
       -0.0000368700   0.0000288690   0.0000236738   0.0000141387   0.0000445924
        0.0000171671  -0.0000226524  -0.0000080701  -0.0000455270   0.0032240400
       -0.0027668545  -0.0045008682
       -0.0001451957  -0.0202973244  -0.0557718586   0.0470905985   0.2023905682
        0.2055396466  -0.0746479696  -0.0762154584  -0.0873648545   0.0122597803
       -0.0307770034  -0.0133164321  -0.0005991677  -0.0039255819   0.0052663746
        0.0007414031   0.0000267913   0.0003739604   0.0001209712   0.0000050602
       -0.0000909005   0.0000682347   0.0001494053   0.0000804469  -0.0000827259
       -0.0000682421  -0.0000254741   0.0000251381   0.0000677203  -0.0000180940
       -0.0002503923   0.0000742082   0.0002062479  -0.0004102124  -0.0000858053
       -0.0002041568   0.0000276665   0.0000343585  -0.0001267040   0.0000189134
        0.0000369754   0.0000489522  -0.0000349685   0.0000740044   0.0000479226
        0.0001416737   0.0002078942  -0.0000988180  -0.0001829592  -0.0007222600
       -0.0004769075  -0.0126756725   0.0008199357  -0.0062251291   0.0024501058
       -0.0018460904  -0.0011102164  -0.0009092735   0.0013923102   0.0006139047
        0.0012194250  -0.0010025724  -0.0005886955   0.0001064364   0.0000979736
       -0.0000700297  -0.0000842874  -0.0000250570  -0.0000049930  -0.0000057141
        0.0000451842  -0.0000071751  -0.0000300621  -0.0000520939   0.0000029299
        0.0000617928   0.0000424905   0.0000334655  -0.0000820352  -0.0001124231
       -0.0000126302   0.0000279962  -0.0000385001   0.0000671821  -0.0000187963
       -0.0000054628  -0.0000214996  -0.0000077152   0.0000199568   0.0000315788
       -0.0000025556  -0.0000443689  -0.0000004039   0.0000095687  -0.0000467662
       -0.0000424303   0.0000279596   0.0000383249   0.0000441040  -0.0000054272
       -0.0000240081  -0.0000174071  -0.0000202547   0.0000154222   0.0000162550
        0.0000083788  -0.0000359503  -0.0000129745   0.0000025724   0.0000545561
        0.0000418829   0.0000024441  -0.0000050493   0.0000262029  -0.0000026811
       -0.0000013027   0.0000319192   0.0000321471   0.0000038723  -0.0000139106
       -0.0009684049  -0.0004316065   0.0004115475   0.0020193290  -0.0008338159
       -0.0008635351  -0.0012711130  -0.0000762829   0.0004041814   0.0004292294
       -0.0002722276  -0.0001645439  -0.0003283007  -0.0001146044   0.0000655633
        0.0002010673   0.0000933401  -0.0000290827  -0.0002293117   0.0000572456
        0.0000811359   0.0004061711   0.0003018937  -0.0000953479  -0.0000745953
        0.0001087469   0.0000602175   0.0001583467  -0.0000679246   0.0001244037
       -0.0000100402  -0.0000152276  -0.0000405430  -0.0000050475  -0.0000015774
       -0.0000021653  -0.0000370691  -0.0000113097  -0.0000180705  -0.0000200247
        0.0000144976   0.0000699441  -0.0000047773   0.0000380776  -0.0000192437
       -0.0000093481   0.0000585129  -0.0000443259  -0.0000120845  -0.0000383008
       -0.0000030906   0.0000049969  -0.0000123196   0.0000221460   0.0000107147
       -0.0000186726  -0.0000169240  -0.0000085603   0.0000246442   0.0000368806
       -0.0000452561  -0.0001498308  -0.0001374475  -0.0023590409   0.0017021774
        0.0008978994   0.0080342410   0.0113044841   0.0075948406  -0.0117148624
        0.0004024916  -0.0004965316   0.0338549431  -0.0754348946  -0.0605552505
       -0.0025403490  -0.0024031168  -0.0003227325  -0.0000267908  -0.0000716197
       -0.0000206437  -0.0000032046   0.0000067004   0.0000225330  -0.0000108283
       -0.0000133855   0.0000040762   0.0000186726   0.0000060884   0.0000134675
       -0.0000030780  -0.0000123101   0.0000072352   0.0000151007  -0.0000072077
        0.0000044915  -0.0000134257   0.0000217366  -0.0000057931  -0.0000943266
       -0.0001362056   0.0001963742   0.0000254603   0.0000138991  -0.0000028184
        0.0000177191  -0.0000050682  -0.0000068051   0.0000126541  -0.0000284954
       -0.0000015009   0.0000069984  -0.0000074267   0.0000122653   0.0000120994
       -0.0000106465  -0.0000183001  -0.0000031509  -0.0000000126   0.0000006845
        0.0000150908   0.0000165560   0.0000199391  -0.0000008661  -0.0000275310
        0.0000360148   0.0000047546  -0.0000161750  -0.0000171916   0.0000077685
       -0.0000065802   0.0000335185  -0.0000205523  -0.0000146116  -0.0000020809
       -0.0000018537  -0.0000113367  -0.0000237087   0.0000147490   0.0000086375
       -0.0000033301   0.0000288102  -0.0000193221  -0.0000035864  -0.0000084603
        0.0000090501  -0.0000050036   0.0000349065  -0.0000022669  -0.0000073750
        0.0000170849   0.0000035179   0.0000125533  -0.0000002156  -0.0000040672
       -0.0000216104  -0.0000115384   0.0000263245  -0.0000068593   0.0000087333
        0.0000096208   0.0000041561  -0.0000241532   0.0000439958  -0.0000277115
       -0.0000170929   0.0000224224   0.0000104581   0.0000116680   0.0000209989
        0.0000151321  -0.0000046731  -0.0000087334  -0.0000084202   0.0002659454
       -0.0042966382   0.0059786331
       -0.0464105480  -0.0145168166  -0.0125657469  -0.1696958638  -0.1305962719
       -0.0746479696   0.6567463145  -0.0180477447   0.0702154413  -0.1291741862
        0.1182719345   0.0424714751   0.0078055618  -0.0165514030  -0.0095750524
       -0.0007989041  -0.0026364887   0.0012532850   0.0002972987   0.0000083961
       -0.0002797831   0.0000131461   0.0002232986   0.0000607941   0.0000907676
       -0.0000106813  -0.0001478724  -0.0004420908   0.0001119648   0.0003314883
       -0.0005313644  -0.0004006071  -0.0012225839  -0.0004290172  -0.0001641183
       -0.0000062593   0.0001493184   0.0000890572  -0.0002931922  -0.0000788474
        0.0000356535   0.0002077638   0.0000692667  -0.0000320498   0.0001143198
       -0.0005690066  -0.0001875927  -0.0002492523   0.0004540280  -0.0011590813
       -0.0006489222  -0.0243725388   0.0268291246   0.0075506061  -0.0045287297
       -0.0005649972  -0.0015348949  -0.0003862290   0.0006228381   0.0003207551