$hessian                                                                        
        0.5089007081  -0.0070412233   0.0310558013  -0.0748730350  -0.0089087645
        0.0462069773   0.0050872077   0.0031081514  -0.0167085982  -0.0101627082
       -0.0118574142   0.0126857215  -0.0005372999   0.0012377618   0.0011083735
       -0.0005544654  -0.0002740058  -0.0005078793   0.0001191050  -0.0000225596
       -0.0000713740  -0.0005944873  -0.0000824909  -0.0005127289   0.0003921833
       -0.0020186734   0.0000481987  -0.0002758580  -0.0001380066   0.0000714141
        0.0002771813  -0.0000007872   0.0000278139  -0.0000529527  -0.0000109218
       -0.0000136233   0.0000451272  -0.0000113200  -0.0000072196  -0.0000018638
        0.0000231424  -0.0000078210   0.0000031532   0.0001614688  -0.0002016924
       -0.0000489871  -0.0001589771   0.0002156256   0.0000658762  -0.0000517538
        0.0000452151  -0.0000400397   0.0000174839  -0.0000213038  -0.0000113472
       -0.0000223035   0.0000068976  -0.0000112178   0.0000060580  -0.0000151854
        0.0000154947   0.0000157743   0.0000033708  -0.0000162826   0.0000200900
       -0.0000333833   0.0000143725  -0.0000254060   0.0000557916   0.0000826445
        0.0000089598   0.0000463178  -0.0002556947   0.0025324006   0.0009631417
       -0.0007927477   0.0001660001  -0.0005811741   0.0000219759   0.0000762341
       -0.0000546259  -0.0006009491   0.0002027678  -0.0005324400  -0.0003775526
       -0.0013492684   0.0007579697  -0.0142669776   0.0047459001   0.0192105061
       -0.1440842863   0.1144140838   0.0357945433  -0.1656231222   0.0080582134
       -0.1203904783  -0.1010733688  -0.1035548985  -0.0045762535   0.0008254456
       -0.0000503253  -0.0005336150   0.0007407615   0.0003092990  -0.0003690281
       -0.0020563285   0.0003870908  -0.0038378736   0.0000019514   0.0004200838
        0.0001294483  -0.0000016116   0.0000041154   0.0000261884   0.0000115191
       -0.0000191430   0.0001012805  -0.0000860365  -0.0001053414   0.0000137862
       -0.0000069367   0.0000250267  -0.0000395764  -0.0000325016  -0.0000099914
       -0.0000160447   0.0000053071   0.0000086666   0.0000119940  -0.0000127271
        0.0000070604  -0.0000108542   0.0000076384   0.0000037392  -0.0000035475
       -0.0000103380  -0.0000072641  -0.0000010098   0.0000113293   0.0000034958
       -0.0000014057  -0.0000082016  -0.0000056249   0.0000016577  -0.0000179614
        0.0000045858  -0.0000029217  -0.0001164333   0.0001203457   0.0000708404
        0.0000103650  -0.0000220616   0.0001290751   0.0000038900  -0.0000130126
        0.0000325623  -0.0000389170  -0.0003264607   0.0002311447
       -0.0070412233   0.5252711082   0.0163200141  -0.0074831948  -0.0651631489
        0.0183696709  -0.0004573888   0.0008671173   0.0033734663  -0.0152067960
       -0.0103588618   0.0205448923  -0.0004078952  -0.0012792773   0.0003894877
       -0.0000207182   0.0008603712  -0.0005501640  -0.0005054216  -0.0000261551
        0.0000638128  -0.0008066488  -0.0001853999  -0.0008759392   0.0003780890
       -0.0037098975   0.0002313716  -0.0003096439   0.0013361242   0.0002905703
        0.0000976769   0.0000277493  -0.0000421095  -0.0000075309  -0.0000228517
        0.0000208889   0.0000298138  -0.0000193113   0.0000031119   0.0000035396
        0.0000241780   0.0000060137  -0.0000153497   0.0000792643  -0.0000727138
       -0.0000048171  -0.0000575124   0.0000810553   0.0000077623  -0.0000186778
       -0.0000004851  -0.0000086157   0.0000026533  -0.0000029956  -0.0000057702
       -0.0000015047  -0.0000004089   0.0000003357   0.0000019704  -0.0000017750
       -0.0000005287   0.0000066216  -0.0000004874  -0.0000050823  -0.0000021780
       -0.0000053898   0.0000015291  -0.0000117936  -0.0000053222  -0.0000026259
        0.0000661164   0.0000205870   0.0008419162  -0.0028438877  -0.0010198867
        0.0006516334  -0.0001746573   0.0006031288   0.0005248562   0.0000935432
       -0.0001055348  -0.0004197719   0.0007298194   0.0006940207   0.0005158134
       -0.0017281071  -0.0006618158   0.0105025058   0.0027915982  -0.0163881382
        0.1145058893  -0.1719052763  -0.0422262647   0.0079848010  -0.0451490931
        0.0072456343  -0.1034826115  -0.2281188863  -0.0061703100  -0.0003534740
        0.0000852287   0.0003751555   0.0001507607   0.0002554255  -0.0006837262
        0.0002475351   0.0004616606   0.0004195428  -0.0005444640  -0.0011087199
        0.0010485496   0.0000177882  -0.0000060115   0.0000535251  -0.0000170788
       -0.0000215221   0.0001687380  -0.0001157105  -0.0001994653  -0.0000507855
        0.0000016467   0.0000024382  -0.0000179813  -0.0000090418  -0.0000019179
       -0.0000040501   0.0000028627   0.0000032554   0.0000012193  -0.0000006726
        0.0000024400  -0.0000020714   0.0000042748   0.0000005225  -0.0000008890
       -0.0000031217  -0.0000023838  -0.0000007396   0.0000032111   0.0000009951
       -0.0000016264  -0.0000017938  -0.0000113713  -0.0000015415  -0.0000006720
       -0.0000187945  -0.0000061153   0.0001145960  -0.0001634955  -0.0000156598
        0.0000076039   0.0000366921  -0.0001319640  -0.0000159662   0.0000074733
       -0.0000331398   0.0006571892  -0.0007042068  -0.0012444266
        0.0310558013   0.0163200141   0.4483100074   0.0376620377   0.0174692377
       -0.1452416347   0.0048847416   0.0054673285  -0.0287886412   0.0055458181
        0.0083807826  -0.0020106061   0.0001981795  -0.0017643600  -0.0002134526
        0.0006170870   0.0004824812   0.0001088775  -0.0001672737   0.0000456072
        0.0001194550   0.0001652103   0.0001944531   0.0001340631  -0.0012667053
       -0.0002370175  -0.0006777608   0.0003440770   0.0002871547  -0.0001857913
       -0.0001612236  -0.0000570149   0.0002648359  -0.0000921659   0.0000046025
        0.0000157434   0.0000346389   0.0000134325  -0.0000020237  -0.0000714728
       -0.0000405992   0.0000634887  -0.0001055668  -0.0001560124   0.0002261253
        0.0001055510   0.0001839407  -0.0002743934   0.0000479732  -0.0000164777
        0.0000414285   0.0000221578   0.0000390307  -0.0000406841   0.0000193965
       -0.0000117426   0.0000286518   0.0000052749   0.0000063164   0.0000014065
        0.0000150502  -0.0000218931   0.0000299980  -0.0000552987  -0.0000198476
       -0.0000211775   0.0000667931   0.0000182509  -0.0000560817  -0.0000589845
       -0.0000209448   0.0000001559  -0.0010678975  -0.0008505427  -0.0009823226
        0.0004500123  -0.0002705057   0.0002928056   0.0000259155  -0.0000842880
        0.0000713587   0.0006270482  -0.0001411689   0.0001970635   0.0000501780
        0.0012681249   0.0001377736   0.0112593369  -0.0056165132  -0.0107941889
        0.0352307980  -0.0418347914  -0.0553146586  -0.1198876063   0.0073008659
       -0.1599594111  -0.0050661741  -0.0066775020  -0.0420209481   0.0009739509
       -0.0003094749   0.0008681682   0.0010051997   0.0002875829   0.0007902811
       -0.0029857107   0.0005009855  -0.0042932030   0.0001396897  -0.0001316158
       -0.0000840530   0.0000006655   0.0000191503  -0.0000395821   0.0000051790
        0.0000113510  -0.0000182437   0.0000043143   0.0000162864  -0.0000178210
        0.0000212589  -0.0000179300   0.0000306112   0.0000270031   0.0000048868
        0.0000016900   0.0000071418  -0.0000067542   0.0000021321  -0.0000116900
       -0.0000006871  -0.0000022787  -0.0000134599   0.0000011740  -0.0000092690
       -0.0000033208   0.0000239868  -0.0000117273   0.0000046445  -0.0000028979
        0.0000074292   0.0000101732   0.0000014802  -0.0000051328  -0.0000084996
        0.0000173870  -0.0000475183   0.0000510505  -0.0000537637  -0.0000379264
        0.0000098265   0.0000092830  -0.0000700190  -0.0000030188  -0.0000017128
       -0.0000573554   0.0003328946  -0.0000291196  -0.0004656440
       -0.0748730350  -0.0074831948   0.0376620377   0.4525550633  -0.0035650635
       -0.0065856315  -0.1095329013   0.0039313509  -0.0521077115  -0.0906349223
       -0.0476367491  -0.0008311692   0.0092322377   0.0053304289  -0.0007492712
       -0.0000149175   0.0042151233   0.0018374534  -0.0008759438  -0.0001978746
        0.0000202462  -0.0044144945   0.0006139143   0.0017244147  -0.0182311101
       -0.0241086110  -0.0001994329   0.0045744586   0.0009308927  -0.0010876291
       -0.0005139780   0.0000195548  -0.0001960981   0.0001562433   0.0000120199
        0.0001861115   0.0002961204   0.0000835719  -0.0000256917  -0.0004070258
       -0.0002068292   0.0003694341  -0.0000624128  -0.0001042212   0.0001068722
        0.0001280709   0.0001181963  -0.0001946478   0.0001563472  -0.0001429123
        0.0001510680   0.0000224809   0.0001996762  -0.0001313246  -0.0000190049
       -0.0000723871   0.0000043202   0.0000224419   0.0000016616  -0.0000191199
        0.0000334794   0.0000471574   0.0000610467  -0.0001725844  -0.0000561611
       -0.0000349273   0.0004066650   0.0001277123  -0.0002862869  -0.0001191094
       -0.0000527647   0.0000027568  -0.0239100070   0.0184778949   0.0077549888
       -0.0038849493  -0.0020815859   0.0013720040  -0.0009755855   0.0000441109
        0.0000695933   0.0014388513  -0.0039380893   0.0002126729   0.0073119326
        0.0028638485  -0.0010067803  -0.1117785544   0.0544724349   0.0183542301
       -0.0104683645  -0.0013781121   0.0182618159   0.0074899805   0.0034123661
       -0.0162729103  -0.0078889993  -0.0053296238   0.0134192331  -0.0174187373
        0.0038907318  -0.0141957064  -0.0135313174  -0.0022736781  -0.0119629732
        0.0069188527  -0.0002560181   0.0056751881  -0.0001127593   0.0006176246
       -0.0003731065   0.0002466796   0.0009472036   0.0001008430  -0.0000352092
        0.0001738028  -0.0002333318  -0.0005167622  -0.0009801375  -0.0000561326
       -0.0000066345  -0.0000109678   0.0000091898   0.0000542512  -0.0000407846
       -0.0000927352   0.0000247797   0.0000181471   0.0000901049  -0.0001242054
        0.0000441249  -0.0000744891   0.0000385555   0.0000398125  -0.0000526849
       -0.0000576884  -0.0000409426  -0.0000418267   0.0000918099   0.0000413086
       -0.0000312909   0.0000023344  -0.0000119024   0.0000685727  -0.0000352655
       -0.0000310508  -0.0000031440  -0.0006473282   0.0007792061   0.0002862698
       -0.0000294495  -0.0001121064  -0.0002574735   0.0002949847  -0.0006993503
       -0.0001502538  -0.0002033640  -0.0006427598  -0.0005466866
       -0.0089087645  -0.0651631489   0.0174692377  -0.0035650635   0.4982410424
        0.0136680499   0.0052912934  -0.0616264469   0.0036366963  -0.0531973904
       -0.1610615476  -0.0071978716  -0.0065424764  -0.0325124022  -0.0037415643
        0.0037080574  -0.0013541891  -0.0017634799  -0.0004801759  -0.0003103817
        0.0000789447   0.0004379981   0.0011859442  -0.0007229944  -0.0116658926
       -0.0024474726   0.0010429114   0.0009579698  -0.0026502462  -0.0000949505
        0.0000303977  -0.0001613909   0.0000968157  -0.0000194470  -0.0000576624
       -0.0000161497   0.0000678217   0.0000128860   0.0000046746  -0.0000660821
       -0.0000336955   0.0000795369   0.0000271542   0.0001725001  -0.0002377767
       -0.0000586456  -0.0001917160   0.0002589389   0.0000741363  -0.0000524699
        0.0000522431  -0.0000283457   0.0000396034  -0.0000447537  -0.0000089015
       -0.0000141535   0.0000050769   0.0000043619  -0.0000005479  -0.0000005589
       -0.0000043590   0.0000227729  -0.0000019112  -0.0000338069   0.0000231955
       -0.0000379173   0.0000897794   0.0000161011  -0.0000232291   0.0000738253
       -0.0000464045  -0.0000440814   0.0058760109   0.0047094530  -0.0007710251
       -0.0019198746   0.0006318434  -0.0003770820   0.0002314027  -0.0002355218
       -0.0000357842  -0.0033379974  -0.0032536810  -0.0008915116   0.0146841815
       -0.0301508421  -0.0071774518   0.0600219852  -0.1344972579  -0.0227323813
        0.0092385133   0.0025912373  -0.0183827409  -0.0004702610  -0.0004192157
        0.0023494585  -0.0122373768  -0.0075002348   0.0228945152   0.0162042464
       -0.0027514743   0.0149798481  -0.0181466342  -0.0008191368  -0.0179544682
        0.0036122402  -0.0003609615   0.0044036319  -0.0009916093   0.0006365946
        0.0006854234  -0.0004568683  -0.0008927911  -0.0001078670   0.0000707090
        0.0001232911   0.0002182614   0.0001939450   0.0000451271  -0.0000032880
       -0.0000129613   0.0000213990   0.0000189752  -0.0000096411   0.0000054350
       -0.0000162350   0.0000132754   0.0000069165   0.0000169698  -0.0000179059
        0.0000072355  -0.0000116961   0.0000044780   0.0000047483  -0.0000078708
       -0.0000111485  -0.0000054484  -0.0000047452   0.0000053391  -0.0000016272
       -0.0000036224   0.0000092886   0.0000066986   0.0000159180   0.0000063881
        0.0000199463   0.0000146510  -0.0003775969   0.0001928154   0.0001181015
       -0.0000272624   0.0000780508   0.0002306645   0.0006888419  -0.0009486608
       -0.0003063429   0.0009728487   0.0007258917   0.0003718067
        0.0462069773   0.0183696709  -0.1452416347  -0.0065856315   0.0136680499
        0.4200849682  -0.0606028120   0.0028875493  -0.1143073169  -0.0014306987
       -0.0080704787  -0.0538967816  -0.0025958074  -0.0056272587  -0.0008522519
        0.0015737797  -0.0020601421   0.0061874935   0.0000937684  -0.0000227042
       -0.0004428984   0.0016119936  -0.0008321159   0.0054091975   0.0015148528
        0.0030206055   0.0035013147  -0.0012859884  -0.0001519145  -0.0032963223
       -0.0000699517   0.0001724402  -0.0008557811   0.0002632993  -0.0000605221
        0.0001250012  -0.0000302706   0.0000802711  -0.0000976128   0.0000099164
       -0.0000266119  -0.0000340901   0.0000933059  -0.0000547458   0.0000104895
       -0.0000162478   0.0000555865  -0.0000688891  -0.0000653900   0.0000478097
       -0.0000216676   0.0000091474  -0.0000437099   0.0000277638   0.0000122896
        0.0000139746  -0.0000069824  -0.0000065160  -0.0000042646   0.0000003106
       -0.0000034305  -0.0000226950   0.0000021113   0.0000302338   0.0000168388
        0.0000227223  -0.0000798365   0.0000706382  -0.0001613527  -0.0003185048
       -0.0001265394   0.0001628227   0.0062020327  -0.0027785025   0.0017710094
        0.0014684520  -0.0004830620   0.0054863388   0.0001246041  -0.0000293875
       -0.0004415477   0.0004735483  -0.0009286098   0.0065573286   0.0009463433
       -0.0050455264  -0.0013686153   0.0187589256  -0.0215843431  -0.0594596832
        0.0067765561  -0.0001579747  -0.0100120614   0.0072522317   0.0046264298
       -0.0238178772   0.0028171656   0.0025233517  -0.0024977347   0.0006668793
        0.0006669102   0.0023077118  -0.0047379057  -0.0014916519  -0.0035234058
       -0.0178392136   0.0021051408  -0.0233249274  -0.0006017037   0.0004399614
       -0.0027089174  -0.0000916901  -0.0003135729   0.0000837165  -0.0002023457
        0.0002265739  -0.0013803358   0.0001682888   0.0001239138   0.0000774203
        0.0000321310   0.0000052575  -0.0000587306   0.0000335684   0.0000238576
        0.0000225549  -0.0000118898  -0.0000054046  -0.0000154236   0.0000176685
       -0.0000062869   0.0000168672  -0.0000091430  -0.0000047957   0.0000084056
        0.0000122943   0.0000082666   0.0000037322  -0.0000198175  -0.0000038020
        0.0000073307  -0.0000484268   0.0000164350   0.0000055538  -0.0000188869
        0.0000102639  -0.0000508042   0.0000445748  -0.0001387820   0.0000429203
       -0.0002820978   0.0002670290  -0.0013646594   0.0000779279  -0.0000493651
        0.0000952981  -0.0003385499   0.0006779444  -0.0027120782
        0.0050872077  -0.0004573888   0.0048847416  -0.1095329013   0.0052912934
       -0.0606028120   0.4823977478   0.0028378101  -0.0447034614  -0.0165092423
       -0.0104442936  -0.0124155979  -0.0008442658   0.0019053331  -0.0003544389
       -0.0005718721  -0.0005755071   0.0005957912   0.0001939590  -0.0000875754
        0.0000426868  -0.0004918535  -0.0003281159   0.0006663015   0.0004712170
       -0.0018562987  -0.0010753801  -0.0004473655  -0.0002085682  -0.0000752539
        0.0003280392   0.0000330948  -0.0000266481  -0.0000015526  -0.0000067505
       -0.0000404527   0.0000211711  -0.0000142824   0.0000036712   0.0000028929
        0.0000193909  -0.0000014664   0.0000555913   0.0001848884  -0.0002462794
       -0.0000734705  -0.0001906979   0.0002746575   0.0000230536  -0.0000326430
        0.0000146908  -0.0000319387   0.0000033407  -0.0000000304  -0.0000163028
       -0.0000121806  -0.0000073254  -0.0000096494   0.0000002482  -0.0000103488
        0.0000045096   0.0000223611  -0.0000069049   0.0000087297   0.0000205185
       -0.0000091836   0.0000186898  -0.0000202829   0.0000432748   0.0000288025
        0.0000265704  -0.0000034053   0.0000834948   0.0028543578  -0.0004350532
       -0.0005712282  -0.0000021126   0.0009317173   0.0000572738   0.0000529734
        0.0000719831  -0.0005232812   0.0000368966   0.0008081581  -0.0006366322
       -0.0014991267  -0.0010016486  -0.0224244767   0.0113926884  -0.0115080028
        0.0006741860  -0.0001401988   0.0005688653  -0.0001647482  -0.0004566843
        0.0023638674   0.0005735434   0.0000439076   0.0005154881  -0.1447005621
        0.1157844701   0.0333155575  -0.1015289711  -0.1045319059  -0.0060540881
       -0.0902406035  -0.0199129186   0.0941641629  -0.0001025684   0.0004460501
       -0.0000440064  -0.0000138880   0.0000101649  -0.0000465481  -0.0000245005
        0.0000139183  -0.0001091597  -0.0000878396  -0.0001153143  -0.0000453661
       -0.0000232541   0.0000084213  -0.0000088410  -0.0000368731  -0.0000107912
       -0.0000065714  -0.0000003025   0.0000076515   0.0000094441  -0.0000083358
        0.0000059076  -0.0000083059   0.0000121941   0.0000028787   0.0000000906
       -0.0000057655  -0.0000187208   0.0000034751   0.0000091790   0.0000048573
       -0.0000085333  -0.0000073958  -0.0000048516   0.0000132495   0.0000156220
       -0.0000169846   0.0000509450  -0.0001368885   0.0001216067   0.0000305927
       -0.0000475568   0.0000234533  -0.0001351467  -0.0000144596   0.0000023131
       -0.0000555675  -0.0002365584  -0.0002131718  -0.0003275841
        0.0031081514   0.0008671173   0.0054673285   0.0039313509  -0.0616264469
        0.0028875493   0.0028378101   0.5282335540   0.0049864232  -0.0194549657
       -0.0026939629  -0.0157117118  -0.0004746887  -0.0014525643  -0.0006695238
        0.0002952582   0.0007301371   0.0007197236  -0.0005064766  -0.0000533570
        0.0000651480  -0.0005276743  -0.0003830591   0.0009402976  -0.0003004631
       -0.0035962256  -0.0010785469  -0.0000505226   0.0014238224   0.0002464831
       -0.0000544367   0.0000133361  -0.0000237229   0.0000160100   0.0000590440
       -0.0000017580  -0.0000115070   0.0000305452  -0.0000095819   0.0000056865
       -0.0000157708  -0.0000180871   0.0000083911  -0.0000597192   0.0000349639
       -0.0000013664   0.0000487304  -0.0000460947   0.0000068042   0.0000043177
        0.0000131636  -0.0000011619   0.0000014708   0.0000020282   0.0000079777
       -0.0000019729   0.0000035043  -0.0000015245   0.0000028477  -0.0000021983
        0.0000047773  -0.0000037517   0.0000030664  -0.0000096729  -0.0000003062
       -0.0000002465  -0.0000218116   0.0000179471   0.0000184674   0.0000089717
       -0.0000221409   0.0000265917   0.0005643306  -0.0031335575   0.0001159983
        0.0004252766  -0.0000020076  -0.0008920788   0.0005103142   0.0000988512
       -0.0000736311  -0.0004519776   0.0008545449  -0.0003133325   0.0006534928
       -0.0014869467  -0.0000176404   0.0179241038  -0.0032581559   0.0123018292
       -0.0002134621   0.0001565006  -0.0005145525  -0.0003171706   0.0002612961
        0.0013004548   0.0006011197   0.0002198522   0.0003512875   0.1158399015
       -0.1738107708  -0.0359691790  -0.1047381492  -0.2261185674  -0.0129023339
       -0.0198439987  -0.0531067432   0.0392083431  -0.0008598596  -0.0008102341
       -0.0010621540   0.0000007616   0.0000138023  -0.0000435245  -0.0000620515
        0.0000331107  -0.0001516748  -0.0000913700  -0.0002231010   0.0000030499
        0.0000026859  -0.0000291326  -0.0000121962   0.0000022541  -0.0000066778
       -0.0000014894   0.0000003145  -0.0000004059  -0.0000004516  -0.0000005397
        0.0000000586  -0.0000006837  -0.0000005765   0.0000015035  -0.0000004220
       -0.0000013927   0.0000023165  -0.0000025894  -0.0000009370   0.0000013941
       -0.0000001783  -0.0000013442   0.0000020770  -0.0000002960  -0.0000015579
       -0.0000143327  -0.0000090272   0.0001139388  -0.0001483513  -0.0000859518
        0.0000642636  -0.0000073602   0.0001275410  -0.0000024185  -0.0000086464
        0.0000444980   0.0010691310  -0.0010039085   0.0007471185
       -0.0167085982   0.0033734663  -0.0287886412  -0.0521077115   0.0036366963
       -0.1143073169  -0.0447034614   0.0049864232   0.4723387686  -0.0069976385
       -0.0055312656  -0.0030780731  -0.0000426028   0.0007422752   0.0003248323
       -0.0003409704  -0.0001320456   0.0001669681  -0.0000239881  -0.0000597058
        0.0000625046  -0.0001094357  -0.0002644201   0.0001816344   0.0007941125
        0.0000854696  -0.0009720880  -0.0003083845   0.0002248717  -0.0000835054
        0.0001539651  -0.0000501660   0.0002546410  -0.0000021220   0.0000035631
       -0.0000366679  -0.0000446296  -0.0000358266   0.0000345214   0.0000874843
        0.0000565766  -0.0000865270   0.0000750835   0.0001347430  -0.0001819684
       -0.0000975925  -0.0001624383   0.0002398609  -0.0000399652   0.0000174348
       -0.0000429151  -0.0000212240  -0.0000383748   0.0000382394  -0.0000163627
        0.0000123714  -0.0000226655  -0.0000021913  -0.0000039650   0.0000014039
       -0.0000156829   0.0000189824  -0.0000305518   0.0000504359   0.0000143712
        0.0000139394  -0.0000657073  -0.0000366177   0.0001022953   0.0001642832
        0.0000486391  -0.0000351498   0.0010065483  -0.0007330846  -0.0009570070
        0.0000027538   0.0001722047  -0.0000626182   0.0001401248   0.0000581029
        0.0000514425  -0.0005022341   0.0002844989   0.0000713824   0.0003387613
       -0.0013073330   0.0000925698  -0.0017826044   0.0036760325   0.0031137485
       -0.0010022585   0.0001041194   0.0009576534   0.0015053149   0.0012182838
       -0.0059849702  -0.0008017607  -0.0005499150   0.0009878271   0.0339073570
       -0.0363340302  -0.0527807726  -0.0055982335  -0.0124491176  -0.0436409690
        0.0936813028   0.0391710825  -0.2275354513  -0.0003995638  -0.0002469788
       -0.0003124474  -0.0000099307  -0.0000066415  -0.0000481508  -0.0000224065
       -0.0000012874  -0.0000286981  -0.0000216705  -0.0000262921  -0.0000105188
       -0.0000147587   0.0000261351  -0.0000424557  -0.0000295964  -0.0000065561
       -0.0000011914  -0.0000051725   0.0000065068  -0.0000035693   0.0000145439
       -0.0000005345   0.0000049875   0.0000107186  -0.0000022760   0.0000107742
        0.0000034081  -0.0000183750   0.0000119459  -0.0000069328   0.0000014187
       -0.0000049101   0.0000045000  -0.0000041518  -0.0000017750  -0.0000064026
       -0.0000085778   0.0000210577   0.0000274350  -0.0000197416  -0.0000239647
       -0.0000040008   0.0000033871   0.0000206520  -0.0000145119   0.0000196431
       -0.0000286172  -0.0000978261  -0.0000675808   0.0000305066
       -0.0101627082  -0.0152067960   0.0055458181  -0.0906349223  -0.0531973904
       -0.0014306987  -0.0165092423  -0.0194549657  -0.0069976385   0.6132927768
       -0.0146919035  -0.0792658113  -0.1549134218   0.0631805017   0.0268249979
        0.0507791589   0.0351692168  -0.0025939568  -0.0411780775   0.0216611913
        0.0091978545  -0.0219115403  -0.0635705462  -0.0063593853  -0.2668269063
       -0.0110728438   0.0342833341  -0.0423426887   0.0307719711   0.0119580690
        0.0015947444   0.0023126604   0.0005463906  -0.0004631662   0.0000857610
       -0.0007336732  -0.0006679415  -0.0004521043   0.0000189372   0.0012742441
        0.0006290719  -0.0010699669   0.0001071952   0.0003573623  -0.0003025542
       -0.0002762226  -0.0002902423   0.0004545035  -0.0003578895   0.0002355932
       -0.0003004994  -0.0001658708  -0.0004637159   0.0003527583   0.0000746794
        0.0001282207  -0.0000099255  -0.0000799751  -0.0000042545   0.0000088834
       -0.0000399733  -0.0001096038  -0.0001391461   0.0004678645   0.0001710879
        0.0001117891  -0.0009944564  -0.0005908354   0.0008368752   0.0001158630
       -0.0000992707   0.0003633576  -0.0026372358  -0.0085600777  -0.0012500462
       -0.0004024422   0.0023624222   0.0004243524  -0.0015390598  -0.0013223824
        0.0001873595   0.0014634822   0.0009975507  -0.0000491047  -0.0023911503
        0.0027612478   0.0010465203   0.0108855370   0.0115864129  -0.0001474525
       -0.0004928717   0.0000230146  -0.0003642896   0.0007705628   0.0002632120
       -0.0004478229  -0.0012174570  -0.0012893423   0.0026330943  -0.0002185869
       -0.0001224216   0.0007153811  -0.0033363778  -0.0007788643  -0.0034209430
        0.0007875795  -0.0001242388   0.0002727702  -0.0201402260   0.0229901068
        0.0070817818  -0.0001823644  -0.0030114528   0.0008217137  -0.0002672305
        0.0003816011   0.0000672862  -0.0004901926  -0.0021881628   0.0006768617
       -0.0001580762   0.0001407685   0.0000370584  -0.0002406158   0.0000278462
        0.0002130140  -0.0000856976  -0.0000349341  -0.0001826088   0.0002455815
       -0.0000955740   0.0001406553  -0.0000593225  -0.0000688904   0.0001108472
        0.0001228245   0.0000476207   0.0001012587  -0.0001547316  -0.0000590532
        0.0000517850  -0.0000740327   0.0000430872  -0.0001582501   0.0000043122
        0.0001602983   0.0000576852  -0.0000322158   0.0002441264   0.0000287980
        0.0000438516   0.0000710263   0.0000166503  -0.0001671854   0.0002473455
        0.0000644317  -0.0002181824  -0.0001904586  -0.0000290993
       -0.0118574142  -0.0103588618   0.0083807826  -0.0476367491  -0.1610615476
       -0.0080704787  -0.0104442936  -0.0026939629  -0.0055312656  -0.0146919035
        0.6011367615   0.0718218774   0.1323681679  -0.2385157100  -0.0508939106
       -0.0225115247  -0.0684728038  -0.0071935735   0.0279372209  -0.0083299814
       -0.0049775574  -0.0276024576   0.0145030171   0.0066241066  -0.0569439953
       -0.0846193434   0.0036343452   0.0333764284  -0.0051388051  -0.0066028206
        0.0012648907  -0.0036272975  -0.0011576416   0.0005302918   0.0000722558
       -0.0000134442  -0.0000678651   0.0002048920   0.0000771632   0.0001967195
        0.0000690461  -0.0002202643   0.0001657245  -0.0006271833   0.0007920401
        0.0000987605   0.0005628542  -0.0007120399  -0.0005068322   0.0003281777
       -0.0004154809   0.0001922407  -0.0001893197   0.0002291643  -0.0000238409
        0.0001462850  -0.0001206061   0.0000406741  -0.0000438043   0.0000653378
       -0.0001017630  -0.0000337141  -0.0000829613   0.0002146598  -0.0001206074
        0.0002292370  -0.0000593953   0.0002462426   0.0001355276   0.0005124564
        0.0000455375  -0.0001644372  -0.0005256408   0.0042751524   0.0009140182
       -0.0002370933  -0.0003937192  -0.0000450675  -0.0003096339   0.0003312572
        0.0001159969  -0.0005007811  -0.0010939619  -0.0000856345   0.0026835817
       -0.0025663364  -0.0010330207  -0.0037620618  -0.0273482281  -0.0033850855
        0.0006012406   0.0004777365  -0.0003779704   0.0001797678   0.0001401863
       -0.0004241484  -0.0006139119  -0.0008015322   0.0009504763   0.0005918661
        0.0004165166   0.0000864131   0.0002115814  -0.0002786941   0.0000275647
        0.0004418647   0.0002536515   0.0003173236   0.0018786533   0.0014304753
       -0.0003826924  -0.0026835680  -0.0042068621  -0.0013480907   0.0007236266
        0.0004557544   0.0000283110  -0.0028507286  -0.0045656983  -0.0014176633
       -0.0000663170  -0.0001245415   0.0000031502   0.0000965982   0.0000538251
        0.0000490500  -0.0000426124  -0.0000173048  -0.0000667516   0.0000937846
       -0.0000260796   0.0000595322  -0.0000022869  -0.0000238513   0.0000454922
        0.0000507129  -0.0000139794   0.0000366088  -0.0000529041   0.0000014952
        0.0000045078   0.0000479630   0.0000165462  -0.0000239625  -0.0000752940
       -0.0000807584  -0.0000360821  -0.0002715100   0.0002984081   0.0001192516
       -0.0000215564   0.0000728317   0.0000222571   0.0001128417  -0.0001675398
       -0.0000182631  -0.0001483828   0.0000031233   0.0000313795
        0.0126857215   0.0205448923  -0.0020106061  -0.0008311692  -0.0071978716
       -0.0538967816  -0.0124155979  -0.0157117118  -0.0030780731  -0.0792658113
        0.0718218774   0.1696693951   0.0378780981  -0.0399542024  -0.0589545244
       -0.0115120472  -0.0162109012  -0.0004291522   0.0101133878  -0.0041025945
       -0.0063800702  -0.0007485900   0.0121229132   0.0020718763   0.0269853392
       -0.0032693992  -0.0549449440   0.0126902393  -0.0060782685  -0.0018594619
        0.0001637889  -0.0017047845   0.0031723002  -0.0004322926   0.0002776558
       -0.0000659091  -0.0000668999  -0.0000049207   0.0002074820  -0.0000546625
       -0.0000479281   0.0000416792  -0.0000548106  -0.0001125170   0.0000954973
       -0.0000107368   0.0000439978  -0.0000541898   0.0000711050  -0.0000179693
        0.0000294453   0.0000081195   0.0000546859  -0.0000287432  -0.0000095139
       -0.0000115256  -0.0000013262   0.0000160493   0.0000031317   0.0000037175
        0.0000010773   0.0000228718  -0.0000072520  -0.0000534833  -0.0000323910
       -0.0000242767   0.0001510134  -0.0000085564   0.0003285883   0.0010132098
        0.0000099523  -0.0003398843   0.0001686025   0.0022151878  -0.0006958161
        0.0000487186  -0.0004560224  -0.0000377522   0.0002374362   0.0002389055
        0.0001276663  -0.0002798939  -0.0003614344   0.0001334436   0.0009943573
       -0.0010495384   0.0008477019  -0.0024059498  -0.0060670270  -0.0005563586
        0.0000467550   0.0000390245   0.0007104598   0.0003617957   0.0007425465