      -----------------------------------------------------------      
     |                   =====================                   |     
     |                           x T B                           |     
     |                   =====================                   |     
     |                         S. Grimme                         |     
     |          Mulliken Center for Theoretical Chemistry        |     
     |                    University of Bonn                     |     
      -----------------------------------------------------------      

   * xtb version 6.7.1 (edcfbbe) compiled by 'albert@albert-system' on 2024-07-22

   xtb is free software: you can redistribute it and/or modify it under
   the terms of the GNU Lesser General Public License as published by
   the Free Software Foundation, either version 3 of the License, or
   (at your option) any later version.
   
   xtb is distributed in the hope that it will be useful,
   but WITHOUT ANY WARRANTY; without even the implied warranty of
   MERCHANTABILITY or FITNESS FOR A PARTICULAR PURPOSE.  See the
   GNU Lesser General Public License for more details.
   
   Cite this work as:
   * C. Bannwarth, E. Caldeweyher, S. Ehlert, A. Hansen, P. Pracht,
     J. Seibert, S. Spicher, S. Grimme, WIREs Comput. Mol. Sci., 2020, 11,
     e01493. DOI: 10.1002/wcms.1493
   
   for GFN2-xTB:
   * C. Bannwarth, S. Ehlert and S. Grimme., J. Chem. Theory Comput., 2019,
     15, 1652-1671. DOI: 10.1021/acs.jctc.8b01176
   for GFN1-xTB:
   * S. Grimme, C. Bannwarth, P. Shushkov, J. Chem. Theory Comput., 2017,
     13, 1989-2009. DOI: 10.1021/acs.jctc.7b00118
   for GFN0-xTB:
   * P. Pracht, E. Caldeweyher, S. Ehlert, S. Grimme, ChemRxiv, 2019, preprint.
     DOI: 10.26434/chemrxiv.8326202.v1
   for GFN-FF:
   * S. Spicher and S. Grimme, Angew. Chem. Int. Ed., 2020, 59, 15665-15673.
     DOI: 10.1002/anie.202004239
   
   for ALPB and GBSA implicit solvation:
   * S. Ehlert, M. Stahn, S. Spicher, S. Grimme, J. Chem. Theory Comput.,
     2021, 17, 4250-4261. DOI: 10.1021/acs.jctc.1c00471
   
   for ddCOSMO and CPCM-X implicit solvation:
   * M. Stahn, S. Ehlert, S. Grimme, J. Phys. Chem. A,
     2023, XX, XXXX-XXXX. DOI: 10.1021/acs.jpca.3c04382
   
   for DFT-D4:
   * E. Caldeweyher, C. Bannwarth and S. Grimme, J. Chem. Phys., 2017,
     147, 034112. DOI: 10.1063/1.4993215
   * E. Caldeweyher, S. Ehlert, A. Hansen, H. Neugebauer, S. Spicher,
     C. Bannwarth and S. Grimme, J. Chem. Phys., 2019, 150, 154122.
     DOI: 10.1063/1.5090222
   * E. Caldeweyher, J.-M. Mewes, S. Ehlert and S. Grimme, Phys. Chem. Chem. Phys.
     2020, 22, 8499-8512. DOI: 10.1039/D0CP00502A
   
   for sTDA-xTB:
   * S. Grimme and C. Bannwarth, J. Chem. Phys., 2016, 145, 054103.
     DOI: 10.1063/1.4959605
   
   in the mass-spec context:
   * V. Asgeirsson, C. Bauer and S. Grimme, Chem. Sci., 2017, 8, 4879.
     DOI: 10.1039/c7sc00601b
   * J. Koopman and S. Grimme, ACS Omega 2019, 4, 12, 15120-15133.
     DOI: 10.1021/acsomega.9b02011
   
   for metadynamics refer to:
   * S. Grimme, J. Chem. Theory Comput., 2019, 155, 2847-2862
     DOI: 10.1021/acs.jctc.9b00143
   
   for SPH calculations refer to:
   * S. Spicher and S. Grimme, J. Chem. Theory Comput., 2021, 17, 1701-1714
     DOI: 10.1021/acs.jctc.0c01306
   
   for ONIOM refer to:
   * C. Plett, A. Katbashev, S. Ehlert, S. Grimme, M. Bursch,
     Phys. Chem. Chem. Phys., 2023, 25, 17860-17868. DOI: 10.1039/D3CP02178E
   
   for DIPRO refer to:
   * J. Kohn, N. Gildemeister, S. Grimme, D. Fazzi, A. Hansen,
     J. Chem. Phys., 2023, just accepted.
   
   for PTB refer to:
   * S. Grimme, M. Mueller, A. Hansen, J. Chem. Phys., 2023, 158, 124111.
     DOI: 10.1063/5.0137838
   
   with help from (in alphabetical order)
   P. Atkinson, C. Bannwarth, F. Bohle, G. Brandenburg, E. Caldeweyher
   M. Checinski, S. Dohm, S. Ehlert, S. Ehrlich, I. Gerasimov, C. Hölzer
   A. Katbashev, J. Kohn, J. Koopman, C. Lavigne, S. Lehtola, F. März, M. Müller,
   F. Musil, H. Neugebauer, J. Pisarek, C. Plett, P. Pracht, F. Pultar,
   J. Seibert, P. Shushkov, S. Spicher, M. Stahn, M. Steiner, T. Strunk,
   J. Stückrath, T. Rose, and J. Unsleber
   
 * started run on 2025/07/17 at 02:45:02.244     
   ID    Z sym.   atoms
    1    6 C      1-9, 11-15, 17-21, 23-39, 41-45, 47-63, 65-72
    2    7 N      10, 16, 22, 40, 46, 64
    3    1 H      73-126

           -------------------------------------------------
          |                Calculation Setup                |
           -------------------------------------------------

          program call               : xtb data2507/toluene/BmPyPhB/BmPyPhB.xyz --gfn 2 --gbsa toluene --ohess vtight --parallel 40 --molden --ceasefiles --namespace data2507/toluene/BmPyPhB/BmPyPhB_toluene_S0_preOpt
          calculation namespace      : data2507/toluene/BmPyPhB/BmPyPhB_toluene_S0_preOpt
          coordinate file            : data2507/toluene/BmPyPhB/BmPyPhB.xyz
          omp threads                :                    40


           -------------------------------------------------
          |                 G F N 2 - x T B                 |
           -------------------------------------------------

        Reference                      10.1021/acs.jctc.8b01176
      * Hamiltonian:
        H0-scaling (s, p, d)           1.850000    2.230000    2.230000
        zeta-weighting                 0.500000
      * Dispersion:
        s8                             2.700000
        a1                             0.520000
        a2                             5.000000
        s9                             5.000000
      * Repulsion:
        kExp                           1.500000    1.000000
        rExp                           1.000000
      * Coulomb:
        alpha                          2.000000
        third order                    shell-resolved
        anisotropic                    true
        a3                             3.000000
        a5                             4.000000
        cn-shift                       1.200000
        cn-exp                         4.000000
        max-rad                        5.000000

      * Solvation model:               GBSA
        Solvent                        toluene
        Parameter file                 internal GFN2-xTB/GBSA
        Dielectric constant                7.0000E+00
        Reference state                gsolv [1 M gas/solution]
        Free energy shift                  4.5239E-03 Eh       2.8388E+00 kcal/mol
        Temperature                        2.9815E+02 K
        Density                            8.6700E-01 kg/L
        Solvent mass                       9.2140E+01 g/mol
        Interaction kernel             Still
        Born radius scaling (c1)           1.5686E+00
        Born radii integrator          GBOBC
        Born offset                        0.0000E+00 a0       0.0000E+00 AA
        H-bond correction              false
        Ion screening                  false
        Surface tension                    1.0000E-05 Eh       1.5569E+01 dyn/cm
        Grid points                               230 per atom

          ...................................................
          :                      SETUP                      :
          :.................................................:
          :  # basis functions                 342          :
          :  # atomic orbitals                 342          :
          :  # shells                          198          :
          :  # electrons                       348          :
          :  max. iterations                   250          :
          :  Hamiltonian                  GFN2-xTB          :
          :  restarted?                      false          :
          :  GBSA solvation                   true          :
          :  PC potential                    false          :
          :  electronic temp.          300.0000000     K    :
          :  accuracy                    1.0000000          :
          :  -> integral cutoff          0.2500000E+02      :
          :  -> integral neglect         0.1000000E-07      :
          :  -> SCF convergence          0.1000000E-05 Eh   :
          :  -> wf. convergence          0.1000000E-03 e    :
          :  Broyden damping             0.4000000          :
          :  net charge                          0          :
          :  unpaired electrons                  0          :
          ...................................................

 iter      E             dE          RMSdq      gap      omega  full diag
   1   -189.5089714 -0.189509E+03  0.425E+00    1.49       0.0  T
   2   -189.6042775 -0.953061E-01  0.258E+00    1.62       1.0  T
   3   -189.5245860  0.796915E-01  0.112E+00    1.04       1.0  T
   4   -189.6313241 -0.106738E+00  0.239E-01    1.25       1.0  T
   5   -189.6345814 -0.325732E-02  0.833E-02    1.27       1.0  T
   6   -189.6350161 -0.434675E-03  0.346E-02    1.27       1.0  T
   7   -189.6350759 -0.598143E-04  0.152E-02    1.28       1.0  T
   8   -189.6350772 -0.131860E-05  0.507E-03    1.28       1.8  T
   9   -189.6350789 -0.171766E-05  0.159E-03    1.28       5.6  T
  10   -189.6350791 -0.209189E-06  0.708E-04    1.28      12.6  T
  11   -189.6350791 -0.188997E-07  0.422E-04    1.28      21.1  T

   *** convergence criteria satisfied after 11 iterations ***

         #    Occupation            Energy/Eh            Energy/eV
      -------------------------------------------------------------
         1        2.0000           -0.6979969             -18.9935
       ...           ...                  ...                  ...
       168        2.0000           -0.3901078             -10.6154
       169        2.0000           -0.3900933             -10.6150
       170        2.0000           -0.3886393             -10.5754
       171        2.0000           -0.3885664             -10.5734
       172        2.0000           -0.3492087              -9.5025
       173        2.0000           -0.3491600              -9.5011
       174        2.0000           -0.3490915              -9.4993 (HOMO)
       175                         -0.3019754              -8.2172 (LUMO)
       176                         -0.3019395              -8.2162
       177                         -0.2614432              -7.1142
       178                         -0.2471841              -6.7262
       179                         -0.2471405              -6.7250
       ...                                ...                  ...
       342                          0.6502963              17.6955
      -------------------------------------------------------------
                  HL-Gap            0.0471162 Eh            1.2821 eV
             Fermi-level           -0.3253640 Eh           -8.8536 eV

 SCC (total)                   0 d,  0 h,  0 min,  0.273 sec
 SCC setup                      ...        0 min,  0.004 sec (  1.313%)
 Dispersion                     ...        0 min,  0.007 sec (  2.735%)
 classical contributions        ...        0 min,  0.000 sec (  0.058%)
 integral evaluation            ...        0 min,  0.015 sec (  5.524%)
 iterations                     ...        0 min,  0.220 sec ( 80.733%)
 molecular gradient             ...        0 min,  0.024 sec (  8.813%)
 printout                       ...        0 min,  0.002 sec (  0.792%)

         :::::::::::::::::::::::::::::::::::::::::::::::::::::
         ::                     SUMMARY                     ::
         :::::::::::::::::::::::::::::::::::::::::::::::::::::
         :: total energy            -186.571522960920 Eh    ::
         :: total w/o Gsasa/hb      -186.499123637651 Eh    ::
         :: gradient norm              0.097743741847 Eh/a0 ::
         :: HOMO-LUMO gap              1.282095709480 eV    ::
         ::.................................................::
         :: SCC energy              -189.635232973699 Eh    ::
         :: -> isotropic ES            0.058641819187 Eh    ::
         :: -> anisotropic ES          0.025271330128 Eh    ::
         :: -> anisotropic XC          0.121461007303 Eh    ::
         :: -> dispersion             -0.172955732168 Eh    ::
         :: -> Gsolv                  -0.078050693576 Eh    ::
         ::    -> Gelec               -0.005651370306 Eh    ::
         ::    -> Gsasa               -0.076923203141 Eh    ::
         ::    -> Ghb                  0.000000000000 Eh    ::
         ::    -> Gshift               0.004523879872 Eh    ::
         :: repulsion energy           3.063710012779 Eh    ::
         :: add. restraining           0.000000000000 Eh    ::
         :: total charge               0.000000000029 e     ::
         :::::::::::::::::::::::::::::::::::::::::::::::::::::

      ----------------------------------------------------------- 
     |                   =====================                   |
     |                        A N C O P T                        |
     |                   =====================                   |
     |               Approximate Normal Coordinate               |
     |                Rational Function Optimizer                |
      ----------------------------------------------------------- 

Optimization log is written to '/dev/null'
      ----------------------------------------------------------- 
     |                   =====================                   |
     |                        A N C O P T                        |
     |                   =====================                   |
     |               Approximate Normal Coordinate               |
     |                Rational Function Optimizer                |
      ----------------------------------------------------------- 

          ...................................................
          :                      SETUP                      :
          :.................................................:
          :   optimization level         verytight          :
          :   max. optcycles                  2520          :
          :   ANC micro-cycles                  20          :
          :   degrees of freedom               372          :
          :.................................................:
          :   RF solver                   davidson          :
          :   write xtbopt.log                true          :
          :   linear?                        false          :
          :   energy convergence         0.1000000E-06 Eh   :
          :   grad. convergence          0.2000000E-03 Eh/α :
          :   maxmium RF displ.          1.0000000          :
          :   Hlow (freq-cutoff)         0.1000000E-01      :
          :   Hmax (freq-cutoff)         5.0000000          :
          :   S6 in model hess.         20.0000000          :
          ...................................................

generating ANC from exact Hessian ...
Using Lindh-Hessian (1995)
 Shifting diagonal of input Hessian by   9.964522797940053E-003
 Lowest  eigenvalues of input Hessian
    0.000000    0.000000    0.000000    0.000000    0.000000    0.000000
    0.010000    0.010000    0.010011    0.010012    0.010031    0.010032
    0.010171    0.010173    0.010259    0.010405    0.010406    0.011081
 Highest eigenvalues
    2.015400    2.015623    2.022824    2.156660    2.176146    2.176454
 

........................................................................
.............................. CYCLE    1 ..............................
........................................................................

 iter      E             dE          RMSdq      gap      omega  full diag
   1   -189.6350792 -0.189635E+03  0.179E-04    1.28       0.0  T
   2   -189.6350792 -0.566217E-09  0.125E-04    1.28      71.3  T
   3   -189.6350792 -0.136566E-09  0.916E-05    1.28      97.3  T
     SCC iter.                  ...        0 min,  0.062 sec
     gradient                   ...        0 min,  0.024 sec
 * total energy  :  -186.5715230 Eh     change       -0.6009401E-08 Eh
   gradient norm :     0.0977455 Eh/α   predicted     0.0000000E+00 (-100.00%)
   displ. norm   :     0.5414244 α      lambda       -0.3286836E-01
   maximum displ.:     0.3790120 α      in ANC's #87, #78, #93, ...

........................................................................
.............................. CYCLE    2 ..............................
........................................................................

 iter      E             dE          RMSdq      gap      omega  full diag
   1   -189.7859665 -0.189786E+03  0.168E-01    1.23       0.0  T
   2   -189.7863366 -0.370126E-03  0.107E-01    1.27       1.0  T
   3   -189.7862814  0.552258E-04  0.588E-02    1.25       1.0  T
   4   -189.7864970 -0.215582E-03  0.116E-02    1.26       1.0  T
   5   -189.7865084 -0.114608E-04  0.360E-03    1.25       2.5  T
   6   -189.7865094 -0.100510E-05  0.158E-03    1.25       5.6  T
   7   -189.7865095 -0.536402E-07  0.484E-04    1.25      18.4  T
   8   -189.7865095 -0.848968E-08  0.197E-04    1.25      45.1  T
     SCC iter.                  ...        0 min,  0.156 sec
     gradient                   ...        0 min,  0.023 sec
 * total energy  :  -186.5961215 Eh     change       -0.2459855E-01 Eh
   gradient norm :     0.0457710 Eh/α   predicted    -0.2125452E-01 ( -13.59%)
   displ. norm   :     0.5236941 α      lambda       -0.1452618E-01
   maximum displ.:     0.3475228 α      in ANC's #87, #78, #19, ...

........................................................................
.............................. CYCLE    3 ..............................
........................................................................

 iter      E             dE          RMSdq      gap      omega  full diag
   1   -189.8879628 -0.189888E+03  0.135E-01    1.20       0.0  T
   2   -189.8883735 -0.410701E-03  0.909E-02    1.23       1.0  T
   3   -189.8884588 -0.852225E-04  0.491E-02    1.22       1.0  T
   4   -189.8885453 -0.864968E-04  0.138E-02    1.22       1.0  T
   5   -189.8885596 -0.143433E-04  0.346E-03    1.22       2.6  T
   6   -189.8885607 -0.113101E-05  0.131E-03    1.22       6.8  T
   7   -189.8885608 -0.357602E-07  0.387E-04    1.22      23.0  T
   8   -189.8885608 -0.399072E-08  0.171E-04    1.22      52.2  T
     SCC iter.                  ...        0 min,  0.154 sec
     gradient                   ...        0 min,  0.023 sec
 * total energy  :  -186.6054013 Eh     change       -0.9279763E-02 Eh
   gradient norm :     0.0130352 Eh/α   predicted    -0.9255432E-02 (  -0.26%)
   displ. norm   :     0.4148769 α      lambda       -0.3175229E-02
   maximum displ.:     0.3322030 α      in ANC's #19, #87, #78, ...

........................................................................
.............................. CYCLE    4 ..............................
........................................................................

 iter      E             dE          RMSdq      gap      omega  full diag
   1   -189.9162515 -0.189916E+03  0.597E-02    1.20       0.0  T
   2   -189.9163145 -0.630679E-04  0.406E-02    1.21       1.0  T
   3   -189.9163198 -0.527577E-05  0.214E-02    1.21       1.0  T
   4   -189.9163432 -0.233897E-04  0.542E-03    1.21       1.6  T
   5   -189.9163457 -0.253696E-05  0.132E-03    1.21       6.7  T
   6   -189.9163459 -0.146908E-06  0.535E-04    1.21      16.7  T
   7   -189.9163459 -0.623481E-08  0.161E-04    1.21      55.3  T
     SCC iter.                  ...        0 min,  0.131 sec
     gradient                   ...        0 min,  0.023 sec
 * total energy  :  -186.6077617 Eh     change       -0.2360386E-02 Eh
   gradient norm :     0.0102427 Eh/α   predicted    -0.1860927E-02 ( -21.16%)
   displ. norm   :     0.4618838 α      lambda       -0.2035094E-02
   maximum displ.:     0.4144076 α      in ANC's #19, #34, #18, ...

........................................................................
.............................. CYCLE    5 ..............................
........................................................................

 iter      E             dE          RMSdq      gap      omega  full diag
   1   -189.9270705 -0.189927E+03  0.442E-02    1.20       0.0  T
   2   -189.9270824 -0.118638E-04  0.277E-02    1.21       1.0  T
   3   -189.9270676  0.148046E-04  0.137E-02    1.20       1.0  T
   4   -189.9270882 -0.205825E-04  0.221E-03    1.21       4.0  T
   5   -189.9270887 -0.546423E-06  0.682E-04    1.20      13.1  T
   6   -189.9270887 -0.210788E-07  0.332E-04    1.20      26.8  T
     SCC iter.                  ...        0 min,  0.112 sec
     gradient                   ...        0 min,  0.023 sec
 * total energy  :  -186.6094156 Eh     change       -0.1653910E-02 Eh
   gradient norm :     0.0071370 Eh/α   predicted    -0.1234638E-02 ( -25.35%)
   displ. norm   :     0.3755630 α      lambda       -0.1254221E-02
   maximum displ.:     0.3406874 α      in ANC's #19, #18, #34, ...

........................................................................
.............................. CYCLE    6 ..............................
........................................................................

 iter      E             dE          RMSdq      gap      omega  full diag
   1   -189.9291564 -0.189929E+03  0.313E-02    1.21       0.0  T
   2   -189.9291578 -0.144341E-05  0.184E-02    1.21       1.0  T
   3   -189.9291548  0.305330E-05  0.552E-03    1.21       1.6  T
   4   -189.9291585 -0.370767E-05  0.913E-04    1.21       9.8  T
   5   -189.9291585 -0.691584E-07  0.421E-04    1.21      21.2  T
   6   -189.9291585 -0.329862E-08  0.139E-04    1.21      63.9  T
     SCC iter.                  ...        0 min,  0.112 sec
     gradient                   ...        0 min,  0.024 sec
 * total energy  :  -186.6104929 Eh     change       -0.1077331E-02 Eh
   gradient norm :     0.0050242 Eh/α   predicted    -0.7155817E-03 ( -33.58%)
   displ. norm   :     0.3213547 α      lambda       -0.8584668E-03
   maximum displ.:     0.2883212 α      in ANC's #19, #18, #17, ...

........................................................................
.............................. CYCLE    7 ..............................
........................................................................

 iter      E             dE          RMSdq      gap      omega  full diag
   1   -189.9311934 -0.189931E+03  0.267E-02    1.21       0.0  T
   2   -189.9311941 -0.712297E-06  0.156E-02    1.21       1.0  T
   3   -189.9311932  0.937065E-06  0.313E-03    1.21       2.8  T
   4   -189.9311944 -0.119028E-05  0.683E-04    1.21      13.1  T
   5   -189.9311944 -0.266285E-07  0.338E-04    1.21      26.3  T
   6   -189.9311944 -0.250336E-08  0.115E-04    1.21      77.7  T
     SCC iter.                  ...        0 min,  0.115 sec
     gradient                   ...        0 min,  0.023 sec
 * total energy  :  -186.6112358 Eh     change       -0.7429324E-03 Eh
   gradient norm :     0.0044907 Eh/α   predicted    -0.4735618E-03 ( -36.26%)
   displ. norm   :     0.2822242 α      lambda       -0.5854109E-03
   maximum displ.:     0.2503453 α      in ANC's #19, #18, #17, ...

........................................................................
.............................. CYCLE    8 ..............................
........................................................................

 iter      E             dE          RMSdq      gap      omega  full diag
   1   -189.9347253 -0.189935E+03  0.229E-02    1.21       0.0  T
   2   -189.9347258 -0.535096E-06  0.134E-02    1.21       1.0  T
   3   -189.9347246  0.128307E-05  0.341E-03    1.21       2.6  T
   4   -189.9347261 -0.152670E-05  0.638E-04    1.22      14.0  T
   5   -189.9347261 -0.314432E-07  0.316E-04    1.21      28.2  T
   6   -189.9347261 -0.186256E-08  0.112E-04    1.22      79.8  T
     SCC iter.                  ...        0 min,  0.111 sec
     gradient                   ...        0 min,  0.023 sec
 * total energy  :  -186.6117398 Eh     change       -0.5039880E-03 Eh
   gradient norm :     0.0033484 Eh/α   predicted    -0.3160986E-03 ( -37.28%)
   displ. norm   :     0.2387628 α      lambda       -0.3715158E-03
   maximum displ.:     0.2105156 α      in ANC's #19, #18, #17, ...

........................................................................
.............................. CYCLE    9 ..............................
........................................................................

 iter      E             dE          RMSdq      gap      omega  full diag
   1   -189.9388780 -0.189939E+03  0.184E-02    1.22       0.0  T
   2   -189.9388789 -0.924400E-06  0.109E-02    1.22       1.0  T
   3   -189.9388765  0.241381E-05  0.465E-03    1.22       1.9  T
   4   -189.9388795 -0.296049E-05  0.626E-04    1.22      14.2  T
   5   -189.9388795 -0.373680E-07  0.294E-04    1.22      30.3  T
   6   -189.9388795 -0.256526E-08  0.134E-04    1.22      66.6  T
     SCC iter.                  ...        0 min,  0.111 sec
     gradient                   ...        0 min,  0.024 sec
 * total energy  :  -186.6120559 Eh     change       -0.3160923E-03 Eh
   gradient norm :     0.0019725 Eh/α   predicted    -0.1963936E-03 ( -37.87%)
   displ. norm   :     0.2780958 α      lambda       -0.2093817E-03
   maximum displ.:     0.2464284 α      in ANC's #19, #18, #17, ...

........................................................................
.............................. CYCLE   10 ..............................
........................................................................

 iter      E             dE          RMSdq      gap      omega  full diag
   1   -189.9443535 -0.189944E+03  0.202E-02    1.22       0.0  T
   2   -189.9443553 -0.179832E-05  0.123E-02    1.22       1.0  T
   3   -189.9443520  0.330764E-05  0.590E-03    1.22       1.5  T
   4   -189.9443564 -0.437125E-05  0.829E-04    1.22      10.7  T
   5   -189.9443564 -0.712200E-07  0.352E-04    1.22      25.3  T
   6   -189.9443564 -0.466409E-08  0.163E-04    1.22      54.7  T
     SCC iter.                  ...        0 min,  0.111 sec
     gradient                   ...        0 min,  0.023 sec
 * total energy  :  -186.6122977 Eh     change       -0.2417372E-03 Eh
   gradient norm :     0.0013686 Eh/α   predicted    -0.1083127E-03 ( -55.19%)
   displ. norm   :     0.1485151 α      lambda       -0.6877045E-04
   maximum displ.:     0.1368459 α      in ANC's #19, #17, #18, ...

........................................................................
.............................. CYCLE   11 ..............................
........................................................................

 iter      E             dE          RMSdq      gap      omega  full diag
   1   -189.9470822 -0.189947E+03  0.111E-02    1.22       0.0  T
   2   -189.9470826 -0.403778E-06  0.669E-03    1.22       1.3  T
   3   -189.9470817  0.846814E-06  0.288E-03    1.22       3.1  T
   4   -189.9470828 -0.104425E-05  0.441E-04    1.22      20.2  T
   5   -189.9470828 -0.218007E-07  0.173E-04    1.22      51.4  T
   6   -189.9470828 -0.942521E-09  0.804E-05    1.22     110.7  T
     SCC iter.                  ...        0 min,  0.122 sec
     gradient                   ...        0 min,  0.025 sec
 * total energy  :  -186.6123819 Eh     change       -0.8424178E-04 Eh
   gradient norm :     0.0009014 Eh/α   predicted    -0.3480847E-04 ( -58.68%)
   displ. norm   :     0.0947032 α      lambda       -0.3216501E-04
   maximum displ.:     0.0862116 α      in ANC's #19, #9, #8, ...

........................................................................
.............................. CYCLE   12 ..............................
........................................................................

 iter      E             dE          RMSdq      gap      omega  full diag
   1   -189.9485751 -0.189949E+03  0.963E-03    1.22       0.0  T
   2   -189.9485752 -0.142818E-06  0.570E-03    1.22       1.6  T
   3   -189.9485748  0.405360E-06  0.186E-03    1.22       4.8  T
   4   -189.9485753 -0.469196E-06  0.267E-04    1.22      33.4  T
   5   -189.9485753 -0.793955E-08  0.103E-04    1.22      86.3  T
     SCC iter.                  ...        0 min,  0.092 sec
     gradient                   ...        0 min,  0.023 sec
 * total energy  :  -186.6124232 Eh     change       -0.4134551E-04 Eh
   gradient norm :     0.0005338 Eh/α   predicted    -0.1616921E-04 ( -60.89%)
   displ. norm   :     0.0965246 α      lambda       -0.2540589E-04
   maximum displ.:     0.0768101 α      in ANC's #19, #18, #9, ...

........................................................................
.............................. CYCLE   13 ..............................
........................................................................

 iter      E             dE          RMSdq      gap      omega  full diag
   1   -189.9496335 -0.189950E+03  0.133E-02    1.22       0.0  T
   2   -189.9496336 -0.111128E-06  0.779E-03    1.22       1.1  T
   3   -189.9496333  0.360071E-06  0.169E-03    1.22       5.3  T
   4   -189.9496337 -0.412818E-06  0.234E-04    1.22      38.1  T
   5   -189.9496337 -0.521342E-08  0.101E-04    1.22      88.4  T
     SCC iter.                  ...        0 min,  0.091 sec
     gradient                   ...        0 min,  0.024 sec
 * total energy  :  -186.6124561 Eh     change       -0.3285679E-04 Eh
   gradient norm :     0.0004442 Eh/α   predicted    -0.1276441E-04 ( -61.15%)
   displ. norm   :     0.1536469 α      lambda       -0.3102660E-04
   maximum displ.:     0.1060703 α      in ANC's #19, #18, #9, ...

........................................................................
.............................. CYCLE   14 ..............................
........................................................................

 iter      E             dE          RMSdq      gap      omega  full diag
   1   -189.9508389 -0.189951E+03  0.238E-02    1.22       0.0  T
   2   -189.9508391 -0.248695E-06  0.140E-02    1.22       1.0  T
   3   -189.9508384  0.766302E-06  0.244E-03    1.22       3.7  T
   4   -189.9508393 -0.890211E-06  0.341E-04    1.22      26.1  T
   5   -189.9508393 -0.913579E-08  0.156E-04    1.22      56.9  T
     SCC iter.                  ...        0 min,  0.092 sec
     gradient                   ...        0 min,  0.023 sec
 * total energy  :  -186.6124922 Eh     change       -0.3608235E-04 Eh
   gradient norm :     0.0005828 Eh/α   predicted    -0.1567647E-04 ( -56.55%)
   displ. norm   :     0.2057773 α      lambda       -0.2744659E-04
   maximum displ.:     0.1312466 α      in ANC's #19, #18, #9, ...

........................................................................
.............................. CYCLE   15 ..............................
........................................................................

 iter      E             dE          RMSdq      gap      omega  full diag
   1   -189.9522408 -0.189952E+03  0.329E-02    1.22       0.0  T
   2   -189.9522412 -0.428851E-06  0.193E-02    1.22       1.0  T
   3   -189.9522399  0.129101E-05  0.314E-03    1.22       2.8  T
   4   -189.9522414 -0.150735E-05  0.444E-04    1.22      20.1  T
   5   -189.9522414 -0.142431E-07  0.207E-04    1.22      43.0  T
   6   -189.9522414 -0.560021E-09  0.964E-05    1.22      92.4  T
     SCC iter.                  ...        0 min,  0.112 sec
     gradient                   ...        0 min,  0.023 sec
 * total energy  :  -186.6125166 Eh     change       -0.2441873E-04 Eh
   gradient norm :     0.0007721 Eh/α   predicted    -0.1398278E-04 ( -42.74%)
   displ. norm   :     0.0867210 α      lambda       -0.9582895E-05
   maximum displ.:     0.0579762 α      in ANC's #18, #19, #9, ...

........................................................................
.............................. CYCLE   16 ..............................
........................................................................

 iter      E             dE          RMSdq      gap      omega  full diag
   1   -189.9528140 -0.189953E+03  0.151E-02    1.22       0.0  T
   2   -189.9528141 -0.713017E-07  0.884E-03    1.23       1.0  T
   3   -189.9528140  0.153558E-06  0.111E-03    1.23       8.1  T
   4   -189.9528141 -0.189413E-06  0.177E-04    1.23      50.3  T
   5   -189.9528141 -0.136740E-08  0.851E-05    1.23     104.6  T
     SCC iter.                  ...        0 min,  0.093 sec
     gradient                   ...        0 min,  0.023 sec
 * total energy  :  -186.6125281 Eh     change       -0.1147226E-04 Eh
   gradient norm :     0.0004410 Eh/α   predicted    -0.4826776E-05 ( -57.93%)
   displ. norm   :     0.0791568 α      lambda       -0.1178652E-04
   maximum displ.:     0.0558178 α      in ANC's #18, #22, #9, ...

........................................................................
.............................. CYCLE   17 ..............................
........................................................................

 iter      E             dE          RMSdq      gap      omega  full diag
   1   -189.9530232 -0.189953E+03  0.140E-02    1.23       0.0  T
   2   -189.9530233 -0.487320E-07  0.821E-03    1.23       1.1  T
   3   -189.9530232  0.371520E-07  0.678E-04    1.23      13.1  T
   4   -189.9530233 -0.588721E-07  0.146E-04    1.23      61.2  T
     SCC iter.                  ...        0 min,  0.073 sec
     gradient                   ...        0 min,  0.023 sec
 * total energy  :  -186.6125449 Eh     change       -0.1678293E-04 Eh
   gradient norm :     0.0006138 Eh/α   predicted    -0.5909974E-05 ( -64.79%)
   displ. norm   :     0.1990207 α      lambda       -0.3140020E-04
   maximum displ.:     0.1311207 α      in ANC's #18, #22, #9, ...

........................................................................
.............................. CYCLE   18 ..............................
........................................................................

 iter      E             dE          RMSdq      gap      omega  full diag
   1   -189.9522486 -0.189952E+03  0.345E-02    1.23       0.0  T
   2   -189.9522489 -0.302358E-06  0.203E-02    1.23       1.0  T
   3   -189.9522487  0.178634E-06  0.165E-03    1.23       5.4  T
   4   -189.9522490 -0.308718E-06  0.368E-04    1.23      24.2  T
   5   -189.9522490 -0.109586E-08  0.179E-04    1.23      49.8  T
     SCC iter.                  ...        0 min,  0.094 sec
     gradient                   ...        0 min,  0.024 sec
 * total energy  :  -186.6125871 Eh     change       -0.4224152E-04 Eh
   gradient norm :     0.0008860 Eh/α   predicted    -0.1597662E-04 ( -62.18%)
   displ. norm   :     0.3590949 α      lambda       -0.4712477E-04
   maximum displ.:     0.2369265 α      in ANC's #18, #22, #9, ...

........................................................................
.............................. CYCLE   19 ..............................
........................................................................

 iter      E             dE          RMSdq      gap      omega  full diag
   1   -189.9503475 -0.189950E+03  0.619E-02    1.23       0.0  T
   2   -189.9503486 -0.108200E-05  0.363E-02    1.23       1.0  T
   3   -189.9503478  0.793037E-06  0.323E-03    1.23       2.8  T
   4   -189.9503490 -0.123132E-05  0.662E-04    1.23      13.5  T
   5   -189.9503490 -0.538122E-08  0.331E-04    1.23      26.9  T
   6   -189.9503491 -0.574681E-08  0.153E-04    1.23      58.0  T
     SCC iter.                  ...        0 min,  0.109 sec
     gradient                   ...        0 min,  0.023 sec
 * total energy  :  -186.6126454 Eh     change       -0.5833153E-04 Eh
   gradient norm :     0.0011600 Eh/α   predicted    -0.2491287E-04 ( -57.29%)
   displ. norm   :     0.3482036 α      lambda       -0.3589345E-04
   maximum displ.:     0.2341701 α      in ANC's #18, #22, #9, ...

........................................................................
.............................. CYCLE   20 ..............................
........................................................................

 iter      E             dE          RMSdq      gap      omega  full diag
   1   -189.9490908 -0.189949E+03  0.593E-02    1.23       0.0  T
   2   -189.9490918 -0.103747E-05  0.348E-02    1.24       1.0  T
   3   -189.9490910  0.774269E-06  0.314E-03    1.24       2.8  T
   4   -189.9490922 -0.118555E-05  0.667E-04    1.24      13.4  T
   5   -189.9490922 -0.862116E-08  0.330E-04    1.24      27.0  T
   6   -189.9490922 -0.526964E-08  0.158E-04    1.24      56.2  T
     SCC iter.                  ...        0 min,  0.109 sec
     gradient                   ...        0 min,  0.023 sec
 * total energy  :  -186.6126897 Eh     change       -0.4429208E-04 Eh
   gradient norm :     0.0012441 Eh/α   predicted    -0.1891850E-04 ( -57.29%)
   displ. norm   :     0.2590575 α      lambda       -0.2715532E-04
   maximum displ.:     0.1769807 α      in ANC's #18, #22, #9, ...
 * RMSD in coord.:     0.3205539 α      energy gain  -0.4116676E-01 Eh

generating ANC from exact Hessian ...
Using Lindh-Hessian (1995)
 Shifting diagonal of input Hessian by   9.961920820858573E-003
 Lowest  eigenvalues of input Hessian
    0.000000    0.000000    0.000000    0.000000    0.000000    0.000000
    0.010000    0.010001    0.010009    0.010017    0.010035    0.010036
    0.010192    0.010194    0.010311    0.010490    0.010492    0.011275
 Highest eigenvalues
    2.158867    2.159254    2.165404    2.189278    2.225547    2.226636
 

........................................................................
.............................. CYCLE   21 ..............................
........................................................................

 iter      E             dE          RMSdq      gap      omega  full diag
   1   -189.9492762 -0.189949E+03  0.433E-02    1.24       0.0  T
   2   -189.9492769 -0.646885E-06  0.254E-02    1.24       1.0  T
   3   -189.9492762  0.716582E-06  0.267E-03    1.24       3.3  T
   4   -189.9492771 -0.952949E-06  0.502E-04    1.25      17.7  T
   5   -189.9492771 -0.112973E-07  0.238E-04    1.24      37.4  T
     SCC iter.                  ...        0 min,  0.094 sec
     gradient                   ...        0 min,  0.024 sec
 * total energy  :  -186.6127248 Eh     change       -0.3512360E-04 Eh
   gradient norm :     0.0010145 Eh/α   predicted     0.0000000E+00 (-100.00%)
   displ. norm   :     0.0414175 α      lambda       -0.1059641E-05
   maximum displ.:     0.0306219 α      in ANC's #19, #24, #25, ...

........................................................................
.............................. CYCLE   22 ..............................
........................................................................

 iter      E             dE          RMSdq      gap      omega  full diag
   1   -189.9507512 -0.189951E+03  0.820E-03    1.25       0.0  T
   2   -189.9507512 -0.223877E-07  0.484E-03    1.25       1.8  T
   3   -189.9507512  0.220804E-07  0.497E-04    1.25      17.9  T
   4   -189.9507513 -0.315288E-07  0.103E-04    1.25      86.4  T
     SCC iter.                  ...        0 min,  0.076 sec
     gradient                   ...        0 min,  0.024 sec
 * total energy  :  -186.6127393 Eh     change       -0.1448310E-04 Eh
   gradient norm :     0.0005228 Eh/α   predicted    -0.6030334E-05 ( -58.36%)
   displ. norm   :     0.1168274 α      lambda       -0.2427341E-04
   maximum displ.:     0.0781797 α      in ANC's #19, #24, #25, ...

........................................................................
.............................. CYCLE   23 ..............................
........................................................................

 iter      E             dE          RMSdq      gap      omega  full diag
   1   -189.9524238 -0.189952E+03  0.216E-02    1.25       0.0  T
   2   -189.9524239 -0.102762E-06  0.126E-02    1.25       1.0  T
   3   -189.9524239  0.706141E-07  0.941E-04    1.25       9.5  T
   4   -189.9524240 -0.115046E-06  0.248E-04    1.25      36.0  T
     SCC iter.                  ...        0 min,  0.074 sec
     gradient                   ...        0 min,  0.025 sec
 * total energy  :  -186.6127694 Eh     change       -0.3011051E-04 Eh
   gradient norm :     0.0013420 Eh/α   predicted    -0.1221058E-04 ( -59.45%)
   displ. norm   :     0.1868751 α      lambda       -0.3074613E-04
   maximum displ.:     0.1197407 α      in ANC's #19, #24, #25, ...

........................................................................
.............................. CYCLE   24 ..............................
........................................................................

 iter      E             dE          RMSdq      gap      omega  full diag
   1   -189.9520527 -0.189952E+03  0.346E-02    1.25       0.0  T
   2   -189.9520530 -0.304416E-06  0.203E-02    1.25       1.0  T
   3   -189.9520526  0.420494E-06  0.196E-03    1.25       4.6  T
   4   -189.9520532 -0.554266E-06  0.414E-04    1.25      21.5  T
   5   -189.9520532 -0.638687E-08  0.204E-04    1.25      43.7  T
     SCC iter.                  ...        0 min,  0.095 sec
     gradient                   ...        0 min,  0.024 sec
 * total energy  :  -186.6128050 Eh     change       -0.3554222E-04 Eh
   gradient norm :     0.0011606 Eh/α   predicted    -0.1561229E-04 ( -56.07%)
   displ. norm   :     0.1850993 α      lambda       -0.2100086E-04
   maximum displ.:     0.1188341 α      in ANC's #19, #24, #17, ...

........................................................................
.............................. CYCLE   25 ..............................
........................................................................

 iter      E             dE          RMSdq      gap      omega  full diag
   1   -189.9517506 -0.189952E+03  0.343E-02    1.25       0.0  T
   2   -189.9517510 -0.341154E-06  0.201E-02    1.25       1.0  T
   3   -189.9517505  0.453813E-06  0.204E-03    1.25       4.4  T
   4   -189.9517511 -0.590948E-06  0.405E-04    1.25      22.0  T
   5   -189.9517511 -0.669482E-08  0.202E-04    1.25      44.0  T
     SCC iter.                  ...        0 min,  0.092 sec
     gradient                   ...        0 min,  0.024 sec
 * total energy  :  -186.6128273 Eh     change       -0.2231815E-04 Eh
   gradient norm :     0.0006166 Eh/α   predicted    -0.1066088E-04 ( -52.23%)
   displ. norm   :     0.1226516 α      lambda       -0.1046828E-04
   maximum displ.:     0.0790971 α      in ANC's #19, #17, #24, ...

........................................................................
.............................. CYCLE   26 ..............................
........................................................................

 iter      E             dE          RMSdq      gap      omega  full diag
   1   -189.9512834 -0.189951E+03  0.223E-02    1.25       0.0  T
   2   -189.9512836 -0.168503E-06  0.131E-02    1.25       1.0  T
   3   -189.9512833  0.226665E-06  0.145E-03    1.25       6.1  T
   4   -189.9512836 -0.290843E-06  0.262E-04    1.25      34.0  T
   5   -189.9512836 -0.275463E-08  0.134E-04    1.25      66.4  T
     SCC iter.                  ...        0 min,  0.094 sec
     gradient                   ...        0 min,  0.024 sec
 * total energy  :  -186.6128398 Eh     change       -0.1252115E-04 Eh
   gradient norm :     0.0004564 Eh/α   predicted    -0.5271242E-05 ( -57.90%)
   displ. norm   :     0.1536125 α      lambda       -0.1463105E-04
   maximum displ.:     0.0949347 α      in ANC's #19, #17, #22, ...

........................................................................
.............................. CYCLE   27 ..............................
........................................................................

 iter      E             dE          RMSdq      gap      omega  full diag
   1   -189.9508205 -0.189951E+03  0.270E-02    1.25       0.0  T
   2   -189.9508208 -0.268051E-06  0.158E-02    1.26       1.0  T
   3   -189.9508204  0.312070E-06  0.178E-03    1.26       5.0  T
   4   -189.9508209 -0.411793E-06  0.318E-04    1.26      28.0  T
   5   -189.9508209 -0.316692E-08  0.164E-04    1.26      54.4  T
     SCC iter.                  ...        0 min,  0.093 sec
     gradient                   ...        0 min,  0.024 sec
 * total energy  :  -186.6128580 Eh     change       -0.1817869E-04 Eh
   gradient norm :     0.0008487 Eh/α   predicted    -0.7392977E-05 ( -59.33%)
   displ. norm   :     0.2610650 α      lambda       -0.2478084E-04
   maximum displ.:     0.1541680 α      in ANC's #19, #22, #17, ...

........................................................................
.............................. CYCLE   28 ..............................
........................................................................

 iter      E             dE          RMSdq      gap      omega  full diag
   1   -189.9497359 -0.189950E+03  0.448E-02    1.26       0.0  T
   2   -189.9497368 -0.837774E-06  0.263E-02    1.26       1.0  T
   3   -189.9497359  0.903472E-06  0.310E-03    1.26       2.9  T
   4   -189.9497371 -0.119870E-05  0.541E-04    1.27      16.5  T
   5   -189.9497371 -0.913096E-08  0.274E-04    1.27      32.5  T
   6   -189.9497371 -0.522999E-08  0.129E-04    1.27      69.1  T
     SCC iter.                  ...        0 min,  0.112 sec
     gradient                   ...        0 min,  0.024 sec
 * total energy  :  -186.6128867 Eh     change       -0.2873251E-04 Eh
   gradient norm :     0.0014772 Eh/α   predicted    -0.1276944E-04 ( -55.56%)
   displ. norm   :     0.3126883 α      lambda       -0.2587013E-04
   maximum displ.:     0.1831058 α      in ANC's #19, #22, #4, ...

........................................................................
.............................. CYCLE   29 ..............................
........................................................................

 iter      E             dE          RMSdq      gap      omega  full diag
   1   -189.9484001 -0.189948E+03  0.531E-02    1.27       0.0  T
   2   -189.9484013 -0.126151E-05  0.311E-02    1.27       1.0  T
   3   -189.9484000  0.130289E-05  0.375E-03    1.27       2.4  T
   4   -189.9484018 -0.173404E-05  0.672E-04    1.28      13.3  T
   5   -189.9484018 -0.151852E-07  0.334E-04    1.28      26.7  T
   6   -189.9484018 -0.740266E-08  0.159E-04    1.28      55.9  T
     SCC iter.                  ...        0 min,  0.111 sec
     gradient                   ...        0 min,  0.024 sec
 * total energy  :  -186.6129148 Eh     change       -0.2806622E-04 Eh
   gradient norm :     0.0018762 Eh/α   predicted    -0.1349785E-04 ( -51.91%)
   displ. norm   :     0.2191144 α      lambda       -0.2119876E-04
   maximum displ.:     0.1232868 α      in ANC's #19, #22, #4, ...

........................................................................
.............................. CYCLE   30 ..............................
........................................................................

 iter      E             dE          RMSdq      gap      omega  full diag
   1   -189.9487191 -0.189949E+03  0.370E-02    1.28       0.0  T
   2   -189.9487197 -0.649488E-06  0.217E-02    1.28       1.0  T
   3   -189.9487191  0.654749E-06  0.260E-03    1.28       3.4  T
   4   -189.9487199 -0.858814E-06  0.487E-04    1.28      18.3  T
   5   -189.9487199 -0.122533E-07  0.229E-04    1.28      38.9  T
     SCC iter.                  ...        0 min,  0.095 sec
     gradient                   ...        0 min,  0.024 sec
 * total energy  :  -186.6129399 Eh     change       -0.2513218E-04 Eh
   gradient norm :     0.0013155 Eh/α   predicted    -0.1082760E-04 ( -56.92%)
   displ. norm   :     0.2919149 α      lambda       -0.2887575E-04
   maximum displ.:     0.1724782 α      in ANC's #19, #22, #4, ...

........................................................................
.............................. CYCLE   31 ..............................
........................................................................

 iter      E             dE          RMSdq      gap      omega  full diag
   1   -189.9489221 -0.189949E+03  0.496E-02    1.28       0.0  T
   2   -189.9489232 -0.114482E-05  0.291E-02    1.29       1.0  T
   3   -189.9489220  0.123233E-05  0.347E-03    1.29       2.6  T
   4   -189.9489236 -0.159194E-05  0.662E-04    1.29      13.5  T
   5   -189.9489236 -0.261581E-07  0.308E-04    1.29      29.0  T
   6   -189.9489236 -0.495245E-08  0.155E-04    1.29      57.4  T
     SCC iter.                  ...        0 min,  0.112 sec
     gradient                   ...        0 min,  0.024 sec
 * total energy  :  -186.6129728 Eh     change       -0.3292112E-04 Eh
   gradient norm :     0.0007323 Eh/α   predicted    -0.1498752E-04 ( -54.47%)
   displ. norm   :     0.1939812 α      lambda       -0.2177526E-04
   maximum displ.:     0.1197443 α      in ANC's #19, #4, #22, ...

........................................................................
.............................. CYCLE   32 ..............................
........................................................................

 iter      E             dE          RMSdq      gap      omega  full diag
   1   -189.9500842 -0.189950E+03  0.329E-02    1.29       0.0  T
   2   -189.9500847 -0.521185E-06  0.193E-02    1.30       1.0  T
   3   -189.9500840  0.700819E-06  0.243E-03    1.30       3.7  T
   4   -189.9500849 -0.861189E-06  0.456E-04    1.30      19.5  T
   5   -189.9500849 -0.167334E-07  0.198E-04    1.30      45.0  T
     SCC iter.                  ...        0 min,  0.096 sec
     gradient                   ...        0 min,  0.024 sec
 * total energy  :  -186.6129989 Eh     change       -0.2606326E-04 Eh
   gradient norm :     0.0009183 Eh/α   predicted    -0.1107159E-04 ( -57.52%)
   displ. norm   :     0.1771572 α      lambda       -0.1939914E-04
   maximum displ.:     0.1193158 α      in ANC's #19, #4, #18, ...

........................................................................
.............................. CYCLE   33 ..............................
........................................................................

 iter      E             dE          RMSdq      gap      omega  full diag
   1   -189.9504061 -0.189950E+03  0.298E-02    1.30       0.0  T
   2   -189.9504065 -0.439204E-06  0.175E-02    1.30       1.0  T
   3   -189.9504059  0.692149E-06  0.237E-03    1.30       3.8  T
   4   -189.9504067 -0.838023E-06  0.423E-04    1.30      21.0  T
   5   -189.9504067 -0.136384E-07  0.188E-04    1.30      47.4  T
     SCC iter.                  ...        0 min,  0.093 sec
     gradient                   ...        0 min,  0.024 sec
 * total energy  :  -186.6130230 Eh     change       -0.2413169E-04 Eh
   gradient norm :     0.0010120 Eh/α   predicted    -0.9836943E-05 ( -59.24%)
   displ. norm   :     0.1397399 α      lambda       -0.1630926E-04
   maximum displ.:     0.0946494 α      in ANC's #19, #4, #17, ...

........................................................................
.............................. CYCLE   34 ..............................
........................................................................

 iter      E             dE          RMSdq      gap      omega  full diag
   1   -189.9508840 -0.189951E+03  0.233E-02    1.30       0.0  T
   2   -189.9508843 -0.289057E-06  0.137E-02    1.31       1.0  T
   3   -189.9508838  0.534450E-06  0.201E-03    1.31       4.4  T
   4   -189.9508844 -0.635996E-06  0.359E-04    1.31      24.8  T
   5   -189.9508844 -0.989490E-08  0.160E-04    1.31      55.6  T
     SCC iter.                  ...        0 min,  0.096 sec
     gradient                   ...        0 min,  0.024 sec
 * total energy  :  -186.6130417 Eh     change       -0.1867626E-04 Eh
   gradient norm :     0.0008014 Eh/α   predicted    -0.8225766E-05 ( -55.96%)
   displ. norm   :     0.1231164 α      lambda       -0.1031777E-04
   maximum displ.:     0.0835107 α      in ANC's #19, #4, #17, ...

........................................................................
.............................. CYCLE   35 ..............................
........................................................................

 iter      E             dE          RMSdq      gap      omega  full diag
   1   -189.9509062 -0.189951E+03  0.208E-02    1.31       0.0  T
   2   -189.9509065 -0.207984E-06  0.122E-02    1.31       1.0  T
   3   -189.9509061  0.355026E-06  0.168E-03    1.31       5.3  T
   4   -189.9509065 -0.430742E-06  0.310E-04    1.31      28.8  T
   5   -189.9509065 -0.596788E-08  0.147E-04    1.31      60.7  T
     SCC iter.                  ...        0 min,  0.092 sec
     gradient                   ...        0 min,  0.025 sec
 * total energy  :  -186.6130522 Eh     change       -0.1051137E-04 Eh
   gradient norm :     0.0004730 Eh/α   predicted    -0.5195250E-05 ( -50.57%)
   displ. norm   :     0.0789340 α      lambda       -0.4140151E-05
   maximum displ.:     0.0540263 α      in ANC's #19, #4, #1, ...

........................................................................
.............................. CYCLE   36 ..............................
........................................................................

 iter      E             dE          RMSdq      gap      omega  full diag
   1   -189.9506026 -0.189951E+03  0.133E-02    1.31       0.0  T
   2   -189.9506027 -0.854507E-07  0.783E-03    1.31       1.1  T
   3   -189.9506026  0.124851E-06  0.103E-03    1.31       8.7  T
   4   -189.9506028 -0.153278E-06  0.186E-04    1.31      47.8  T
   5   -189.9506028 -0.213805E-08  0.896E-05    1.31      99.4  T
     SCC iter.                  ...        0 min,  0.096 sec
     gradient                   ...        0 min,  0.024 sec
 * total energy  :  -186.6130566 Eh     change       -0.4348499E-05 Eh
   gradient norm :     0.0004102 Eh/α   predicted    -0.2077251E-05 ( -52.23%)
   displ. norm   :     0.0868861 α      lambda       -0.3249361E-05
   maximum displ.:     0.0577850 α      in ANC's #19, #4, #1, ...

........................................................................
.............................. CYCLE   37 ..............................
........................................................................

 iter      E             dE          RMSdq      gap      omega  full diag
   1   -189.9504920 -0.189950E+03  0.145E-02    1.31       0.0  T
   2   -189.9504921 -0.894033E-07  0.850E-03    1.31       1.0  T
   3   -189.9504920  0.105311E-06  0.980E-04    1.31       9.1  T
   4   -189.9504922 -0.133280E-06  0.189E-04    1.31      47.2  T
     SCC iter.                  ...        0 min,  0.075 sec
     gradient                   ...        0 min,  0.024 sec
 * total energy  :  -186.6130600 Eh     change       -0.3421468E-05 Eh
   gradient norm :     0.0004469 Eh/α   predicted    -0.1633441E-05 ( -52.26%)
   displ. norm   :     0.0888940 α      lambda       -0.2772280E-05
   maximum displ.:     0.0561206 α      in ANC's #19, #4, #16, ...

........................................................................
.............................. CYCLE   38 ..............................
........................................................................

 iter      E             dE          RMSdq      gap      omega  full diag
   1   -189.9504177 -0.189950E+03  0.145E-02    1.31       0.0  T
   2   -189.9504177 -0.763943E-07  0.849E-03    1.32       1.0  T
   3   -189.9504177  0.747399E-07  0.880E-04    1.32      10.1  T
   4   -189.9504178 -0.100047E-06  0.175E-04    1.32      51.0  T
     SCC iter.                  ...        0 min,  0.076 sec
     gradient                   ...        0 min,  0.024 sec
 * total energy  :  -186.6130628 Eh     change       -0.2808503E-05 Eh
   gradient norm :     0.0004600 Eh/α   predicted    -0.1394019E-05 ( -50.36%)
   displ. norm   :     0.0612428 α      lambda       -0.2012392E-05
   maximum displ.:     0.0333547 α      in ANC's #19, #4, #16, ...

........................................................................
.............................. CYCLE   39 ..............................
........................................................................

 iter      E             dE          RMSdq      gap      omega  full diag
   1   -189.9504424 -0.189950E+03  0.937E-03    1.32       0.0  T
   2   -189.9504425 -0.389996E-07  0.550E-03    1.32       1.6  T
   3   -189.9504425  0.310656E-07  0.587E-04    1.32      15.2  T
   4   -189.9504425 -0.428693E-07  0.130E-04    1.32      68.3  T
     SCC iter.                  ...        0 min,  0.074 sec
     gradient                   ...        0 min,  0.024 sec
 * total energy  :  -186.6130649 Eh     change       -0.2059898E-05 Eh
   gradient norm :     0.0003271 Eh/α   predicted    -0.1012713E-05 ( -50.84%)
   displ. norm   :     0.0612428 α      lambda        0.0000000E+00
   maximum displ.:     0.0333547 α      in ANC's #19, #4, #16, ...

........................................................................
.............................. CYCLE   40 ..............................
........................................................................

 iter      E             dE          RMSdq      gap      omega  full diag
   1   -189.9504275 -0.189950E+03  0.937E-03    1.32       0.0  T
   2   -189.9504275 -0.398229E-07  0.550E-03    1.32       1.6  T
   3   -189.9504275  0.325887E-07  0.602E-04    1.32      14.8  T
   4   -189.9504275 -0.446747E-07  0.130E-04    1.32      68.6  T
     SCC iter.                  ...        0 min,  0.076 sec
     gradient                   ...        0 min,  0.024 sec
 * total energy  :  -186.6130649 Eh     change       -0.7121221E-07 Eh
   gradient norm :     0.0005603 Eh/α   predicted     0.1569387E-09 (-100.22%)
   displ. norm   :     0.0283873 α      lambda       -0.1451717E-05
   maximum displ.:     0.0177496 α      in ANC's #19, #4, #14, ...

........................................................................
.............................. CYCLE   41 ..............................
........................................................................

 iter      E             dE          RMSdq      gap      omega  full diag
   1   -189.9505872 -0.189951E+03  0.513E-03    1.32       0.0  T
   2   -189.9505872 -0.207247E-07  0.301E-03    1.32       3.0  T
   3   -189.9505872  0.195969E-07  0.432E-04    1.32      20.6  T
   4   -189.9505872 -0.246826E-07  0.862E-05    1.32     103.3  T
     SCC iter.                  ...        0 min,  0.074 sec
     gradient                   ...        0 min,  0.024 sec
 * total energy  :  -186.6130662 Eh     change       -0.1260117E-05 Eh
   gradient norm :     0.0002928 Eh/α   predicted    -0.7270026E-06 ( -42.31%)
   displ. norm   :     0.0228642 α      lambda       -0.6776314E-06
   maximum displ.:     0.0119757 α      in ANC's #19, #16, #24, ...

........................................................................
.............................. CYCLE   42 ..............................
........................................................................

 iter      E             dE          RMSdq      gap      omega  full diag
   1   -189.9505531 -0.189951E+03  0.408E-03    1.32       0.0  T
   2   -189.9505531 -0.581318E-08  0.239E-03    1.32       3.7  T
   3   -189.9505531  0.225103E-08  0.207E-04    1.32      43.0  T
   4   -189.9505531 -0.447898E-08  0.582E-05    1.32     153.2  T
     SCC iter.                  ...        0 min,  0.077 sec
     gradient                   ...        0 min,  0.024 sec
 * total energy  :  -186.6130669 Eh     change       -0.6798938E-06 Eh
   gradient norm :     0.0001441 Eh/α   predicted    -0.3408556E-06 ( -49.87%)
   displ. norm   :     0.0209154 α      lambda       -0.5327465E-06
   maximum displ.:     0.0079635 α      in ANC's #9, #1, #4, ...
 * RMSD in coord.:     0.2207208 α      energy gain  -0.3771616E-03 Eh

generating ANC from exact Hessian ...
Using Lindh-Hessian (1995)
 Shifting diagonal of input Hessian by   9.963420796639540E-003
 Lowest  eigenvalues of input Hessian
    0.000000    0.000000    0.000000    0.000000    0.000000    0.000000
    0.010000    0.010000    0.010009    0.010016    0.010037    0.010038
    0.010196    0.010196    0.010315    0.010491    0.010492    0.011308
 Highest eigenvalues
    2.160265    2.160391    2.167014    2.189297    2.226784    2.226879
 

........................................................................
.............................. CYCLE   43 ..............................
........................................................................

 iter      E             dE          RMSdq      gap      omega  full diag
   1   -189.9505543 -0.189951E+03  0.251E-03    1.32       0.0  T
   2   -189.9505543 -0.349837E-08  0.147E-03    1.32       6.1  T
   3   -189.9505543  0.357599E-08  0.190E-04    1.32      47.0  T
   4   -189.9505543 -0.490883E-08  0.502E-05    1.32     177.5  T
     SCC iter.                  ...        0 min,  0.076 sec
     gradient                   ...        0 min,  0.024 sec
 * total energy  :  -186.6130675 Eh     change       -0.6135455E-06 Eh
   gradient norm :     0.0001166 Eh/α   predicted     0.0000000E+00 (-100.00%)
   displ. norm   :     0.0052937 α      lambda       -0.1284942E-07
   maximum displ.:     0.0028534 α      in ANC's #9, #4, #11, ...

........................................................................
.............................. CYCLE   44 ..............................
........................................................................

 iter      E             dE          RMSdq      gap      omega  full diag
   1   -189.9505980 -0.189951E+03  0.678E-04    1.32       0.0  T
   2   -189.9505980 -0.323183E-09  0.399E-04    1.32      22.3  T
   3   -189.9505980  0.902105E-09  0.821E-05    1.32     108.6  T
     SCC iter.                  ...        0 min,  0.057 sec
     gradient                   ...        0 min,  0.024 sec
 * total energy  :  -186.6130677 Eh     change       -0.2199411E-06 Eh
   gradient norm :     0.0000711 Eh/α   predicted    -0.8460592E-07 ( -61.53%)
   displ. norm   :     0.0232569 α      lambda       -0.4196399E-06
   maximum displ.:     0.0117968 α      in ANC's #9, #4, #11, ...

........................................................................
.............................. CYCLE   45 ..............................
........................................................................

 iter      E             dE          RMSdq      gap      omega  full diag
   1   -189.9507089 -0.189951E+03  0.254E-03    1.32       0.0  T
   2   -189.9507089 -0.380015E-08  0.149E-03    1.32       6.0  T
   3   -189.9507089  0.539674E-08  0.216E-04    1.32      41.3  T
   4   -189.9507089 -0.684821E-08  0.502E-05    1.32     177.3  T
     SCC iter.                  ...        0 min,  0.073 sec
     gradient                   ...        0 min,  0.024 sec
 * total energy  :  -186.6130684 Eh     change       -0.6584729E-06 Eh
   gradient norm :     0.0001479 Eh/α   predicted    -0.2940325E-06 ( -55.35%)
   displ. norm   :     0.0286960 α      lambda       -0.4785057E-06
   maximum displ.:     0.0147407 α      in ANC's #9, #4, #11, ...

........................................................................
.............................. CYCLE   46 ..............................
........................................................................

 iter      E             dE          RMSdq      gap      omega  full diag
   1   -189.9507635 -0.189951E+03  0.287E-03    1.32       0.0  T
   2   -189.9507635 -0.298601E-08  0.169E-03    1.32       5.3  T
   3   -189.9507635  0.195769E-08  0.154E-04    1.32      57.7  T
   4   -189.9507635 -0.307725E-08  0.444E-05    1.32     200.7  T
     SCC iter.                  ...        0 min,  0.075 sec
     gradient                   ...        0 min,  0.024 sec
 * total energy  :  -186.6130689 Eh     change       -0.5755767E-06 Eh
   gradient norm :     0.0001887 Eh/α   predicted    -0.2412974E-06 ( -58.08%)
   displ. norm   :     0.0361805 α      lambda       -0.5502250E-06
   maximum displ.:     0.0185074 α      in ANC's #9, #4, #2, ...

........................................................................
.............................. CYCLE   47 ..............................
........................................................................

 iter      E             dE          RMSdq      gap      omega  full diag
   1   -189.9508104 -0.189951E+03  0.353E-03    1.32       0.0  T
   2   -189.9508104 -0.376016E-08  0.207E-03    1.32       4.3  T
   3   -189.9508104  0.280710E-08  0.179E-04    1.32      49.7  T
   4   -189.9508104 -0.422480E-08  0.457E-05    1.32     195.1  T
     SCC iter.                  ...        0 min,  0.075 sec
     gradient                   ...        0 min,  0.024 sec
 * total energy  :  -186.6130697 Eh     change       -0.7156411E-06 Eh
   gradient norm :     0.0002081 Eh/α   predicted    -0.2783819E-06 ( -61.10%)
   displ. norm   :     0.0605086 α      lambda       -0.9455616E-06
   maximum displ.:     0.0308085 α      in ANC's #9, #4, #2, ...

........................................................................
.............................. CYCLE   48 ..............................
........................................................................

 iter      E             dE          RMSdq      gap      omega  full diag
   1   -189.9508303 -0.189951E+03  0.593E-03    1.32       0.0  T
   2   -189.9508303 -0.983303E-08  0.348E-03    1.32       2.6  T
   3   -189.9508303  0.668135E-08  0.286E-04    1.32      31.2  T
   4   -189.9508303 -0.103834E-07  0.704E-05    1.32     126.5  T
     SCC iter.                  ...        0 min,  0.076 sec
     gradient                   ...        0 min,  0.024 sec
 * total energy  :  -186.6130708 Eh     change       -0.1164879E-05 Eh
   gradient norm :     0.0001835 Eh/α   predicted    -0.4738799E-06 ( -59.32%)
   displ. norm   :     0.0816698 α      lambda       -0.1085442E-05
   maximum displ.:     0.0416259 α      in ANC's #9, #4, #2, ...

........................................................................
.............................. CYCLE   49 ..............................
........................................................................

 iter      E             dE          RMSdq      gap      omega  full diag
   1   -189.9508176 -0.189951E+03  0.808E-03    1.32       0.0  T
   2   -189.9508176 -0.175899E-07  0.474E-03    1.32       1.9  T
   3   -189.9508176  0.120563E-07  0.382E-04    1.32      23.3  T
   4   -189.9508176 -0.188269E-07  0.950E-05    1.32      93.8  T
     SCC iter.                  ...        0 min,  0.073 sec
     gradient                   ...        0 min,  0.024 sec
 * total energy  :  -186.6130721 Eh     change       -0.1248295E-05 Eh
   gradient norm :     0.0001296 Eh/α   predicted    -0.5453032E-06 ( -56.32%)
   displ. norm   :     0.0794734 α      lambda       -0.7902694E-06
   maximum displ.:     0.0405791 α      in ANC's #9, #4, #2, ...

........................................................................
.............................. CYCLE   50 ..............................
........................................................................

 iter      E             dE          RMSdq      gap      omega  full diag
   1   -189.9507729 -0.189951E+03  0.790E-03    1.32       0.0  T
   2   -189.9507730 -0.163174E-07  0.463E-03    1.32       1.9  T
   3   -189.9507730  0.122647E-07  0.373E-04    1.32      23.9  T
   4   -189.9507730 -0.187806E-07  0.927E-05    1.32      96.1  T
     SCC iter.                  ...        0 min,  0.076 sec
     gradient                   ...        0 min,  0.024 sec
 * total energy  :  -186.6130729 Eh     change       -0.8536478E-06 Eh
   gradient norm :     0.0001009 Eh/α   predicted    -0.3972040E-06 ( -53.47%)
   displ. norm   :     0.0551863 α      lambda       -0.4625548E-06
   maximum displ.:     0.0281505 α      in ANC's #9, #4, #2, ...

........................................................................
.............................. CYCLE   51 ..............................
........................................................................

 iter      E             dE          RMSdq      gap      omega  full diag
   1   -189.9507300 -0.189951E+03  0.556E-03    1.32       0.0  T
   2   -189.9507300 -0.724768E-08  0.326E-03    1.32       2.7  T
   3   -189.9507300  0.625732E-08  0.254E-04    1.32      35.0  T
   4   -189.9507300 -0.933716E-08  0.635E-05    1.32     140.3  T
     SCC iter.                  ...        0 min,  0.075 sec
     gradient                   ...        0 min,  0.024 sec
 * total energy  :  -186.6130735 Eh     change       -0.5392544E-06 Eh
   gradient norm :     0.0001065 Eh/α   predicted    -0.2362187E-06 ( -56.20%)
   displ. norm   :     0.0539669 α      lambda       -0.4986838E-06
   maximum displ.:     0.0271009 α      in ANC's #9, #4, #2, ...

........................................................................
.............................. CYCLE   52 ..............................
........................................................................

 iter      E             dE          RMSdq      gap      omega  full diag
   1   -189.9506619 -0.189951E+03  0.565E-03    1.32       0.0  T
   2   -189.9506619 -0.681698E-08  0.331E-03    1.32       2.7  T
   3   -189.9506619  0.529838E-08  0.239E-04    1.32      37.2  T
   4   -189.9506619 -0.833290E-08  0.635E-05    1.32     140.3  T
     SCC iter.                  ...        0 min,  0.077 sec
     gradient                   ...        0 min,  0.024 sec
 * total energy  :  -186.6130740 Eh     change       -0.5755700E-06 Eh
   gradient norm :     0.0001077 Eh/α   predicted    -0.2535457E-06 ( -55.95%)
   displ. norm   :     0.0449765 α      lambda       -0.4130371E-06
   maximum displ.:     0.0217557 α      in ANC's #9, #4, #2, ...

........................................................................
.............................. CYCLE   53 ..............................
........................................................................

 iter      E             dE          RMSdq      gap      omega  full diag
   1   -189.9505794 -0.189951E+03  0.498E-03    1.32       0.0  T
   2   -189.9505794 -0.446707E-08  0.292E-03    1.32       3.1  T
   3   -189.9505794  0.205767E-08  0.175E-04    1.32      50.9  T
   4   -189.9505795 -0.417785E-08  0.546E-05    1.32     163.2  T
     SCC iter.                  ...        0 min,  0.074 sec
     gradient                   ...        0 min,  0.024 sec
 * total energy  :  -186.6130745 Eh     change       -0.4315609E-06 Eh
   gradient norm :     0.0001029 Eh/α   predicted    -0.2104022E-06 ( -51.25%)
   displ. norm   :     0.0247310 α      lambda       -0.2239336E-06
   maximum displ.:     0.0113002 α      in ANC's #4, #9, #2, ...

........................................................................
.............................. CYCLE   54 ..............................
........................................................................

 iter      E             dE          RMSdq      gap      omega  full diag
   1   -189.9505464 -0.189951E+03  0.289E-03    1.32       0.0  T
   2   -189.9505464 -0.146144E-08  0.170E-03    1.32       5.2  T
   3   -189.9505464 -0.160242E-09  0.737E-05    1.32     120.9  T
   4   -189.9505464 -0.528843E-09  0.331E-05    1.32     269.0  T
     SCC iter.                  ...        0 min,  0.074 sec
     gradient                   ...        0 min,  0.024 sec
 * total energy  :  -186.6130747 Eh     change       -0.2585231E-06 Eh
   gradient norm :     0.0000670 Eh/α   predicted    -0.1169968E-06 ( -54.74%)
   displ. norm   :     0.0278602 α      lambda       -0.2504018E-06
   maximum displ.:     0.0127493 α      in ANC's #4, #9, #2, ...

........................................................................
.............................. CYCLE   55 ..............................
........................................................................

 iter      E             dE          RMSdq      gap      omega  full diag
   1   -189.9505422 -0.189951E+03  0.327E-03    1.32       0.0  T
   2   -189.9505422 -0.219632E-08  0.192E-03    1.32       4.6  T
   3   -189.9505422 -0.164277E-10  0.944E-05    1.32      94.4  T
   4   -189.9505422 -0.903697E-09  0.392E-05    1.32     227.4  T
     SCC iter.                  ...        0 min,  0.074 sec
     gradient                   ...        0 min,  0.024 sec
 * total energy  :  -186.6130750 Eh     change       -0.2975086E-06 Eh
   gradient norm :     0.0000601 Eh/α   predicted    -0.1290123E-06 ( -56.64%)
   displ. norm   :     0.0323841 α      lambda       -0.2960777E-06
   maximum displ.:     0.0146314 α      in ANC's #4, #9, #2, ...

........................................................................
.............................. CYCLE   56 ..............................
........................................................................

 iter      E             dE          RMSdq      gap      omega  full diag
   1   -189.9505891 -0.189951E+03  0.383E-03    1.32       0.0  T
   2   -189.9505891 -0.373919E-08  0.225E-03    1.32       4.0  T
   3   -189.9505891  0.432863E-08  0.197E-04    1.32      45.3  T
   4   -189.9505891 -0.593730E-08  0.480E-05    1.32     185.7  T
     SCC iter.                  ...        0 min,  0.075 sec
     gradient                   ...        0 min,  0.024 sec
 * total energy  :  -186.6130754 Eh     change       -0.3397092E-06 Eh
   gradient norm :     0.0001084 Eh/α   predicted    -0.1506915E-06 ( -55.64%)
   displ. norm   :     0.0335807 α      lambda       -0.3014631E-06
   maximum displ.:     0.0148893 α      in ANC's #4, #2, #9, ...

........................................................................
.............................. CYCLE   57 ..............................
........................................................................

 iter      E             dE          RMSdq      gap      omega  full diag
   1   -189.9506721 -0.189951E+03  0.406E-03    1.32       0.0  T
   2   -189.9506721 -0.493426E-08  0.238E-03    1.32       3.7  T
   3   -189.9506721  0.824713E-08  0.252E-04    1.32      35.4  T
   4   -189.9506721 -0.102850E-07  0.505E-05    1.32     176.2  T
     SCC iter.                  ...        0 min,  0.076 sec
     gradient                   ...        0 min,  0.024 sec
 * total energy  :  -186.6130757 Eh     change       -0.3406849E-06 Eh
   gradient norm :     0.0001269 Eh/α   predicted    -0.1536655E-06 ( -54.90%)
   displ. norm   :     0.0264399 α      lambda       -0.2412441E-06
   maximum displ.:     0.0115200 α      in ANC's #4, #2, #1, ...

........................................................................
.............................. CYCLE   58 ..............................
........................................................................

 iter      E             dE          RMSdq      gap      omega  full diag
   1   -189.9507397 -0.189951E+03  0.333E-03    1.32       0.0  T
   2   -189.9507397 -0.383551E-08  0.195E-03    1.32       4.6  T
   3   -189.9507397  0.628415E-08  0.221E-04    1.32      40.3  T
   4   -189.9507397 -0.779835E-08  0.429E-05    1.32     207.7  T
     SCC iter.                  ...        0 min,  0.074 sec
     gradient                   ...        0 min,  0.024 sec
 * total energy  :  -186.6130760 Eh     change       -0.2655689E-06 Eh
   gradient norm :     0.0000974 Eh/α   predicted    -0.1233959E-06 ( -53.54%)
   displ. norm   :     0.0210771 α      lambda       -0.1815611E-06
   maximum displ.:     0.0090863 α      in ANC's #4, #2, #1, ...

........................................................................
.............................. CYCLE   59 ..............................
........................................................................

 iter      E             dE          RMSdq      gap      omega  full diag
   1   -189.9507721 -0.189951E+03  0.272E-03    1.32       0.0  T
   2   -189.9507721 -0.261204E-08  0.159E-03    1.32       5.6  T
   3   -189.9507721  0.307952E-08  0.164E-04    1.32      54.3  T
   4   -189.9507721 -0.404148E-08  0.355E-05    1.32     250.9  T
     SCC iter.                  ...        0 min,  0.075 sec
     gradient                   ...        0 min,  0.024 sec
 * total energy  :  -186.6130762 Eh     change       -0.1926101E-06 Eh
   gradient norm :     0.0000509 Eh/α   predicted    -0.9236015E-07 ( -52.05%)
   displ. norm   :     0.0176568 α      lambda       -0.1402192E-06
   maximum displ.:     0.0074349 α      in ANC's #4, #5, #1, ...

........................................................................
.............................. CYCLE   60 ..............................
........................................................................

 iter      E             dE          RMSdq      gap      omega  full diag
   1   -189.9507538 -0.189951E+03  0.223E-03    1.32       0.0  T
   2   -189.9507538 -0.173290E-08  0.131E-03    1.32       6.8  T
   3   -189.9507538  0.133028E-08  0.121E-04    1.32      73.6  T
   4   -189.9507538 -0.193066E-08  0.290E-05    1.32     306.9  T
     SCC iter.                  ...        0 min,  0.074 sec
     gradient                   ...        0 min,  0.024 sec
 * total energy  :  -186.6130763 Eh     change       -0.1576228E-06 Eh
   gradient norm :     0.0000639 Eh/α   predicted    -0.7198315E-07 ( -54.33%)
   displ. norm   :     0.0200834 α      lambda       -0.1554691E-06
   maximum displ.:     0.0082088 α      in ANC's #4, #5, #1, ...

........................................................................
.............................. CYCLE   61 ..............................
........................................................................

 iter      E             dE          RMSdq      gap      omega  full diag
   1   -189.9506933 -0.189951E+03  0.246E-03    1.32       0.0  T
   2   -189.9506933 -0.210090E-08  0.144E-03    1.32       6.2  T
   3   -189.9506933  0.167890E-08  0.137E-04    1.32      64.8  T
   4   -189.9506933 -0.241849E-08  0.313E-05    1.32     284.9  T
     SCC iter.                  ...        0 min,  0.077 sec
     gradient                   ...        0 min,  0.024 sec
 * total energy  :  -186.6130765 Eh     change       -0.1782251E-06 Eh
   gradient norm :     0.0000980 Eh/α   predicted    -0.7943807E-07 ( -55.43%)
   displ. norm   :     0.0211995 α      lambda       -0.1534568E-06
   maximum displ.:     0.0085572 α      in ANC's #4, #5, #1, ...

........................................................................
.............................. CYCLE   62 ..............................
........................................................................

 iter      E             dE          RMSdq      gap      omega  full diag
   1   -189.9506173 -0.189951E+03  0.258E-03    1.32       0.0  T
   2   -189.9506173 -0.239348E-08  0.151E-03    1.32       5.9  T
   3   -189.9506173  0.234428E-08  0.155E-04    1.32      57.3  T
   4   -189.9506173 -0.323251E-08  0.343E-05    1.32     259.9  T
     SCC iter.                  ...        0 min,  0.074 sec
     gradient                   ...        0 min,  0.024 sec
 * total energy  :  -186.6130767 Eh     change       -0.1659327E-06 Eh
   gradient norm :     0.0000955 Eh/α   predicted    -0.7747432E-07 ( -53.31%)
   displ. norm   :     0.0159955 α      lambda       -0.1016658E-06
   maximum displ.:     0.0065568 α      in ANC's #4, #5, #1, ...

........................................................................
.............................. CYCLE   63 ..............................
........................................................................

 iter      E             dE          RMSdq      gap      omega  full diag
[...]
  81: 10.92  82: 10.93  83: 11.00  84: 10.72  85: 11.34  86: 11.29  87:  9.85  88:  9.78
  89:  9.72  90: 10.29  91: 10.29  92: 10.67  93: 10.68  94: 10.68  95:  9.95  96: 10.06
  97: 10.06  98: 10.06  99:  9.93 100:  9.92 101:  9.94 102: 10.65 103: 10.65 104: 10.49
 105: 12.09 106: 10.38 107: 10.36 108: 10.13 109: 11.34 110: 11.33 111: 11.10 112: 11.44
 113: 11.44 114: 11.52 115: 11.59 116: 11.59 117: 11.23 118: 10.04 119: 10.05 120: 11.06
 121: 11.07 122: 11.14 123: 11.51 124: 11.51 125: 11.47 126: 11.52 127: 11.51 128: 11.52
 129: 11.14 130: 11.40 131: 11.37 132: 11.09 133: 11.09 134: 11.02 135:  3.68 136:  4.45
 137:  3.77 138:  4.72 139:  6.55 140:  3.33 141:  5.09 142:  7.04 143:  7.20 144:  7.56
 145:  7.37 146:  7.43 147:  7.29 148: 11.95 149: 11.95 150:  3.52 151:  3.54 152:  3.53
 153:  3.53 154:  3.49 155:  3.38 156:  3.47 157:  3.35 158:  3.31 159:  3.85 160:  3.91
 161:  3.92 162:  3.80 163:  4.23 164:  4.42 165:  9.69 166: 10.92 167: 10.31 168: 10.73
 169:  3.12 170:  3.89 171:  3.23 172:  3.13 173:  3.18 174:  3.32 175:  3.24 176:  3.17
 177:  3.15 178:  4.33 179: 11.11 180: 11.56 181:  4.41 182:  4.25 183:  8.33 184:  8.38
 185:  8.40 186:  4.58 187:  4.61 188:  4.60 189: 10.10 190:  3.30 191:  3.29 192:  3.32
 193:  8.36 194:  8.42 195: 12.70 196:  8.81 197:  8.81 198:  8.81 199:  7.79 200:  7.68
 201:  7.83 202:  9.57 203:  6.96 204:  6.92 205:  6.99 206:  2.81 207:  5.93 208:  5.83
 209:  5.79 210:  3.00 211:  2.84 212:  5.22 213:  5.23 214:  5.24 215: 10.10 216: 10.08
 217: 10.07 218:  4.23 219:  4.33 220:  5.71 221:  5.68 222:  5.47 223:  2.30 224:  2.38
 225:  3.05 226:  1.77 227:  1.38 228:  2.79 229:  2.77 230:  2.83 231:  3.18 232:  7.45
 233: 12.73 234:  9.39 235:  9.35 236:  8.62 237:  8.61 238:  8.69 239:  3.95 240:  4.11
 241:  4.02 242:  3.64 243:  3.63 244:  3.54 245:  4.59 246:  4.62 247:  4.62 248:  7.90
 249:  7.87 250:  7.82 251: 10.04 252: 10.69 253: 10.64 254: 11.46 255: 11.43 256: 11.50
 257: 11.80 258: 11.80 259: 11.83 260: 11.90 261: 11.89 262: 11.88 263: 10.36 264: 10.31
 265: 10.31 266: 11.79 267: 11.79 268: 11.11 269:  2.98 270:  2.98 271:  3.02 272: 10.41
 273: 10.40 274: 10.24 275:  2.98 276:  2.98 277:  2.99 278:  9.28 279:  9.26 280:  9.26
 281:  9.89 282:  9.87 283:  9.87 284: 10.04 285: 10.03 286:  8.91 287:  8.90 288:  8.88
 289: 10.07 290:  1.59 291:  1.61 292:  1.63 293:  1.60 294:  1.61 295:  1.60 296:  9.94
 297:  9.86 298:  8.54 299:  2.99 300:  1.59 301:  1.77 302: 11.55 303: 11.14 304:  3.56
 305:  3.18 306:  3.29 307: 11.73 308: 11.75 309: 11.75 310: 11.59 311: 11.59 312: 11.59
 313: 11.57 314: 11.64 315: 11.64 316: 11.67 317: 11.44 318: 11.53 319: 11.62 320: 11.59
 321: 11.45 322: 11.51 323: 11.51 324: 11.51 325:  1.84 326:  1.84 327:  1.84 328:  1.78
 329:  1.78 330:  1.78 331:  1.95 332:  1.95 333:  1.95 334:  1.94 335:  1.94 336:  1.94
 337:  1.36 338:  1.36 339:  1.36 340:  1.41 341:  1.41 342:  1.41 343:  1.76 344:  1.77
 345:  1.77 346:  1.76 347:  1.76 348:  1.76 349:  1.81 350:  1.81 351:  1.80 352:  1.81
 353:  1.80 354:  1.80 355:  1.81 356:  1.81 357:  1.81 358:  1.81 359:  1.81 360:  1.82
 361:  1.86 362:  1.86 363:  1.86 364:  1.85 365:  1.85 366:  1.84 367:  1.88 368:  1.88
 369:  1.88 370:  1.88 371:  1.88 372:  1.88 373:  1.86 374:  1.86 375:  1.86 376:  1.86
 377:  1.85 378:  1.85
 IR intensities (km·mol⁻¹)
   1:  0.00   2:  0.00   3:  0.00   4:  0.00   5:  0.00   6:  0.00   7:  0.07   8:  0.18
   9:  0.08  10:  0.06  11:  0.04  12:  0.03  13:  0.19  14:  0.09  15:  0.01  16:  0.14
  17:  0.07  18:  5.21  19:  4.58  20:  7.75  21:  0.02  22:  0.30  23:  0.13  24:  0.10
  25:  0.00  26:  0.01  27:  0.00  28:  1.24  29:  1.26  30:  0.35  31:  0.64  32:  0.03
  33:  0.26  34:  0.14  35:  0.06  36:  0.17  37:  0.23  38:  1.30  39:  1.05  40:  0.00
  41:  0.01  42:  1.07  43:  0.07  44:  0.20  45:  0.14  46:  0.05  47:  0.04  48:  2.48
  49:  0.05  50:  1.59  51:  4.10  52:  0.01  53:  0.06  54:  0.06  55:  0.29  56:  0.21
  57:  0.00  58:  0.09  59:  0.08  60:  0.87  61:  0.10  62:  0.08  63:  0.99  64:  0.94
  65:  0.76  66:  0.72  67:  1.00  68:  0.10  69:  0.25  70:  0.43  71:  0.78  72: 15.72
  73: 21.15  74: 25.69  75:  0.48  76:  1.50  77:  1.02  78:  0.25  79:  5.62  80:  5.44
  81:  0.02  82:  0.08  83:  6.44  84:  0.02  85: 20.70  86: 21.45  87:  6.70  88:  8.45
  89:  7.18  90:  0.34  91:  0.21  92:  2.09  93:  0.39  94:  0.44  95:  7.72  96:  2.12
  97:  1.25  98:  1.63  99:  0.89 100:  0.93 101:  0.95 102:  6.31 103:  6.50 104:  0.10
 105:  0.01 106:  0.03 107:  0.00 108:  9.63 109:  0.01 110:  0.02 111: 18.16 112:  0.14
 113:  0.12 114:  4.77 115:  0.28 116:  0.21 117:  0.00 118:  0.26 119:  0.15 120:  5.90
 121:  6.03 122:  0.01 123: 10.70 124: 10.64 125:  2.72 126:  5.08 127:  3.96 128:  7.93
 129: 24.19 130:  1.41 131:  1.37 132: 26.97 133: 27.24 134:  0.01 135: 30.44 136: 42.38
 137: 53.91 138: 10.95 139: 28.82 140: 19.62 141:  8.78 142:  0.98 143:  0.77 144:  0.40
 145:  0.98 146:  0.81 147:  0.89 148: 30.70 149: 30.99 150:  0.14 151:  0.07 152:  0.10
 153:  0.06 154:  0.25 155:  1.40 156:  1.43 157: 13.71 158: 15.13 159:  0.90 160:  1.70
 161:  1.40 162:  0.31 163:  0.23 164:  0.49 165:  5.06 166:  0.30 167:  1.12 168: 51.78
 169:  0.34 170:  0.73 171:  0.51 172:  0.40 173:  0.36 174:  0.20 175:  0.27 176:  0.34
 177:  1.75 178:  0.03 179:  3.44 180:  3.57 181:  0.86 182:  0.68 183:  0.00 184:  0.03
 185:  0.02 186:  0.44 187:  0.35 188:  0.42 189:  0.01 190:  0.11 191:  0.08 192:  0.03
 193:  7.57 194:  7.09 195:  0.00 196:  0.07 197:  0.07 198:  0.06 199: 29.06 200: 16.30
 201: 42.62 202:  0.28 203:  0.13 204:  0.02 205:  0.05 206:  0.73 207:  1.72 208:  1.82
 209:  2.77 210:  1.73 211:  1.86 212: 16.34 213: 17.91 214: 12.04 215: 11.60 216: 11.75
 217: 11.76 218:119.90 219:121.95 220: 59.43 221: 64.24 222:  8.86 223:  0.54 224:  0.38
 225:  0.24 226:  0.02 227:  1.87 228:  2.21 229:  0.94 230:  0.56 231:  1.48 232:  0.02
 233:  0.02 234:  2.97 235:  3.40 236:  0.09 237:  1.97 238:  1.40 239:  1.07 240:  0.61
 241:  0.43 242: 11.75 243:  0.49 244:  0.79 245: 47.59 246: 49.25 247: 54.52 248:  5.31
 249:  7.20 250:  8.78 251:  2.23 252:392.79 253:395.59 254:234.68 255:269.23 256:129.10
 257: 17.95 258: 18.07 259:  3.08 260:  2.06 261: 27.91 262: 26.62 263:430.82 264:219.96
 265:819.53 266:****** 267:****** 268:  0.02 269:  3.98 270:  4.15 271:  6.22 272:246.41
 273:241.63 274:  1.74 275:  0.42 276:  0.38 277:  0.46 278: 12.62 279: 12.69 280:  5.96
 281:185.30 282:235.65 283:495.31 284:242.91 285:246.76 286: 50.10 287: 45.87 288:885.90
 289:  0.30 290:  0.57 291:  0.01 292:  1.05 293:  0.27 294:  0.24 295:  0.84 296:412.97
 297:413.13 298:  1.21 299:  0.45 300:  2.16 301:  0.18 302:983.90 303:941.78 304:163.16
 305:112.05 306:116.89 307:  2.49 308:155.65 309:157.13 310: 59.30 311:  0.07 312:  9.44
 313:  2.08 314:223.88 315:224.68 316:  3.54 317: 88.96 318: 42.72 319: 58.53 320: 89.77
 321:123.02 322: 12.45 323: 40.42 324: 41.75 325: 57.43 326: 59.81 327: 59.66 328: 17.10
 329: 23.75 330: 23.96 331:  1.63 332:  2.36 333:  3.92 334: 88.60 335: 87.18 336: 88.05
 337: 14.07 338: 13.58 339: 12.20 340:101.17 341:105.93 342:106.91 343: 12.13 344: 21.69
 345: 11.23 346: 10.99 347: 10.60 348:  6.98 349: 51.61 350: 54.73 351: 51.02 352: 62.96
 353: 32.59 354: 55.80 355: 11.51 356: 23.43 357: 83.02 358: 32.88 359:118.37 360:136.80
 361: 89.39 362: 99.64 363: 74.34 364:249.75 365:253.30 366:140.53 367:108.22 368: 39.80
 369:169.04 370: 15.14 371: 17.81 372: 21.83 373: 13.69 374: 26.71 375: 20.46 376: 14.48
 377: 23.56 378:  6.10
 Raman intensities (Ä⁴*amu⁻¹)
   1:  0.00   2:  0.00   3:  0.00   4:  0.00   5:  0.00   6:  0.00   7:  0.00   8:  0.00
   9:  0.00  10:  0.00  11:  0.00  12:  0.00  13:  0.00  14:  0.00  15:  0.00  16:  0.00
  17:  0.00  18:  0.00  19:  0.00  20:  0.00  21:  0.00  22:  0.00  23:  0.00  24:  0.00
  25:  0.00  26:  0.00  27:  0.00  28:  0.00  29:  0.00  30:  0.00  31:  0.00  32:  0.00
  33:  0.00  34:  0.00  35:  0.00  36:  0.00  37:  0.00  38:  0.00  39:  0.00  40:  0.00
  41:  0.00  42:  0.00  43:  0.00  44:  0.00  45:  0.00  46:  0.00  47:  0.00  48:  0.00
  49:  0.00  50:  0.00  51:  0.00  52:  0.00  53:  0.00  54:  0.00  55:  0.00  56:  0.00
  57:  0.00  58:  0.00  59:  0.00  60:  0.00  61:  0.00  62:  0.00  63:  0.00  64:  0.00
  65:  0.00  66:  0.00  67:  0.00  68:  0.00  69:  0.00  70:  0.00  71:  0.00  72:  0.00
  73:  0.00  74:  0.00  75:  0.00  76:  0.00  77:  0.00  78:  0.00  79:  0.00  80:  0.00
  81:  0.00  82:  0.00  83:  0.00  84:  0.00  85:  0.00  86:  0.00  87:  0.00  88:  0.00
  89:  0.00  90:  0.00  91:  0.00  92:  0.00  93:  0.00  94:  0.00  95:  0.00  96:  0.00
  97:  0.00  98:  0.00  99:  0.00 100:  0.00 101:  0.00 102:  0.00 103:  0.00 104:  0.00
 105:  0.00 106:  0.00 107:  0.00 108:  0.00 109:  0.00 110:  0.00 111:  0.00 112:  0.00
 113:  0.00 114:  0.00 115:  0.00 116:  0.00 117:  0.00 118:  0.00 119:  0.00 120:  0.00
 121:  0.00 122:  0.00 123:  0.00 124:  0.00 125:  0.00 126:  0.00 127:  0.00 128:  0.00
 129:  0.00 130:  0.00 131:  0.00 132:  0.00 133:  0.00 134:  0.00 135:  0.00 136:  0.00
 137:  0.00 138:  0.00 139:  0.00 140:  0.00 141:  0.00 142:  0.00 143:  0.00 144:  0.00
 145:  0.00 146:  0.00 147:  0.00 148:  0.00 149:  0.00 150:  0.00 151:  0.00 152:  0.00
 153:  0.00 154:  0.00 155:  0.00 156:  0.00 157:  0.00 158:  0.00 159:  0.00 160:  0.00
 161:  0.00 162:  0.00 163:  0.00 164:  0.00 165:  0.00 166:  0.00 167:  0.00 168:  0.00
 169:  0.00 170:  0.00 171:  0.00 172:  0.00 173:  0.00 174:  0.00 175:  0.00 176:  0.00
 177:  0.00 178:  0.00 179:  0.00 180:  0.00 181:  0.00 182:  0.00 183:  0.00 184:  0.00
 185:  0.00 186:  0.00 187:  0.00 188:  0.00 189:  0.00 190:  0.00 191:  0.00 192:  0.00
 193:  0.00 194:  0.00 195:  0.00 196:  0.00 197:  0.00 198:  0.00 199:  0.00 200:  0.00
 201:  0.00 202:  0.00 203:  0.00 204:  0.00 205:  0.00 206:  0.00 207:  0.00 208:  0.00
 209:  0.00 210:  0.00 211:  0.00 212:  0.00 213:  0.00 214:  0.00 215:  0.00 216:  0.00
 217:  0.00 218:  0.00 219:  0.00 220:  0.00 221:  0.00 222:  0.00 223:  0.00 224:  0.00
 225:  0.00 226:  0.00 227:  0.00 228:  0.00 229:  0.00 230:  0.00 231:  0.00 232:  0.00
 233:  0.00 234:  0.00 235:  0.00 236:  0.00 237:  0.00 238:  0.00 239:  0.00 240:  0.00
 241:  0.00 242:  0.00 243:  0.00 244:  0.00 245:  0.00 246:  0.00 247:  0.00 248:  0.00
 249:  0.00 250:  0.00 251:  0.00 252:  0.00 253:  0.00 254:  0.00 255:  0.00 256:  0.00
 257:  0.00 258:  0.00 259:  0.00 260:  0.00 261:  0.00 262:  0.00 263:  0.00 264:  0.00
 265:  0.00 266:  0.00 267:  0.00 268:  0.00 269:  0.00 270:  0.00 271:  0.00 272:  0.00
 273:  0.00 274:  0.00 275:  0.00 276:  0.00 277:  0.00 278:  0.00 279:  0.00 280:  0.00
 281:  0.00 282:  0.00 283:  0.00 284:  0.00 285:  0.00 286:  0.00 287:  0.00 288:  0.00
 289:  0.00 290:  0.00 291:  0.00 292:  0.00 293:  0.00 294:  0.00 295:  0.00 296:  0.00
 297:  0.00 298:  0.00 299:  0.00 300:  0.00 301:  0.00 302:  0.00 303:  0.00 304:  0.00
 305:  0.00 306:  0.00 307:  0.00 308:  0.00 309:  0.00 310:  0.00 311:  0.00 312:  0.00
 313:  0.00 314:  0.00 315:  0.00 316:  0.00 317:  0.00 318:  0.00 319:  0.00 320:  0.00
 321:  0.00 322:  0.00 323:  0.00 324:  0.00 325:  0.00 326:  0.00 327:  0.00 328:  0.00
 329:  0.00 330:  0.00 331:  0.00 332:  0.00 333:  0.00 334:  0.00 335:  0.00 336:  0.00
 337:  0.00 338:  0.00 339:  0.00 340:  0.00 341:  0.00 342:  0.00 343:  0.00 344:  0.00
 345:  0.00 346:  0.00 347:  0.00 348:  0.00 349:  0.00 350:  0.00 351:  0.00 352:  0.00
 353:  0.00 354:  0.00 355:  0.00 356:  0.00 357:  0.00 358:  0.00 359:  0.00 360:  0.00
 361:  0.00 362:  0.00 363:  0.00 364:  0.00 365:  0.00 366:  0.00 367:  0.00 368:  0.00
 369:  0.00 370:  0.00 371:  0.00 372:  0.00 373:  0.00 374:  0.00 375:  0.00 376:  0.00
 377:  0.00 378:  0.00
 output can be read by thermo (or use thermo option).
 writing <g98.out> molden fake output.
 recommended (thermochemical) frequency scaling factor: 1.0
           -------------------------------------------------
          |             Thermodynamic Functions             |
           -------------------------------------------------

Molecule has no symmetry elements
It seems to be the C1 point group
c1  symmetry found (for desy threshold:  0.10E+00) used in thermo

          ...................................................
          :                      SETUP                      :
          :.................................................:
          :  # frequencies                         372      :
          :  # imaginary freq.                       0      :
          :  linear?                             false      :
          :  only rotor calc.                    false      :
          :  symmetry                               c1      :
          :  rotational number                       1      :
          :  scaling factor                  1.0000000      :
          :  rotor cutoff                   50.0000000 cm⁻¹ :
          :  imag. cutoff                  -20.0000000 cm⁻¹ :
          :.................................................:

    mode    ω/cm⁻¹     T·S(HO)/kcal·mol⁻¹    T·S(FR)/kcal·mol⁻¹   T·S(vib)
   ------------------------------------------------------------------------
       1      6.83    -2.61398 (  0.03%)    -1.64607 ( 99.97%)    -1.64641
       2      8.47    -2.48669 (  0.08%)    -1.58242 ( 99.92%)    -1.58317
       3     10.17    -2.37843 (  0.17%)    -1.52829 ( 99.83%)    -1.52974
       4     12.26    -2.26803 (  0.36%)    -1.47308 ( 99.64%)    -1.47594
       5     13.28    -2.22049 (  0.50%)    -1.44930 ( 99.50%)    -1.45312
       6     13.95    -2.19110 (  0.60%)    -1.43460 ( 99.40%)    -1.43916
       7     20.92    -1.95145 (  2.97%)    -1.31471 ( 97.03%)    -1.33363
       8     22.28    -1.91413 (  3.79%)    -1.29603 ( 96.21%)    -1.31947
       9     23.54    -1.88162 (  4.68%)    -1.27976 ( 95.32%)    -1.30793
      10     29.47    -1.74850 ( 10.77%)    -1.21311 ( 89.23%)    -1.27080
      11     31.37    -1.71162 ( 13.42%)    -1.19464 ( 86.58%)    -1.26400
      12     39.20    -1.57998 ( 27.41%)    -1.12866 ( 72.59%)    -1.25239
      13     47.67    -1.46444 ( 45.24%)    -1.07068 ( 54.76%)    -1.24883
      14     48.73    -1.45144 ( 47.44%)    -1.06415 ( 52.56%)    -1.24786
      15     53.10    -1.40080 ( 55.99%)    -1.03871 ( 44.01%)    -1.24146
      16     59.46    -1.33425 ( 66.66%)    -1.00523 ( 33.34%)    -1.22456
      17     64.30    -1.28816 ( 73.23%)    -0.98201 ( 26.77%)    -1.20621
      18     64.71    -1.28444 ( 73.73%)    -0.98013 ( 26.27%)    -1.20449
      19     85.26    -1.12282 ( 89.42%)    -0.89844 ( 10.58%)    -1.09909
      20     91.98    -1.07857 ( 91.97%)    -0.87598 (  8.03%)    -1.06230
      21     93.91    -1.06648 ( 92.56%)    -0.86984 (  7.44%)    -1.05185
      22    101.10    -1.02353 ( 94.36%)    -0.84796 (  5.64%)    -1.01362
      23    101.75    -1.01980 ( 94.49%)    -0.84606 (  5.51%)    -1.01023
      24    102.41    -1.01610 ( 94.62%)    -0.84417 (  5.38%)    -1.00685
      25    103.58    -1.00947 ( 94.85%)    -0.84079 (  5.15%)    -1.00078
      26    105.78    -0.99730 ( 95.25%)    -0.83457 (  4.75%)    -0.98956
      27    107.59    -0.98743 ( 95.54%)    -0.82953 (  4.46%)    -0.98039
      28    136.04    -0.85237 ( 98.21%)    -0.76004 (  1.79%)    -0.85071
      29    137.08    -0.84802 ( 98.26%)    -0.75778 (  1.74%)    -0.84645
      30    141.56    -0.82967 ( 98.47%)    -0.74826 (  1.53%)    -0.82842
      31    144.83    -0.81667 ( 98.60%)    -0.74149 (  1.40%)    -0.81562
      32    147.43    -0.80655 ( 98.69%)    -0.73622 (  1.31%)    -0.80563
      33    147.70    -0.80548 ( 98.70%)    -0.73566 (  1.30%)    -0.80457
      34    164.21    -0.74559 ( 99.15%)    -0.70428 (  0.85%)    -0.74524
      35    166.03    -0.73939 ( 99.18%)    -0.70101 (  0.82%)    -0.73908
      36    185.09    -0.67874 ( 99.47%)    -0.66883 (  0.53%)    -0.67868
      37    195.02    -0.64983 ( 99.57%)    -0.65334 (  0.43%)    -0.64985
      38    200.98    -0.63331 ( 99.62%)    -0.64443 (  0.38%)    -0.63335
      39    202.28    -0.62978 ( 99.63%)    -0.64252 (  0.37%)    -0.62982
      40    202.78    -0.62842 ( 99.63%)    -0.64178 (  0.37%)    -0.62847
      41    204.24    -0.62449 ( 99.64%)    -0.63965 (  0.36%)    -0.62454
      42    217.97    -0.58911 ( 99.72%)    -0.62038 (  0.28%)    -0.58920
      43    218.90    -0.58681 ( 99.73%)    -0.61912 (  0.27%)    -0.58689
      44    221.43    -0.58060 ( 99.74%)    -0.61571 (  0.26%)    -0.58069
      45    221.81    -0.57967 ( 99.74%)    -0.61520 (  0.26%)    -0.57976
      46    233.46    -0.55223 ( 99.79%)    -0.60004 (  0.21%)    -0.55233
      47    235.11    -0.54848 ( 99.80%)    -0.59796 (  0.20%)    -0.54858
      48    235.87    -0.54675 ( 99.80%)    -0.59700 (  0.20%)    -0.54685
      49    290.34    -0.43888 ( 99.91%)    -0.53546 (  0.09%)    -0.43896
      50    290.67    -0.43829 ( 99.91%)    -0.53511 (  0.09%)    -0.43838
      51    294.92    -0.43100 ( 99.92%)    -0.53082 (  0.08%)    -0.43108
      52    297.40    -0.42680 ( 99.92%)    -0.52834 (  0.08%)    -0.42688
      53    297.74    -0.42623 ( 99.92%)    -0.52800 (  0.08%)    -0.42631
   ------------------------------------------------------------------------

   temp. (K)  partition function   enthalpy   heat capacity  entropy
                                   cal/mol     cal/K/mol   cal/K/mol   J/K/mol
 298.15  VIB  0.195E+31            36921.878    227.616    232.146
         ROT  0.521E+09              888.752      2.981     42.867
         INT  0.102E+40            37810.630    230.597    275.012
         TR   0.275E+29             1481.254      4.968     46.348
         TOT                       39291.8844   235.5654   321.3603  1344.5716

       T/K    H(0)-H(T)+PV         H(T)/Eh          T*S/Eh         G(T)/Eh
   ------------------------------------------------------------------------
    298.15    0.626156E-01    0.106300E+01    0.152689E+00    0.910309E+00
   ------------------------------------------------------------------------

         :::::::::::::::::::::::::::::::::::::::::::::::::::::
         ::                  THERMODYNAMIC                  ::
         :::::::::::::::::::::::::::::::::::::::::::::::::::::
         :: total free energy        -185.702768123042 Eh   ::
         ::.................................................::
         :: total energy             -186.613076861315 Eh   ::
         :: zero point energy           1.000381793523 Eh   ::
         :: G(RRHO) w/o ZPVE           -0.090073055250 Eh   ::
         :: G(RRHO) contrib.            0.910308738273 Eh   ::
         :::::::::::::::::::::::::::::::::::::::::::::::::::::

optimized geometry written to: xtbopt.xyz


           -------------------------------------------------
          | TOTAL ENERGY             -186.613076861315 Eh   |
          | TOTAL ENTHALPY           -185.550079464420 Eh   |
          | TOTAL FREE ENERGY        -185.702768123042 Eh   |
          | GRADIENT NORM               0.000032381562 Eh/α |
          | HOMO-LUMO GAP               1.319325777956 eV   |
           -------------------------------------------------

------------------------------------------------------------------------
 * finished run on 2025/07/17 at 02:45:23.743     
------------------------------------------------------------------------
 total:
 * wall-time:     0 d,  0 h,  0 min, 21.497 sec
 *  cpu-time:     0 d,  0 h, 12 min, 58.241 sec
 * ratio c/w:    36.202 speedup
 SCF:
 * wall-time:     0 d,  0 h,  0 min,  0.274 sec
 *  cpu-time:     0 d,  0 h,  0 min, 10.860 sec
 * ratio c/w:    39.604 speedup
 ANC optimizer:
 * wall-time:     0 d,  0 h,  0 min,  8.689 sec
 *  cpu-time:     0 d,  0 h,  5 min, 47.528 sec
 * ratio c/w:    39.995 speedup
 analytical hessian:
 * wall-time:     0 d,  0 h,  0 min, 11.989 sec
 *  cpu-time:     0 d,  0 h,  6 min, 50.245 sec
 * ratio c/w:    34.219 speedup

