$hessian                                                                        
        0.4815665848   0.0049752497   0.0439920126  -0.1301911087  -0.0020358424
        0.0553262590  -0.0005105629  -0.0013987482   0.0023117565  -0.0307069148
       -0.0019731520   0.0137002983  -0.0043184909   0.0090333429   0.0076683066
       -0.0011475062  -0.0014155081  -0.0007369648  -0.0004026296   0.0009583521
        0.0000018806  -0.0000395339  -0.0007265225  -0.0004628892  -0.0000071450
        0.0004104004   0.0002082888  -0.0001140899  -0.0000918333  -0.0000152332
        0.0001801465  -0.0000565562  -0.0000477492  -0.0000042735   0.0000273147
        0.0000038080  -0.0000291506   0.0000212660  -0.0000439351  -0.0000234647
       -0.0000522979   0.0000197934  -0.0000379637  -0.0000450224  -0.0000013132
        0.0000449156  -0.0000551869   0.0000386370  -0.0000143986   0.0000086950
       -0.0000046626  -0.0000094906  -0.0000385618  -0.0000089285   0.0000040290
       -0.0000179869  -0.0000074589   0.0000139479  -0.0000014456   0.0000093506
       -0.0000015443   0.0000178307   0.0000078844   0.0000083304   0.0000245460
        0.0000047819  -0.0000261113   0.0000899808  -0.0000384820   0.0000698891
       -0.0000104713   0.0000287599   0.0000353220   0.0000752889  -0.0000020678
        0.0000359726  -0.0000768891   0.0000477806  -0.0000135183   0.0000548291
       -0.0000300745  -0.0000031471  -0.0000145038   0.0000059605   0.0000268992
       -0.0000086252   0.0000053265   0.0000149659   0.0000001517  -0.0000050980
        0.0000042939   0.0000130395  -0.0000032568  -0.0000100929   0.0000054646
        0.0000025812  -0.0000244941   0.0000103237  -0.0000083770  -0.0000395577
       -0.0000027271  -0.0000178085  -0.0000295434   0.0000183218  -0.0000215719
       -0.0000188373  -0.0000573344   0.0000240873  -0.0000301970   0.0004124584
        0.0001252068   0.0000204777  -0.0004160037  -0.0001328116  -0.0000128768
        0.0001998969   0.0001006786  -0.0001815769  -0.0000261411  -0.0000592336
        0.0000301940   0.0000239747   0.0000033167   0.0000350623   0.0000204878
       -0.0000554816   0.0000185382  -0.0000476659   0.0000140959   0.0000336405
       -0.0000359469   0.0000008746  -0.0000364028  -0.0000766608   0.0000439666
        0.0000217891   0.0000115068  -0.0000099726   0.0000092438  -0.0000362127
       -0.0000073790   0.0000034902  -0.0000168495  -0.0000066146  -0.0000111652
       -0.0000013667   0.0000090335   0.0000000282   0.0000177301   0.0000078233
       -0.0000129667   0.0000275013   0.0000056669   0.0000342740   0.0001140024
       -0.0000614506  -0.0000833841  -0.0000316889   0.0000434206  -0.0000531379
        0.0000996780  -0.0000126425  -0.0000317211  -0.0001083943   0.0000571362
        0.0000178238   0.0000861185  -0.0000407052   0.0000102415  -0.0000291051
        0.0000060650  -0.0000286142  -0.0000084533   0.0000067850  -0.0000141088
       -0.0000107554  -0.0000046046  -0.0000053775   0.0000120852  -0.0000030553
        0.0000122838   0.0000089351   0.0000044500   0.0000226839   0.0000153756
       -0.0000084883   0.0000398712  -0.0000012424  -0.0000120436   0.0000252264
        0.0000265846  -0.0000240624   0.0000316769  -0.0000840190   0.0000237160
        0.0000806457  -0.0001244181   0.0001049279   0.0003112725   0.0009404419
        0.0002995155   0.0008028015  -0.0009259335   0.0005169488  -0.0481032255
        0.0229433250  -0.0259586974  -0.2207917462  -0.0416951571  -0.0986602219
       -0.0431942017   0.0113486790   0.0039193336   0.0004436131   0.0003183539
       -0.0004542933   0.0007179568   0.0003736534  -0.0009084509   0.0002023631
        0.0001887205  -0.0004130620  -0.0056768912  -0.0014484915  -0.0019167061
        0.0005673679  -0.0000381678   0.0010602480   0.0005456974   0.0008030068
        0.0009783400  -0.0001108088  -0.0004673614  -0.0005973480  -0.0000196529
       -0.0000188360   0.0000456914  -0.0000022487  -0.0000111348   0.0000016487
        0.0000138879   0.0000084476  -0.0000023703  -0.0000006333   0.0000156450
       -0.0000112003   0.0000070251   0.0000080720   0.0000055528  -0.0000080267
        0.0000133421  -0.0000012131  -0.0000071058   0.0000041333  -0.0000042565
       -0.0000045963  -0.0000020018  -0.0000036708   0.0000002992   0.0000020080
        0.0000036448  -0.0000034159  -0.0000033240   0.0000000457  -0.0000051217
       -0.0000016657  -0.0000054702  -0.0000020648   0.0000045403  -0.0000026157
       -0.0000092944  -0.0000030667   0.0000002876  -0.0000032922  -0.0000083125
        0.0000002868   0.0000032762  -0.0000066106  -0.0000004456   0.0000027992
        0.0000011858   0.0000009688   0.0000069074  -0.0000030081   0.0000035679
        0.0000119749  -0.0000010289   0.0000040410  -0.0000106658   0.0000041501
       -0.0000035330   0.0000006413   0.0000120073  -0.0000075305  -0.0000056526
        0.0000045196   0.0000040122   0.0000072911   0.0000120520  -0.0000005703
        0.0000066326   0.0000039803  -0.0000029745   0.0000048417  -0.0000021512
       -0.0000025841  -0.0000008541   0.0000020387   0.0000053059   0.0000012717
        0.0000002069   0.0000025089   0.0000020581   0.0000006802  -0.0000024183
        0.0000005522   0.0000038171  -0.0000028326   0.0000089437  -0.0000026596
        0.0000004201   0.0000033582  -0.0000073486   0.0000004726  -0.0000034654
       -0.0000065662  -0.0000002390  -0.0000020115   0.0000021740   0.0000012362
       -0.0000050880  -0.0000014871   0.0000020124  -0.0000088308  -0.0000021162
        0.0000011027   0.0000086414  -0.0000044235  -0.0000185416   0.0000273059
        0.0000576897  -0.0000467959   0.0000427250  -0.0001026120   0.0001005486
        0.0049752497   0.5225192636  -0.0024545100   0.0046605142  -0.0591649223
       -0.0059793162  -0.0130815928  -0.0015519238   0.0149232652  -0.0063995362
        0.0000961765   0.0029718820   0.0197224569  -0.0076981016  -0.0176804718
        0.0002816035  -0.0004991447  -0.0007572604   0.0000487607   0.0001462370
        0.0005844723   0.0001451696   0.0000974343  -0.0000102221  -0.0000070046
       -0.0000164060  -0.0000456356  -0.0000783072  -0.0000881260  -0.0000052809
       -0.0002715983   0.0000967156   0.0000491131   0.0000082369   0.0000161015
        0.0000022351   0.0000397570  -0.0000075573   0.0000210183  -0.0000158486
       -0.0000332772   0.0000045212  -0.0000080798  -0.0000264583   0.0000172145
        0.0000020123  -0.0000057888   0.0000103538   0.0000172662  -0.0000034940
       -0.0000045820  -0.0000128710  -0.0000210689  -0.0000231925   0.0000056523
       -0.0000160129  -0.0000010497   0.0000045800  -0.0000029640   0.0000037542
        0.0000031752   0.0000073149   0.0000142661   0.0000021012   0.0000193691
        0.0000006911   0.0000343451   0.0000243643  -0.0000016061  -0.0000200293
       -0.0000098661   0.0000049921  -0.0000067785  -0.0000037857  -0.0000141062
        0.0000227290   0.0000149014   0.0000171939  -0.0000028527   0.0000103672
       -0.0000066638   0.0000095643   0.0000237902  -0.0000126008   0.0000178583
       -0.0000122156  -0.0000006760   0.0000118845  -0.0000159885  -0.0000013652
        0.0000035527   0.0000057102  -0.0000004791   0.0000009836   0.0000072294
       -0.0000015256  -0.0000174984   0.0000098814   0.0000081236  -0.0000122943
        0.0000163250  -0.0000173691  -0.0000287858  -0.0000144948   0.0000073483
        0.0000266196   0.0000351921  -0.0000298224   0.0000796091  -0.0001630678
       -0.0000998642   0.0000008571   0.0001694389   0.0000795508  -0.0000007663
       -0.0000819907  -0.0000735232   0.0001377184   0.0000815890   0.0000228093
        0.0000414446  -0.0000077417  -0.0000050182  -0.0000412563  -0.0000170059
        0.0000097188   0.0000142356  -0.0000338259   0.0000137678   0.0000091056
       -0.0000204639   0.0000131633  -0.0000055502  -0.0000189089   0.0000178581
       -0.0000101349  -0.0000017057  -0.0000174717   0.0000102054  -0.0000224248
       -0.0000164540  -0.0000016831  -0.0000145010  -0.0000083789  -0.0000045197
       -0.0000031504   0.0000017150  -0.0000073592   0.0000077225   0.0000117778
       -0.0000025147   0.0000183832  -0.0000013189  -0.0000110948   0.0000189308
        0.0000031343   0.0000072649  -0.0000237928   0.0000157717   0.0000094346
        0.0000190689  -0.0000267464  -0.0000204895  -0.0000165160   0.0000237378
        0.0000084543   0.0000045922  -0.0000165688  -0.0000059284   0.0000140038
       -0.0000066392  -0.0000186751  -0.0000111906   0.0000007020  -0.0000111007
       -0.0000022185  -0.0000024723  -0.0000038461   0.0000051937  -0.0000017808
        0.0000044995   0.0000106986   0.0000001033   0.0000175489   0.0000044301
        0.0000044049   0.0000121410   0.0000160634  -0.0000112809   0.0000275552
       -0.0000093179  -0.0000031911  -0.0000164445   0.0000234872  -0.0000075334
        0.0001553402  -0.0001458540  -0.0000070515   0.0002397489  -0.0013978459
        0.0007162501  -0.0007382258  -0.0020246250  -0.0014040072   0.0226519723
       -0.1539230056   0.1167570341  -0.0415950392  -0.0535508634  -0.0225302472
        0.0120983232  -0.2417966194  -0.0879024766  -0.0003433568  -0.0023069211
        0.0037882426  -0.0003578071   0.0004191254  -0.0003895168  -0.0007774182
        0.0007410908   0.0005432005  -0.0016418079  -0.0000700993  -0.0004446563
        0.0004654435   0.0002288311  -0.0000152957  -0.0010498477   0.0003152502
        0.0005419484   0.0004328822  -0.0003491377  -0.0007366883   0.0000432943
        0.0000474718  -0.0000195300   0.0000034554  -0.0000094503  -0.0000150031
        0.0000247900   0.0000051784   0.0000068496  -0.0000006810   0.0000093737
       -0.0000082985   0.0000074398   0.0000047125   0.0000066800  -0.0000081331
        0.0000089566  -0.0000013159  -0.0000067420   0.0000008715  -0.0000033137
       -0.0000051898  -0.0000038317  -0.0000043784   0.0000016405  -0.0000008162
        0.0000030193  -0.0000077461  -0.0000034839  -0.0000022764  -0.0000097537
       -0.0000058082  -0.0000020444  -0.0000026235   0.0000039637  -0.0000009362
       -0.0000088469  -0.0000045652   0.0000025248  -0.0000030215  -0.0000081314
        0.0000018678   0.0000025428  -0.0000082691   0.0000007948   0.0000043105
        0.0000013160  -0.0000005892   0.0000060768  -0.0000071031   0.0000060234
        0.0000113347   0.0000042957   0.0000037326  -0.0000177178   0.0000012910
        0.0000066398  -0.0000001171   0.0000051789  -0.0000048831  -0.0000077954
        0.0000016623   0.0000047837   0.0000055985   0.0000081119  -0.0000016667
        0.0000050222   0.0000013104  -0.0000044470   0.0000042232  -0.0000035747
       -0.0000052091  -0.0000027947  -0.0000000449   0.0000031416   0.0000040417
        0.0000013339  -0.0000008044   0.0000045082  -0.0000035131  -0.0000001990
        0.0000002544   0.0000038661  -0.0000021765   0.0000087120  -0.0000031506
        0.0000013623   0.0000036835  -0.0000067773   0.0000010250  -0.0000020475
       -0.0000080296   0.0000001981  -0.0000021605   0.0000024873  -0.0000008310
       -0.0000025649  -0.0000054020   0.0000034033  -0.0000052846   0.0000030222
        0.0000007795  -0.0000190072   0.0000010733   0.0000149685   0.0000612851
       -0.0002178014  -0.0001472488   0.0000701000   0.0001443927  -0.0002720612
        0.0439920126  -0.0024545100   0.4859444522   0.0574776183  -0.0002144288
       -0.1087546066   0.0183410974   0.0052134281  -0.0213851264  -0.0073980503
       -0.0000460599   0.0053441150   0.0113142808  -0.0082346135  -0.0104642701
       -0.0000429208  -0.0001396018   0.0000844808   0.0001247871   0.0000241622
        0.0004010798   0.0001221004  -0.0003874492  -0.0000808031   0.0000115743
        0.0004000374   0.0001079618  -0.0001377484  -0.0002544212  -0.0001695410
       -0.0001734149   0.0002280636   0.0001888334   0.0000502394   0.0000407180
        0.0000117430  -0.0000500035   0.0000207849  -0.0000171807   0.0000277415
       -0.0000410063   0.0000358396   0.0000295708   0.0000118921   0.0000029415
        0.0000284735  -0.0001032998   0.0000697501  -0.0000631059   0.0000156460
       -0.0000539426   0.0000004488  -0.0000172454  -0.0000009851  -0.0000143130
       -0.0000049562  -0.0000151754  -0.0000053851  -0.0000010129  -0.0000035538
       -0.0000172439   0.0000086567   0.0000015677   0.0000202523   0.0000141443
       -0.0000009957  -0.0000810418   0.0000952421  -0.0000877211   0.0000878898
       -0.0000759870   0.0000952140   0.0000418258   0.0001553924  -0.0000517114
       -0.0000014813  -0.0001516702   0.0000615873  -0.0000452024   0.0001158962
       -0.0000679768  -0.0000324994  -0.0000741962   0.0000068552   0.0000221312
        0.0000136219   0.0000071465  -0.0000038816  -0.0000413392   0.0000016281
       -0.0000006810  -0.0000066946   0.0000025152  -0.0000073774  -0.0000146856
        0.0000049896  -0.0000050189   0.0000278303  -0.0000049088   0.0000280314
        0.0000238094   0.0000038494  -0.0000212903   0.0000517983  -0.0000195625
       -0.0000347117  -0.0000880440   0.0000036682   0.0000241440  -0.0002785607
       -0.0001765527  -0.0000161925   0.0003949318   0.0001174703   0.0000095803
       -0.0000604443  -0.0000401083   0.0001892709   0.0001845643   0.0001864960
       -0.0000517326   0.0000179313  -0.0000079961   0.0000159567   0.0000038688
        0.0000212571  -0.0000181067  -0.0000297333   0.0000314538  -0.0000341286
        0.0000114668  -0.0000021664  -0.0000134808  -0.0000553805   0.0000429691
        0.0000414667   0.0000135128  -0.0000451235  -0.0000042431  -0.0000064051
        0.0000043485   0.0000075217  -0.0000000904  -0.0000139625   0.0000055999
        0.0000000185  -0.0000053387   0.0000092553   0.0000041884  -0.0000008320
       -0.0000129402   0.0000026629  -0.0000019725   0.0000518365   0.0000304815
       -0.0000334369  -0.0000407731  -0.0000506388   0.0000594743  -0.0000154751
        0.0000852238  -0.0000376775   0.0000149133  -0.0000830724   0.0000300774
        0.0000222865   0.0000470283  -0.0000399676   0.0000245211  -0.0000431158
        0.0000057708  -0.0000133972   0.0000103002   0.0000046108   0.0000056441
       -0.0000147166   0.0000010801   0.0000021380  -0.0000071836   0.0000016292
        0.0000061012  -0.0000088153   0.0000029270   0.0000006348   0.0000132148
       -0.0000023960  -0.0000339083   0.0000233709   0.0000032323   0.0000154801
        0.0000346442  -0.0000134730   0.0000118378  -0.0000173880  -0.0000047592
        0.0002177354  -0.0002815365  -0.0001586618   0.0001308034  -0.0007360478
        0.0002522168  -0.0004471106   0.0000725023  -0.0012169099  -0.0253697112
        0.1164484909  -0.1677089039  -0.0992875940  -0.0227176164  -0.0968365321
        0.0040633359  -0.0873273047  -0.0824920349   0.0001575069   0.0033822448
       -0.0040877730   0.0009386150  -0.0005142884   0.0006141862   0.0001032230
       -0.0009362561   0.0006709217  -0.0029095906  -0.0008123604  -0.0004327614
       -0.0008719978  -0.0003466323   0.0006539459  -0.0009044785   0.0001654833
        0.0004730462   0.0004533420  -0.0005367588  -0.0008592787   0.0000117030
        0.0000302909  -0.0000560644  -0.0000226449   0.0000012023  -0.0000314880
       -0.0000026570  -0.0000031666  -0.0000012876  -0.0000042971  -0.0000060841
       -0.0000042859   0.0000027085  -0.0000029211  -0.0000034289  -0.0000015284
       -0.0000003997  -0.0000030575   0.0000021635  -0.0000023625   0.0000011279
       -0.0000003615  -0.0000006905   0.0000018534  -0.0000008890   0.0000028328
        0.0000054069   0.0000057999   0.0000063632  -0.0000010536   0.0000067316
       -0.0000012277   0.0000052635   0.0000034600  -0.0000021084  -0.0000026544
        0.0000015333  -0.0000006127   0.0000000158   0.0000012793   0.0000034485
        0.0000016756  -0.0000015567   0.0000008662   0.0000032043  -0.0000045935
        0.0000003455   0.0000036618  -0.0000074732  -0.0000019479  -0.0000030961
       -0.0000092948  -0.0000088660   0.0000031969   0.0000102693  -0.0000000830
        0.0000010589   0.0000028444  -0.0000082510   0.0000010434  -0.0000005569
       -0.0000053271  -0.0000051995  -0.0000016604  -0.0000032721  -0.0000025069
       -0.0000027924  -0.0000027205  -0.0000003250  -0.0000005045  -0.0000012519
       -0.0000001436  -0.0000002657   0.0000011496   0.0000025193  -0.0000063587
        0.0000061396  -0.0000020579  -0.0000075967  -0.0000018452   0.0000047910
       -0.0000037268  -0.0000024439  -0.0000021800  -0.0000019188  -0.0000000146
       -0.0000003411  -0.0000012430   0.0000035017   0.0000010655   0.0000010638
        0.0000005562   0.0000021559   0.0000036863   0.0000004372   0.0000021683
        0.0000069785  -0.0000017644  -0.0000029333   0.0000090886  -0.0000066068
        0.0000052894   0.0000004131   0.0000062038  -0.0000050667  -0.0000478697
       -0.0001160049   0.0000368227  -0.0000025271  -0.0000750520  -0.0001158022
       -0.1301911087   0.0046605142   0.0574776183   0.4754054903   0.0102531601
        0.0146579293  -0.0633119738   0.0099755348  -0.0133258704  -0.1475268410
       -0.0270059179  -0.0505760150  -0.0636839518   0.0038223234  -0.0028857176
        0.0026696612  -0.0180328787  -0.0068365112  -0.0022109090  -0.0022693353
       -0.0040972572  -0.0004187659   0.0015581053   0.0008616987  -0.0000170152
       -0.0009500523  -0.0002234636   0.0001323671   0.0000142856   0.0000185640
       -0.0001837793  -0.0000359320   0.0000041679   0.0000316750  -0.0000253745
       -0.0000075290   0.0000832867  -0.0000219255   0.0000818886   0.0000111192
        0.0000775405  -0.0000343816   0.0000223628   0.0000438746  -0.0000061938
       -0.0000667148   0.0001040288  -0.0000863029   0.0000465883  -0.0000195474
        0.0000521100  -0.0000053439   0.0000364818   0.0000123135   0.0000033354
        0.0000166752   0.0000107723  -0.0000099649   0.0000017352  -0.0000078406
        0.0000127507  -0.0000212017  -0.0000138154  -0.0000291872  -0.0000361132
       -0.0000100581   0.0000618184  -0.0001550580   0.0000993478  -0.0001224645
        0.0000387395  -0.0000900975  -0.0000686713  -0.0001593380   0.0000377288
       -0.0000450228   0.0001613325  -0.0000938798   0.0000330564  -0.0001445278
        0.0000739015   0.0000196375   0.0000512791   0.0000003967  -0.0000444199
       -0.0000015269  -0.0000069114  -0.0000166506   0.0000447371   0.0000017852
       -0.0000044880  -0.0000123711   0.0000005071   0.0000114809   0.0000059975
       -0.0000054752   0.0000310199  -0.0000385754   0.0000017417   0.0000442115
       -0.0000021581   0.0000202478   0.0000422240  -0.0000455263   0.0000177557
        0.0000421221   0.0001446627  -0.0000272615  -0.0000967278  -0.0006726858
       -0.0001611142  -0.0000251915   0.0005723379   0.0002240066   0.0000056805
       -0.0003711040  -0.0001449755   0.0003193130   0.0000370714   0.0000756807
       -0.0001123593   0.0000005310   0.0000156452  -0.0000290506  -0.0000025620
        0.0000659923  -0.0000202160   0.0000826239  -0.0000402541  -0.0000322615
        0.0000564950  -0.0000220795   0.0000625100   0.0001166618  -0.0000884210
       -0.0000362747  -0.0000169563   0.0000591937  -0.0000141750   0.0000624082
        0.0000213233  -0.0000079449   0.0000277077   0.0000209347   0.0000100111
        0.0000055582  -0.0000054894   0.0000005753  -0.0000217065  -0.0000143123
        0.0000246727  -0.0000435153  -0.0000047345  -0.0000620770  -0.0001506178
        0.0000809172   0.0001144334   0.0000690746  -0.0000909923   0.0000585279
       -0.0001612066   0.0000549972   0.0000431577   0.0001736072  -0.0000984396
       -0.0000313072  -0.0001196612   0.0000778915  -0.0000197611   0.0000430068
       -0.0000020753   0.0000504763   0.0000105327  -0.0000075844   0.0000192902
        0.0000208781   0.0000053942   0.0000056802  -0.0000117103   0.0000030996
       -0.0000163100  -0.0000077052  -0.0000055371  -0.0000347677  -0.0000284056
        0.0000051044  -0.0000495443  -0.0000132450   0.0000166320  -0.0000454478
       -0.0000332865   0.0000300089  -0.0000389260   0.0001027685  -0.0000249810
       -0.0002503344   0.0003022632  -0.0001247747  -0.0034622799   0.0020710951
       -0.0028776950  -0.0014995769   0.0213303573   0.0077807382   0.0013479768
       -0.0011865115   0.0005381352  -0.0248142532  -0.0002336160   0.0144134217
       -0.0044090103   0.0027025569   0.0042931619   0.0014521180  -0.0144397718
        0.0169844486  -0.0066194848   0.0156005636  -0.0196435361  -0.0002580368
        0.0020088943  -0.0013875822  -0.0249578029  -0.0069491451  -0.0093266603
       -0.0067237718   0.0000795541  -0.0059288460   0.0004890407  -0.0021661955
       -0.0007285765  -0.0002398523  -0.0005924266   0.0004800077  -0.0002435694
       -0.0010976626  -0.0007069195   0.0000450872   0.0000614904   0.0000118025
       -0.0000154436   0.0000019662   0.0000150633   0.0000053235  -0.0000107775
        0.0000046149  -0.0000036045  -0.0000027803  -0.0000032627   0.0000053084
       -0.0000090805  -0.0000000666   0.0000071436  -0.0000016646   0.0000028724
        0.0000063072   0.0000053730   0.0000036013  -0.0000019836   0.0000012218
       -0.0000070692   0.0000009136  -0.0000036816  -0.0000039702   0.0000036086
        0.0000002608  -0.0000034120  -0.0000016627  -0.0000034053   0.0000023886
        0.0000097226   0.0000033143  -0.0000028349   0.0000030925   0.0000078931
       -0.0000035921  -0.0000037796   0.0000088423  -0.0000029995  -0.0000036145
       -0.0000030675  -0.0000027539  -0.0000046901   0.0000032710  -0.0000039681
       -0.0000101057   0.0000071098  -0.0000058988   0.0000142433   0.0000035796
        0.0000066924  -0.0000047586  -0.0000123287   0.0000142732   0.0000106475
       -0.0000039665  -0.0000048341  -0.0000116551  -0.0000155082   0.0000050918
       -0.0000081043  -0.0000018028   0.0000074123  -0.0000071579   0.0000057686
        0.0000070065   0.0000028678  -0.0000011690  -0.0000073155  -0.0000024085
       -0.0000030122  -0.0000018692  -0.0000030055   0.0000031502  -0.0000011930
        0.0000006423  -0.0000050613   0.0000054777  -0.0000135949   0.0000053740
       -0.0000009274  -0.0000042755   0.0000097971  -0.0000016075   0.0000035161
        0.0000107327  -0.0000015696   0.0000020444  -0.0000034018  -0.0000016979
        0.0000036527   0.0000048973  -0.0000022842   0.0000062655   0.0000081464
       -0.0000018087   0.0000108413  -0.0000076665  -0.0000259508  -0.0003284084
        0.0010352270   0.0005509425  -0.0003130582  -0.0002895393   0.0005465994
       -0.0020358424  -0.0591649223  -0.0002144288   0.0102531601   0.4717215548
        0.0157498746   0.0095522585  -0.1099874007   0.0517369271  -0.0250920501
       -0.0718783150  -0.0156708916   0.0095447780  -0.1609706004  -0.0455602604
       -0.0081992978  -0.0175838478  -0.0112925637  -0.0017414918   0.0036220626
       -0.0012030044   0.0002990238  -0.0028001179  -0.0010729727   0.0000097399
        0.0009950123   0.0007324751  -0.0001749847   0.0002335502   0.0001610748
        0.0010005550  -0.0004217120  -0.0003363464  -0.0001316219  -0.0000314488
       -0.0000203142  -0.0001659483   0.0000053667  -0.0001595796   0.0000362754
       -0.0000428056   0.0000152131  -0.0000523724  -0.0000564070   0.0000271877
        0.0000757378  -0.0000356525   0.0000838979  -0.0000366979   0.0000155829
       -0.0000883034   0.0000127668  -0.0000125302  -0.0000297896  -0.0000136073
       -0.0000073154  -0.0000014665   0.0000018617  -0.0000068088   0.0000033353
       -0.0000209688   0.0000069344   0.0000135927   0.0000371270   0.0000209045
        0.0000141528  -0.0000237461   0.0001081665  -0.0000878413   0.0001017853
        0.0000224081   0.0000827307   0.0000836323   0.0001013710  -0.0000162991
        0.0000324654  -0.0000953386   0.0000708399  -0.0000022881   0.0001322314
       -0.0000520976  -0.0000101266  -0.0000256949  -0.0000249320   0.0000260928
        0.0000095662  -0.0000074986   0.0000041938  -0.0000847081   0.0000077456
        0.0000023734   0.0000021430   0.0000038877   0.0000120437  -0.0000221069
       -0.0000020628  -0.0000132197   0.0000510651   0.0000259807  -0.0000619601
       -0.0000243044  -0.0000236614  -0.0000296049   0.0000254552   0.0000216498
       -0.0000760877  -0.0002023173   0.0000588040  -0.0001858967   0.0018504826
        0.0006506990   0.0000469691  -0.0017585562  -0.0008409295  -0.0000310135
        0.0011312877   0.0004882861  -0.0008258615  -0.0005316039  -0.0003401307
        0.0001015352  -0.0000064401  -0.0000281795   0.0001530486   0.0000136570
       -0.0001327855  -0.0000140266  -0.0000421192   0.0000514129   0.0000398380
       -0.0000416916   0.0000119006  -0.0000651581  -0.0000212768   0.0000703367
        0.0000223943   0.0000149538  -0.0001046897  -0.0000134566  -0.0000209066
       -0.0000180138   0.0000125466  -0.0000028192  -0.0000187496  -0.0000009182
       -0.0000067352  -0.0000048546  -0.0000027753   0.0000027547   0.0000050746
       -0.0000251943   0.0000096024   0.0000069626   0.0000446337   0.0000258410
       -0.0000130030  -0.0000679429   0.0000167372   0.0000649857  -0.0000353975
        0.0000625898  -0.0000367988  -0.0000142451  -0.0000880482   0.0000560934
       -0.0000074500   0.0000300826  -0.0000456863   0.0000103052  -0.0000109530
       -0.0000115023  -0.0000246638   0.0000066204  -0.0000080146  -0.0000005184
       -0.0000139950   0.0000034882  -0.0000002874  -0.0000005463  -0.0000002027
       -0.0000012320  -0.0000053011  -0.0000025922   0.0000088945   0.0000189472
        0.0000164212   0.0000575467  -0.0000211518  -0.0000130295   0.0000219210
        0.0000207044   0.0000011747   0.0000663950  -0.0001799624   0.0000755184
        0.0000494166   0.0002590522   0.0003709625   0.0034581727   0.0021826114
       -0.0002128439   0.0089250537  -0.0202338746  -0.0071315937  -0.0143194015
       -0.0002554644   0.0135343380  -0.0049166711  -0.0002029949   0.0036799664
        0.0204544733  -0.0040771682  -0.0187452607  -0.0015925840  -0.0009966661
        0.0024037864   0.0006380032   0.0030641703  -0.0025807976   0.0048001650
       -0.0251776027   0.0199998758  -0.0012942498  -0.0002322374   0.0004709405
        0.0150762318   0.0043875106   0.0098473832  -0.0228412437  -0.0120560236
       -0.0158663138   0.0007756132  -0.0000805457   0.0011193856   0.0000841274
       -0.0002449966  -0.0000678820   0.0000040678  -0.0000767568  -0.0000622132
        0.0000211680  -0.0000090607  -0.0000101455  -0.0000012173  -0.0000039064
        0.0000080303   0.0000019380  -0.0000021655   0.0000035674  -0.0000000918
       -0.0000049902  -0.0000003953   0.0000008761  -0.0000056632   0.0000032343
       -0.0000016025  -0.0000044849   0.0000013337   0.0000041053  -0.0000052163
        0.0000039654   0.0000012342   0.0000077562   0.0000055813  -0.0000005192
       -0.0000006921   0.0000126790   0.0000023959  -0.0000005460   0.0000030513
        0.0000001737  -0.0000021489   0.0000049160   0.0000018501   0.0000001237
        0.0000050149  -0.0000004405  -0.0000037214   0.0000053698   0.0000082794
        0.0000007006  -0.0000005835   0.0000024261   0.0000008457   0.0000009083
        0.0000088602  -0.0000091703   0.0000092528  -0.0000016265  -0.0000180366
       -0.0000127122   0.0000031318  -0.0000119120   0.0000071873  -0.0000001214
       -0.0000069121  -0.0000028233  -0.0000023659  -0.0000085186  -0.0000054584
       -0.0000046400  -0.0000069322  -0.0000032465  -0.0000017676  -0.0000055480
       -0.0000044857  -0.0000068735  -0.0000058762  -0.0000008401  -0.0000075347
        0.0000111569   0.0000015862  -0.0000081599  -0.0000006222   0.0000122574
       -0.0000040093  -0.0000018325  -0.0000008364  -0.0000008707  -0.0000016741
        0.0000000861  -0.0000014496   0.0000019403   0.0000010875   0.0000011368
       -0.0000026558   0.0000024513  -0.0000042550   0.0000012982  -0.0000028005
        0.0000028154   0.0000034921  -0.0000035829   0.0000017435  -0.0000101859
        0.0000054255  -0.0000353262  -0.0000645488   0.0000485790  -0.0001597558
       -0.0004326335  -0.0001147120  -0.0015946258   0.0002721528   0.0004290763
        0.0553262590  -0.0059793162  -0.1087546066   0.0146579293   0.0157498746
        0.4645104684  -0.0145672882   0.0613753808  -0.1235554822  -0.0497167298
       -0.0165395835  -0.0928068150  -0.0003616516  -0.0487657693  -0.0748347886
       -0.0024885056  -0.0150944166  -0.0082445173  -0.0034814401  -0.0017048414
        0.0025677523  -0.0001544454  -0.0002525996  -0.0007656310  -0.0000391999
        0.0004318858  -0.0002489177   0.0001142030   0.0001935956   0.0000860515
        0.0000137202  -0.0000239737  -0.0000656293  -0.0000143173  -0.0000286302
        0.0000118531  -0.0000088619  -0.0000098543   0.0000127070   0.0000177175
        0.0000322088  -0.0000220652   0.0000044031   0.0000085425   0.0000077935
       -0.0000176752   0.0000655309  -0.0000285565   0.0000164670  -0.0000059986
       -0.0000015353   0.0000070464   0.0000280632  -0.0000054535  -0.0000034330
        0.0000116483   0.0000045417  -0.0000075865  -0.0000009042  -0.0000066647
       -0.0000003026  -0.0000135253  -0.0000063227  -0.0000042238  -0.0000194782
       -0.0000033727   0.0000384022  -0.0000747457   0.0000341713  -0.0000588795
        0.0000370526  -0.0000396728  -0.0000113129  -0.0000835997   0.0000080636
       -0.0000312459   0.0000874061  -0.0000434395   0.0000237953  -0.0000553106
        0.0000352289   0.0000091912   0.0000268656  -0.0000129120  -0.0000295389
        0.0000094698  -0.0000107626  -0.0000140830  -0.0000043987   0.0000064894
       -0.0000043952  -0.0000099219   0.0000037950   0.0000161578  -0.0000064964
       -0.0000048259   0.0000239753  -0.0000080230   0.0000133121   0.0000179604
       -0.0000060034   0.0000132989   0.0000383743  -0.0000269628   0.0000290272
        0.0000097656   0.0000018430  -0.0000398726   0.0002586825   0.0003219770
        0.0001660015   0.0000247538  -0.0002824798  -0.0001690600  -0.0000042613
        0.0001949975   0.0000976339  -0.0003148891  -0.0001685847  -0.0001599496