$hessian                                                                        
        0.2862880066   0.1786013782  -0.1866002188  -0.1160276059  -0.0023019315
        0.1193998783  -0.0161839087  -0.0503350701   0.0242805120  -0.0092231031
        0.0146487461   0.0133917201   0.0065110591  -0.0034991851  -0.0185958934
        0.0045569792  -0.0062495753   0.0025917260  -0.0003615267  -0.0005886863
       -0.0002965427   0.0001138844   0.0002422867  -0.0005305896  -0.0001110172
        0.0001210259   0.0002974477   0.0000087357  -0.0002278650  -0.0000509883
       -0.0000008992   0.0000398109   0.0000497449  -0.0000023978   0.0000066894
       -0.0000130294   0.0000060282   0.0000077013   0.0000054893  -0.0000011404
        0.0000035792  -0.0000014390  -0.0000021415   0.0000046037  -0.0000067291
       -0.0000019074  -0.0000032302   0.0000033259  -0.0000015536  -0.0000048062
        0.0000017555  -0.0000057359   0.0000088773  -0.0000000645  -0.0000007334
       -0.0000062404   0.0000058201  -0.0000023297   0.0000001469  -0.0000020432
       -0.0000005972  -0.0000018751   0.0000014757  -0.0000072903  -0.0000216594
        0.0000114895   0.0000113825   0.0000350577   0.0000206404  -0.0000128754
        0.0000063288   0.0000001196  -0.0000040372   0.0000072329  -0.0000043567
       -0.0000275429  -0.0000181776   0.0000072616   0.0000280313   0.0000230279
       -0.0000039028  -0.0000144913   0.0000068848   0.0000041069   0.0000043908
       -0.0000097413  -0.0000014808  -0.0000045558  -0.0000016306   0.0000042737
        0.0000019292   0.0000035052   0.0000029373  -0.0000000894  -0.0000034299
        0.0000036324  -0.0000002979   0.0000076493   0.0000030706   0.0000066983
       -0.0000018565  -0.0000008191  -0.0000035176  -0.0000001571   0.0000011599
        0.0000032421  -0.0000015267   0.0000007759  -0.0000001715  -0.0000045973
        0.0000002085   0.0000008206   0.0000046673   0.0000037150   0.0000003688
       -0.0000221154   0.0000032365   0.0000127049  -0.0000041729   0.0000000268
        0.0000110352  -0.0000109111   0.0000086325  -0.0000033706   0.0000374409
        0.0000095721   0.0000132660   0.0000043502   0.0000109364  -0.0000079704
        0.0000039814   0.0000084901   0.0000273687  -0.0000193451   0.0000023779
       -0.0000260114   0.0000220486  -0.0000024354   0.0000070295  -0.0000200513
       -0.0000130652   0.0000001398   0.0000057719   0.0000013011   0.0000027894
       -0.0000014364  -0.0000022381  -0.0000024397   0.0000023689  -0.0000029978
       -0.0000000648  -0.0000007323  -0.0000025885  -0.0000080949   0.0000002438
       -0.0000048948   0.0000003747   0.0000057161   0.0000003248  -0.0000017319
       -0.0000005843  -0.0000042624  -0.0000010756   0.0000043797  -0.0000012704
        0.0000026694  -0.0000019657  -0.0000025151   0.0000025690  -0.0000067532
       -0.0000053287   0.0000064987   0.0000029692   0.0000080330  -0.0000070573
       -0.0000012530  -0.0000116506   0.0000025214  -0.0000063689  -0.0000182052
        0.0000922191   0.0002315943  -0.0008275805   0.0003314980   0.0008980525
        0.0004706353  -0.0620703525  -0.0326799641   0.0016112817  -0.0970809053
       -0.1088635485   0.0303817528   0.0012956458  -0.0001575712   0.0032029064
        0.0003116368   0.0005519953  -0.0001615618   0.0000441682  -0.0002317893
        0.0001122132  -0.0000090476  -0.0000531559  -0.0000196479  -0.0000018844
        0.0000017156  -0.0000054081  -0.0000039166  -0.0000002902  -0.0000042430
       -0.0000012483   0.0000005449  -0.0000012683  -0.0000032992   0.0000020505
        0.0000014349  -0.0000028528   0.0000004734   0.0000020140  -0.0000044269
        0.0000034858  -0.0000006433   0.0000001115   0.0000038034   0.0000063239
        0.0000005216   0.0000036646   0.0000003867  -0.0000066998   0.0000011943
       -0.0000074084  -0.0000029244   0.0000006246   0.0000007361  -0.0000013254
        0.0000040368   0.0000023773  -0.0000009443   0.0000010528   0.0000028316
        0.0000022495  -0.0000005892   0.0000020135   0.0000015101   0.0000015449
        0.0000024886   0.0000021091   0.0000005399   0.0000009685   0.0000002488
        0.0000020939   0.0000017467  -0.0000014748   0.0000000807   0.0000014451
       -0.0000003348  -0.0000016216  -0.0000002549   0.0000003642   0.0000019456
       -0.0000019588   0.0000004104  -0.0000029458  -0.0000002284  -0.0000005135
       -0.0000025451   0.0000081577   0.0000006486  -0.0000015621  -0.0000026560
       -0.0000011081  -0.0000006933  -0.0000027506  -0.0000000947   0.0000004991
       -0.0000009292   0.0000004279   0.0000014588  -0.0000015535  -0.0000011288
       -0.0000006504  -0.0000028606  -0.0000011024   0.0000021473  -0.0000028823
       -0.0000002326   0.0000001666  -0.0000035443   0.0000046089   0.0000004092
       -0.0000000196  -0.0000009865  -0.0000004722  -0.0000018018  -0.0000043949
        0.0000012567   0.0000025946   0.0000024000  -0.0000018419   0.0000026814
        0.0000269222   0.0000344249   0.0000558704   0.0000374118  -0.0001200222
        0.0001922381   0.0014748461   0.0098768669   0.0110184345
        0.1786013782   0.6055628042   0.0749598875  -0.0368358645  -0.0891713122
        0.0409371495  -0.0217286673   0.0073026080   0.0315044055   0.0094079188
       -0.0091251334  -0.0186378997  -0.0252032990  -0.0566140874   0.0023846404
       -0.0051122306   0.0003685215   0.0023394901   0.0003493881   0.0005949563
       -0.0003000796   0.0000627061   0.0001475868   0.0002760276   0.0001359473
       -0.0000248330  -0.0000892621  -0.0000233941  -0.0000512901  -0.0000266497
        0.0000051096   0.0000035687   0.0000133487   0.0000013927   0.0000247978
       -0.0000026779   0.0000007597   0.0000072077   0.0000098103   0.0000017871
        0.0000059265  -0.0000017235  -0.0000004769  -0.0000009907   0.0000009415
       -0.0000001298  -0.0000008663   0.0000014822  -0.0000005859   0.0000000106
        0.0000012376  -0.0000006407   0.0000025156   0.0000021016  -0.0000032615
        0.0000007573  -0.0000014260   0.0000010543  -0.0000007050   0.0000019826
       -0.0000035868  -0.0000036250  -0.0000067785  -0.0000046664  -0.0000170478
        0.0000038476   0.0000072545   0.0000129091   0.0000053896   0.0000049728
        0.0000106417  -0.0000008734   0.0000007971   0.0000029509  -0.0000033679
        0.0000020448   0.0000022321  -0.0000024722  -0.0000067662  -0.0000040656
        0.0000002101   0.0000061279  -0.0000030774  -0.0000010967   0.0000018850
        0.0000049284  -0.0000017035  -0.0000000745  -0.0000040172  -0.0000029852
        0.0000005861  -0.0000023266   0.0000007125  -0.0000021234  -0.0000021406
       -0.0000008730  -0.0000009744  -0.0000030702   0.0000003574  -0.0000030130
       -0.0000030235   0.0000015956  -0.0000001313  -0.0000013502  -0.0000013553
       -0.0000007511  -0.0000021247  -0.0000008737   0.0000022713   0.0000017208
       -0.0000023241   0.0000028347  -0.0000028680  -0.0000006989  -0.0000006297
        0.0000073985   0.0000013805   0.0000029371  -0.0000040095   0.0000006237
        0.0000118084   0.0000079481  -0.0000054970   0.0000030638   0.0000151832
        0.0000015219  -0.0000029088   0.0000063280   0.0000185991  -0.0000047230
        0.0000037037   0.0000001937   0.0000025957  -0.0000028891   0.0000011581
        0.0000038944  -0.0000019701  -0.0000003072   0.0000001160   0.0000030002
        0.0000026160  -0.0000024865   0.0000015281  -0.0000011424  -0.0000008559
        0.0000022262  -0.0000006100   0.0000009910   0.0000001721  -0.0000005348
        0.0000010470  -0.0000020205   0.0000016914  -0.0000007192   0.0000005416
        0.0000003593   0.0000007997   0.0000028045   0.0000000768   0.0000000817
        0.0000012288  -0.0000002356  -0.0000013987   0.0000013129   0.0000020486
       -0.0000040420  -0.0000002643  -0.0000011015  -0.0000015552   0.0000017172
        0.0000009348  -0.0000053968   0.0000001728  -0.0000037412   0.0000035696
       -0.0000049818  -0.0000089222  -0.0000025391  -0.0000025450  -0.0000151054
       -0.0004194857   0.0000660304   0.0002378238  -0.0008720523  -0.0020256560
       -0.0010374883   0.0004396309  -0.2310224132  -0.1577867337  -0.1091625519
       -0.2282920856   0.0467578229   0.0091849419   0.0002157263  -0.0197837977
        0.0006183626   0.0006608052  -0.0004590432   0.0001537892  -0.0000930082
       -0.0000901475  -0.0000066621   0.0000474950   0.0000546779  -0.0000029387
       -0.0000091555  -0.0000111405  -0.0000000817  -0.0000000600  -0.0000070227
       -0.0000005823   0.0000004788  -0.0000001928  -0.0000000142   0.0000005953
       -0.0000017372  -0.0000007465   0.0000016261  -0.0000017007  -0.0000017362
        0.0000014841  -0.0000026177  -0.0000007287   0.0000004383  -0.0000013707
        0.0000006148   0.0000013992   0.0000001773  -0.0000042915  -0.0000047302
        0.0000009593  -0.0000048616  -0.0000025089  -0.0000011809   0.0000009030
       -0.0000003622   0.0000021010  -0.0000004041   0.0000002975   0.0000014909
       -0.0000035700  -0.0000022435   0.0000005356  -0.0000017902  -0.0000025903
       -0.0000004794  -0.0000008831  -0.0000022516  -0.0000006715  -0.0000002414
       -0.0000027056  -0.0000005724   0.0000004076  -0.0000020964  -0.0000011902
       -0.0000013615  -0.0000000278  -0.0000003603  -0.0000003614  -0.0000031789
        0.0000020409  -0.0000013472  -0.0000040731   0.0000018745  -0.0000063801
        0.0000042042   0.0000101226   0.0000004408  -0.0000022828   0.0000034327
        0.0000007495   0.0000001469   0.0000001498   0.0000004094  -0.0000003975
       -0.0000010261   0.0000011292  -0.0000001567  -0.0000008338   0.0000014949
        0.0000003956  -0.0000000629   0.0000012472   0.0000005916   0.0000007908
        0.0000019805   0.0000009560   0.0000011239   0.0000027501   0.0000021044
        0.0000017931   0.0000009588  -0.0000025498  -0.0000001412   0.0000012625
       -0.0000009213   0.0000001453   0.0000024651  -0.0000020737   0.0000014414
       -0.0000010133  -0.0000595063  -0.0000850872   0.0002836986   0.0000429338
       -0.0000955765   0.0001276204   0.0014340519  -0.0010618318
       -0.1866002188   0.0749598875   0.5403955805   0.0908376013  -0.0267283747
       -0.2502048983   0.0479129627   0.0890617704   0.0000394625   0.0095277998
       -0.0293445325  -0.0526591094  -0.0395500656  -0.0391669097   0.0401381800
        0.0034450687   0.0028200848   0.0033707065   0.0004660418  -0.0001919575
       -0.0008519692   0.0001899165   0.0003038292   0.0001971729   0.0000818064
       -0.0002725320  -0.0002454273  -0.0000016317   0.0002342318   0.0001408075
        0.0000031133  -0.0000432055  -0.0000539996   0.0000071519   0.0000126815
        0.0000270739  -0.0000069417  -0.0000047059  -0.0000045949  -0.0000028141
        0.0000025652   0.0000013862  -0.0000007146  -0.0000102359   0.0000106075
       -0.0000024532   0.0000049836   0.0000016588  -0.0000032734   0.0000063749
       -0.0000039808  -0.0000003912  -0.0000077545   0.0000008114  -0.0000054052
        0.0000107461  -0.0000102685  -0.0000055608   0.0000043267   0.0000087900
       -0.0000027483  -0.0000003795  -0.0000088937   0.0000019490   0.0000160296
       -0.0000113521  -0.0000102994  -0.0000449727  -0.0000240424   0.0000240985
       -0.0000014304   0.0000003645   0.0000008035  -0.0000154765   0.0000074790
        0.0000494231   0.0000359576  -0.0000076341  -0.0000528432  -0.0000410200
        0.0000123138   0.0000294849  -0.0000166496  -0.0000024276  -0.0000003625
        0.0000164788   0.0000021976   0.0000098597  -0.0000001994   0.0000000783
       -0.0000030004  -0.0000066771  -0.0000007770   0.0000006726   0.0000027634
        0.0000032361  -0.0000023322  -0.0000132507  -0.0000010338  -0.0000122335
        0.0000018626   0.0000036956   0.0000017861  -0.0000026406   0.0000029127
       -0.0000038032  -0.0000013907   0.0000027287   0.0000028414   0.0000050218
        0.0000036312   0.0000053115  -0.0000086341  -0.0000072691   0.0000011233
        0.0000437857   0.0000014638  -0.0000142410   0.0000074352  -0.0000007257
       -0.0000053968   0.0000178306  -0.0000104201   0.0000169077  -0.0000508571
       -0.0000204178  -0.0000215823   0.0000063454   0.0000016670   0.0000062256
       -0.0000083630  -0.0000169506  -0.0000478297   0.0000300679  -0.0000098391
        0.0000573321  -0.0000402550   0.0000026238  -0.0000105144   0.0000371257
        0.0000192512  -0.0000043237  -0.0000091196  -0.0000084135  -0.0000063647
        0.0000055899  -0.0000008962   0.0000031195  -0.0000019789  -0.0000009908
       -0.0000020546   0.0000053151  -0.0000063913   0.0000153869   0.0000005098
        0.0000032095   0.0000031764  -0.0000155738  -0.0000055059   0.0000006966
        0.0000000145  -0.0000004044   0.0000029892  -0.0000040719  -0.0000060930
       -0.0000091429  -0.0000010868  -0.0000071580  -0.0000008920   0.0000173723
        0.0000031151  -0.0000212543  -0.0000110294  -0.0000237849   0.0000166318
       -0.0000002006   0.0000084256  -0.0000055992   0.0000051485   0.0000160959
        0.0000284850   0.0003667676   0.0002850006  -0.0006403855  -0.0003720148
        0.0001795210   0.0305862879  -0.0945411548  -0.1867943397   0.0299685027
        0.0462782226  -0.0537546623   0.0106981243  -0.0019143733  -0.0198662543
        0.0000764009  -0.0005159464   0.0000630441  -0.0000122414  -0.0000534685
       -0.0002339745   0.0000434997  -0.0000559050   0.0000150054  -0.0000012808
       -0.0000030488  -0.0000003962   0.0000010018   0.0000015751   0.0000059653
       -0.0000029497  -0.0000005910   0.0000010462  -0.0000021598  -0.0000010728
       -0.0000046419  -0.0000034829   0.0000009498  -0.0000041003   0.0000022921
       -0.0000020052   0.0000021052  -0.0000065475  -0.0000062704  -0.0000096839
       -0.0000042281  -0.0000086686   0.0000001731   0.0000036967  -0.0000023300
        0.0000084750  -0.0000038452   0.0000040826   0.0000004922   0.0000015595
       -0.0000024454   0.0000034622   0.0000021133   0.0000025140   0.0000013727
       -0.0000046576   0.0000002208   0.0000049753  -0.0000030962  -0.0000041167
        0.0000031677  -0.0000041239  -0.0000012897   0.0000032857  -0.0000017041
       -0.0000041355   0.0000005289   0.0000010782  -0.0000019994  -0.0000000287
       -0.0000011844   0.0000027199   0.0000032248  -0.0000008958  -0.0000059587
        0.0000050812  -0.0000006869   0.0000022298  -0.0000001456  -0.0000009198
        0.0000056818  -0.0000102511   0.0000015698  -0.0000007486   0.0000030853
        0.0000002784   0.0000017240  -0.0000002281  -0.0000019094  -0.0000024491
       -0.0000034336   0.0000012642  -0.0000048124  -0.0000033167   0.0000037468
       -0.0000024303  -0.0000026193   0.0000045908  -0.0000044146  -0.0000038589
        0.0000065364  -0.0000014865  -0.0000012442   0.0000005103  -0.0000003311
       -0.0000025830   0.0000013643  -0.0000048021  -0.0000031199   0.0000066094
       -0.0000033773  -0.0000078535  -0.0000025136   0.0000002299  -0.0000064386
       -0.0000049714   0.0000346276  -0.0000054261   0.0002153045   0.0000860738
        0.0000012564   0.0027439737  -0.0208766425  -0.0200827262
       -0.1160276059  -0.0368358645   0.0908376013   0.2890438360   0.1507759350
       -0.1818799729  -0.1337723698  -0.1037187432   0.0626754206   0.0082631629
       -0.0390182707  -0.0419151331  -0.0278146180  -0.0148958961   0.0222948928
       -0.0006287720   0.0006824845   0.0000333352  -0.0000900402   0.0001874847
        0.0001492253  -0.0000556911  -0.0000886078   0.0001023415   0.0000952468
       -0.0001433918  -0.0001727721   0.0000219255   0.0002854173   0.0002159398
        0.0000045237  -0.0000544791  -0.0000548733  -0.0000085238  -0.0000410341
        0.0000012504  -0.0000041562  -0.0000092388   0.0000025997  -0.0000027645
       -0.0000041260  -0.0000029837   0.0000031847  -0.0000026163   0.0000095808
        0.0000033209   0.0000058491  -0.0000024303   0.0000019817   0.0000075617
       -0.0000016850   0.0000091820  -0.0000086702  -0.0000014113  -0.0000002752
        0.0000137966  -0.0000041295   0.0000000514  -0.0000034699  -0.0000029430
        0.0000008186   0.0000015446  -0.0000120252   0.0000076113   0.0000346370
       -0.0000124909  -0.0000089953  -0.0000397657  -0.0000400272   0.0000276123
       -0.0000160146   0.0000076719  -0.0000006160  -0.0000163093   0.0000091231
        0.0000413326   0.0000284035  -0.0000083646  -0.0000446651  -0.0000348251
        0.0000086345   0.0000259075  -0.0000099693  -0.0000060550   0.0000007611
        0.0000158550   0.0000005145   0.0000055492  -0.0000019936  -0.0000049735
       -0.0000017084  -0.0000024254  -0.0000023078  -0.0000063304   0.0000046657
        0.0000001550  -0.0000026393  -0.0000081846  -0.0000051260  -0.0000156373
       -0.0000006777   0.0000026427   0.0000009555   0.0000015533  -0.0000051897
       -0.0000064543  -0.0000004616  -0.0000007380   0.0000030719   0.0000053064
       -0.0000026883   0.0000046507  -0.0000102026  -0.0000046780   0.0000024583
        0.0000422090  -0.0000019814  -0.0000192479   0.0000070611  -0.0000001285
       -0.0000066806   0.0000195319  -0.0000153023   0.0000119559  -0.0000647225
       -0.0000247011  -0.0000291975   0.0000091492  -0.0000088001   0.0000034309
       -0.0000113652  -0.0000160838  -0.0000428918   0.0000299437  -0.0000070346
        0.0000492401  -0.0000406482   0.0000056727  -0.0000106943   0.0000296143
        0.0000202549  -0.0000022149  -0.0000111077  -0.0000044704   0.0000005652
        0.0000055900   0.0000012556   0.0000030144   0.0000013351   0.0000024753
       -0.0000060274  -0.0000025504  -0.0000030831   0.0000120175  -0.0000018660
        0.0000077573   0.0000016486  -0.0000127862  -0.0000031571  -0.0000014566
        0.0000016928   0.0000051305   0.0000006298  -0.0000100576  -0.0000006166
       -0.0000063399  -0.0000044656   0.0000006997   0.0000024366   0.0000076611
        0.0000082918  -0.0000166208  -0.0000065099  -0.0000199079   0.0000220897
       -0.0000019889   0.0000104608  -0.0000052200   0.0000052042   0.0000352458
       -0.0000262136   0.0000498856   0.0002310300  -0.0001601646  -0.0002288019
       -0.0003379430   0.0107424692   0.0458141359   0.0224936514  -0.0071011734
       -0.0025174815   0.0112070177  -0.0376613204   0.0060193126   0.0096363873
        0.0075268779  -0.0035400840   0.0028137712   0.0000914723   0.0000403456
       -0.0000884246   0.0000557462  -0.0000013368  -0.0000275995   0.0000003426
       -0.0000066184   0.0000172218   0.0000066913   0.0000126770  -0.0000016554
        0.0000014020   0.0000028044   0.0000039369   0.0000046162   0.0000020238
       -0.0000006771   0.0000029115   0.0000040306   0.0000002278   0.0000054013
        0.0000007704   0.0000056252  -0.0000016984   0.0000010174  -0.0000094666
        0.0000016974  -0.0000003645   0.0000042585   0.0000087490   0.0000056937
       -0.0000027645  -0.0000112896   0.0000039041  -0.0000057455   0.0000034470
       -0.0000030022  -0.0000028670   0.0000002869   0.0000008371  -0.0000037787
       -0.0000064130  -0.0000014036  -0.0000023250  -0.0000044034  -0.0000032899
       -0.0000036391  -0.0000038873  -0.0000014420  -0.0000039053  -0.0000019528
       -0.0000026499  -0.0000045840   0.0000007078  -0.0000017920  -0.0000040547
       -0.0000012865   0.0000038244  -0.0000020901  -0.0000009616  -0.0000046280
        0.0000024137   0.0000052902   0.0000045499  -0.0000019206  -0.0000015015
        0.0000104023  -0.0000118425  -0.0000008687   0.0000017077   0.0000005876
        0.0000007627   0.0000039508   0.0000015783  -0.0000017208  -0.0000015700
       -0.0000012883   0.0000015877  -0.0000038180  -0.0000005168   0.0000016050
       -0.0000033467   0.0000016469   0.0000012892  -0.0000042901   0.0000012680
        0.0000019982  -0.0000022346   0.0000030781  -0.0000041933  -0.0000000916
        0.0000012208  -0.0000022094  -0.0000009999   0.0000015043   0.0000072354
       -0.0000028086  -0.0000060576  -0.0000012170   0.0000004815  -0.0000086918
       -0.0000181628  -0.0000502125  -0.0000330956   0.0002280452   0.0000819438
       -0.0000542007   0.0072742872  -0.0027582121   0.0019928001
       -0.0023019315  -0.0891713122  -0.0267283747   0.1507759350   0.5879185047
        0.0973640633  -0.1247104337  -0.2538927150   0.0732357342  -0.0123551993
       -0.0853881647  -0.0508564449  -0.0193263059  -0.0147825702   0.0328019647
       -0.0003316736  -0.0018404546  -0.0008583528  -0.0004778192   0.0004820764
        0.0007238529  -0.0002301372  -0.0002851278  -0.0001526661   0.0001638933
        0.0000491491  -0.0000133639  -0.0000004945   0.0001635522   0.0000817199
        0.0000046216  -0.0000438991  -0.0000136755  -0.0000070471  -0.0000325080
        0.0000087298  -0.0000043374  -0.0000066254   0.0000092547  -0.0000019805
       -0.0000021794  -0.0000046911   0.0000008237  -0.0000009779   0.0000059627
        0.0000012541   0.0000040376  -0.0000017223  -0.0000007487   0.0000062010
        0.0000008263   0.0000045487  -0.0000035730   0.0000012992  -0.0000019168
        0.0000094423  -0.0000012721   0.0000001397  -0.0000013841  -0.0000004278
       -0.0000047934  -0.0000036200  -0.0000133377   0.0000024923   0.0000125521
       -0.0000050411   0.0000061835  -0.0000181250  -0.0000180990   0.0000145149
       -0.0000000619   0.0000057559  -0.0000003345  -0.0000035317   0.0000044893
        0.0000155993   0.0000078428  -0.0000068994  -0.0000190420  -0.0000220531
        0.0000076509   0.0000120779  -0.0000053791  -0.0000040488   0.0000043293
        0.0000128492   0.0000051328   0.0000052354  -0.0000041911  -0.0000018633
        0.0000011303  -0.0000014082   0.0000026657  -0.0000055524   0.0000008250
        0.0000008439   0.0000007660  -0.0000049577  -0.0000009567  -0.0000099652
       -0.0000043263   0.0000038794   0.0000022354   0.0000014666  -0.0000023969
       -0.0000040074  -0.0000015050  -0.0000008855   0.0000026994   0.0000047532
       -0.0000030915   0.0000022632  -0.0000072114  -0.0000004373   0.0000006360
        0.0000267622  -0.0000020952  -0.0000069787  -0.0000030929   0.0000059578
        0.0000012530   0.0000101884  -0.0000080021   0.0000033224  -0.0000372556
       -0.0000025940  -0.0000170643   0.0000043855   0.0000033828  -0.0000021214
        0.0000007382  -0.0000105756  -0.0000212517   0.0000147986  -0.0000015090
        0.0000320313  -0.0000204289   0.0000106228  -0.0000006732   0.0000113597
        0.0000094979  -0.0000034351  -0.0000053998  -0.0000031317  -0.0000012506
        0.0000037640  -0.0000010009   0.0000040850  -0.0000006367   0.0000001511
        0.0000002578  -0.0000065224  -0.0000005401   0.0000028460  -0.0000003763
        0.0000020668   0.0000054685  -0.0000054545  -0.0000015957  -0.0000004045
       -0.0000002253   0.0000008201   0.0000013908  -0.0000039330   0.0000029624
       -0.0000037218  -0.0000081971  -0.0000008186   0.0000018627   0.0000000515
        0.0000086192  -0.0000192753  -0.0000043078  -0.0000214568   0.0000200709
       -0.0000065976   0.0000024931  -0.0000103351   0.0000031313   0.0000212354
        0.0001565439  -0.0000780852   0.0000224710   0.0000183067   0.0004336700
       -0.0003184231   0.0196466757   0.0359077120  -0.0093931812  -0.0124076792
       -0.0040940237   0.0205248113   0.0059466543  -0.1693632101  -0.1247931739
       -0.0029803478  -0.0038323989  -0.0056627494   0.0000628253   0.0000617429
       -0.0001194026   0.0000373876   0.0000207724   0.0000096196   0.0000022036
        0.0000048971   0.0000182352   0.0000050325   0.0000125710  -0.0000014060
       -0.0000003426   0.0000024600   0.0000034760   0.0000013776   0.0000025680
       -0.0000001840  -0.0000001037   0.0000052958   0.0000015512   0.0000006828
        0.0000022473   0.0000063229  -0.0000014516   0.0000026038  -0.0000066614
       -0.0000000119   0.0000005023   0.0000001744   0.0000042036   0.0000023582
        0.0000006458  -0.0000072331  -0.0000009152  -0.0000037960   0.0000024426
       -0.0000056119  -0.0000020567  -0.0000011844  -0.0000029627   0.0000002866
       -0.0000058437  -0.0000043941   0.0000005175  -0.0000033495  -0.0000049568
       -0.0000015337  -0.0000024907  -0.0000040799  -0.0000022456  -0.0000009215
       -0.0000048780  -0.0000033630   0.0000014700  -0.0000038423  -0.0000044043
        0.0000002667   0.0000016687  -0.0000027382  -0.0000007535  -0.0000070332
        0.0000018598   0.0000022042  -0.0000000422  -0.0000010206  -0.0000081109
        0.0000083785  -0.0000109780   0.0000050436  -0.0000065788   0.0000013314
        0.0000010102   0.0000021666   0.0000000537  -0.0000002322  -0.0000005531
       -0.0000025241   0.0000008225  -0.0000012195  -0.0000027739   0.0000019849
       -0.0000018935  -0.0000012338   0.0000014378  -0.0000016630   0.0000004160
        0.0000032401  -0.0000022525   0.0000014198   0.0000032573   0.0000013972
        0.0000027056  -0.0000036294  -0.0000014679  -0.0000039981   0.0000063035
       -0.0000034905  -0.0000049488   0.0000007211  -0.0000008349  -0.0000063869
        0.0000191269  -0.0000054602  -0.0000086869   0.0003848548   0.0000239608
       -0.0000630872  -0.0021061293  -0.0021832658  -0.0057652075
        0.1193998783   0.0409371495  -0.2502048983  -0.1818799729   0.0973640633
        0.5624457413   0.0455251468   0.0319107025  -0.1163709990  -0.0202511596
        0.0004496995   0.0433950692   0.0198367352   0.0246390602  -0.0257716878
       -0.0000342080  -0.0020483317  -0.0013488197   0.0000075971   0.0000274598
        0.0003687353  -0.0001498387  -0.0000167586  -0.0001865808  -0.0001426626
        0.0002927701   0.0002963468   0.0000099876  -0.0003966437  -0.0002667751
       -0.0000111892   0.0000679244   0.0000872179   0.0000108063   0.0000552829
        0.0000012089   0.0000101201   0.0000126520   0.0000029180   0.0000063808
        0.0000099796  -0.0000007158  -0.0000008727   0.0000079812  -0.0000092903
        0.0000018073  -0.0000074272   0.0000081834   0.0000060122  -0.0000085436
        0.0000023310  -0.0000073926   0.0000212675   0.0000015577   0.0000054772
       -0.0000073043   0.0000065911   0.0000056356   0.0000005097   0.0000036167
        0.0000003093  -0.0000036021   0.0000043876  -0.0000111468  -0.0000487304
        0.0000217892   0.0000131018   0.0000573915   0.0000468437  -0.0000342937
        0.0000178810  -0.0000066146  -0.0000057138   0.0000214823  -0.0000135893
       -0.0000556270  -0.0000387156   0.0000117507   0.0000511594   0.0000553975
       -0.0000105848  -0.0000250748   0.0000099165   0.0000001927  -0.0000027231
       -0.0000245184  -0.0000064765  -0.0000082403  -0.0000033525   0.0000030300
       -0.0000017592   0.0000089753  -0.0000041329   0.0000064891  -0.0000068164
       -0.0000038701  -0.0000054510   0.0000134437   0.0000012123   0.0000220419
        0.0000029626  -0.0000130411  -0.0000087324  -0.0000044563   0.0000002860
        0.0000059090  -0.0000008021  -0.0000043626  -0.0000037752  -0.0000089341
       -0.0000005532  -0.0000030982   0.0000157369  -0.0000003264  -0.0000062891
       -0.0000607475  -0.0000000784   0.0000243146  -0.0000092046  -0.0000009288
        0.0000156511  -0.0000245674   0.0000196017  -0.0000240551   0.0000880987
        0.0000385192   0.0000298237  -0.0000007008   0.0000185276  -0.0000160456
        0.0000133893   0.0000256321   0.0000624232  -0.0000456268   0.0000143327
       -0.0000696794   0.0000477110  -0.0000088162   0.0000133012  -0.0000390509
       -0.0000254313   0.0000023345   0.0000139636   0.0000079526   0.0000010754
       -0.0000082504   0.0000004015  -0.0000071370  -0.0000016920  -0.0000018083
        0.0000044800   0.0000061206   0.0000040214  -0.0000148605  -0.0000010540
       -0.0000064791  -0.0000045476   0.0000112139   0.0000095958  -0.0000011424
       -0.0000067371  -0.0000006635  -0.0000039977   0.0000110754   0.0000046127
        0.0000054198   0.0000011890   0.0000041413  -0.0000047272  -0.0000101990
       -0.0000084669   0.0000255393   0.0000049205   0.0000366504  -0.0000235238
        0.0000010871  -0.0000187171  -0.0000012535  -0.0000086136  -0.0000424628
        0.0001032208  -0.0002032883  -0.0003498196   0.0005737099   0.0006583668
        0.0003255285  -0.0008522004  -0.0614472512  -0.0498898049   0.0030337936
        0.0015545808  -0.0045680526   0.0100589689  -0.1244987554  -0.1585683811
        0.0027920641  -0.0047515066  -0.0003447407  -0.0002421407  -0.0000686343
        0.0000684546  -0.0000880872   0.0000402568   0.0000806574   0.0000054715
        0.0000120587  -0.0000092561  -0.0000019402  -0.0000102570   0.0000007188
        0.0000041577  -0.0000001046  -0.0000029870   0.0000009318   0.0000032410
        0.0000021483   0.0000039670  -0.0000002378   0.0000015294  -0.0000027400
        0.0000046171  -0.0000027517   0.0000048651   0.0000018123   0.0000108900
       -0.0000008288   0.0000002539  -0.0000061729  -0.0000099062  -0.0000040660
       -0.0000063977   0.0000054856  -0.0000019807   0.0000003213  -0.0000025483
        0.0000038656  -0.0000017014  -0.0000083266   0.0000010679  -0.0000000897
        0.0000050524   0.0000011872  -0.0000040836   0.0000035120   0.0000063681
       -0.0000024879   0.0000024969   0.0000024501  -0.0000033531  -0.0000002195
        0.0000057312  -0.0000015113  -0.0000033548   0.0000026205   0.0000007534
        0.0000005648  -0.0000049138  -0.0000008019  -0.0000010449   0.0000036373
       -0.0000069042  -0.0000066720  -0.0000071109   0.0000016973   0.0000021800
       -0.0000126898   0.0000216928  -0.0000002603  -0.0000044411   0.0000013823
       -0.0000029072  -0.0000046606  -0.0000025576   0.0000013052  -0.0000005247
        0.0000017880  -0.0000006347   0.0000014659   0.0000033451  -0.0000029955
       -0.0000001764   0.0000019391  -0.0000031443   0.0000013407   0.0000028849
       -0.0000037921  -0.0000016634   0.0000029333   0.0000044059  -0.0000033068
        0.0000065336  -0.0000000983   0.0000000748   0.0000040278  -0.0000075714
        0.0000022100   0.0000093117   0.0000054426  -0.0000026034   0.0000074284