$hessian                                                                        
        0.5300734535  -0.0059271416  -0.0030089396  -0.0565035788   0.0017366384
       -0.0047077494  -0.0033817758  -0.0086835158   0.0185708179   0.0007243552
       -0.0015966379   0.0006513252  -0.0127923174   0.0157942462  -0.0281362672
        0.0001176033  -0.0029456244   0.0017352257  -0.0080005109   0.0016410286
       -0.0062003610  -0.0008215953  -0.0013985441   0.0004929103   0.0004959365
        0.0000273283  -0.0003726971  -0.0010801913  -0.0014461857   0.0013581240
        0.0009183783   0.0002820895  -0.0002728466  -0.0001172499   0.0001573764
       -0.0000703109   0.0000731838  -0.0000602626  -0.0000082618  -0.0000807996
        0.0000757329   0.0000147883   0.0000631732   0.0001235276   0.0000200730
        0.0000560537  -0.0002035568  -0.0000554974  -0.0001396748   0.0001706114
        0.0000472416  -0.0000877413  -0.0001959614  -0.0000322449  -0.0000241079
        0.0002303116   0.0000581500   0.0001083458  -0.0001033478  -0.0000416564
       -0.0000475921  -0.0001026218  -0.0000180972   0.0000796483   0.0000632787
        0.0000144422   0.0000383157  -0.0001083108   0.0000731283  -0.0001663016
        0.0015081258  -0.0007605733  -0.0000662272  -0.0006513403   0.0000934173
       -0.0003004410   0.0029957146  -0.0021503374  -0.0025203511  -0.0005889033
        0.0013959272   0.0003796898  -0.0001531723  -0.0012983373   0.0002813215
        0.0003402174   0.0000333288  -0.1737356576  -0.1102265446   0.0452881556
       -0.0445534943   0.0139894235   0.0077990796  -0.2283410991   0.0975197946
       -0.0339558170   0.0004973745  -0.0005703281   0.0007669323   0.0002286337
        0.0005088395   0.0002525409  -0.0020736373  -0.0027233903   0.0019894129
        0.0000807802   0.0001563519   0.0004843834   0.0005088307   0.0004559092
        0.0003322872   0.0002292637  -0.0001230806  -0.0003319005   0.0000023674
        0.0000599929  -0.0000221548   0.0000171693   0.0000087893   0.0000135470
        0.0000037377  -0.0000087525  -0.0000041373   0.0000066964  -0.0000021539
        0.0000042556  -0.0000040651  -0.0000013060  -0.0000001479  -0.0000038073
        0.0000012066  -0.0000007775   0.0000002859   0.0000055956   0.0000007934
        0.0000002412   0.0000080884   0.0000024746   0.0000131782   0.0000001356
        0.0000038122  -0.0001196848  -0.0000166596  -0.0000678574  -0.0000361158
       -0.0000230121   0.0000203953
       -0.0059271416   0.5182747517   0.0228108958   0.0020417597  -0.0645840148
        0.0270055844  -0.0049447908  -0.0088326220   0.0192129181  -0.0014066449
        0.0005727368  -0.0226132924   0.0100774807  -0.0072754126   0.0166104609
       -0.0016032500  -0.0039532619   0.0032870771  -0.0029179068   0.0033297009
       -0.0035823306  -0.0012011708  -0.0014492747   0.0003914807   0.0007566473
       -0.0002022998  -0.0005232198  -0.0015807781  -0.0018122997   0.0015535877
        0.0009987058   0.0003454432  -0.0002211951  -0.0000272391   0.0001497015
       -0.0002020179   0.0001447896  -0.0000271419  -0.0000029135  -0.0001057568
        0.0001815904   0.0000156732   0.0001571469   0.0003297024   0.0000070144
        0.0000968947  -0.0005059527  -0.0000982836  -0.0003586237   0.0002989634
        0.0000888482  -0.0002278193  -0.0003848642  -0.0000221067  -0.0000357323
        0.0005206654   0.0000765507   0.0001884214  -0.0002682938  -0.0000624407
       -0.0000510294  -0.0001894390  -0.0000284705   0.0001534006   0.0000614618
        0.0000186846   0.0000857019  -0.0001241002   0.0001575426   0.0004453045
        0.0019190118  -0.0008352876   0.0001313040   0.0000316810  -0.0000630151
        0.0010394016   0.0007448388  -0.0005263521   0.0027331689   0.0009668040
       -0.0001736238  -0.0008795698   0.0003348229   0.0006017941  -0.0005359977
       -0.0000883121  -0.0002896763  -0.1077703076  -0.1328218330   0.0355876524
        0.0126826532  -0.2098598977  -0.1119399976   0.0986700013  -0.0927160684
        0.0158929501   0.0007167942   0.0002628280  -0.0000191844   0.0000687335
        0.0004218460   0.0008589880  -0.0022491122  -0.0019476030   0.0015290827
       -0.0004187634   0.0005978478  -0.0001542994   0.0004480496  -0.0030941972
       -0.0038583652   0.0003765252   0.0008201964  -0.0003745828   0.0001381930
       -0.0000402566   0.0000305058   0.0000634424   0.0000308253   0.0000394080
        0.0000233950   0.0000162643   0.0000134538   0.0000219351   0.0000116823
        0.0000429373  -0.0000234072  -0.0000481354   0.0000001299  -0.0000267758
        0.0000308438   0.0000102750   0.0000012921  -0.0000099734  -0.0000127441
        0.0000342926  -0.0000027834  -0.0000110451   0.0000748101  -0.0000246342
       -0.0000061942  -0.0000100526  -0.0000299289  -0.0001813435  -0.0000683747
        0.0000383908  -0.0000415135
       -0.0030089396   0.0228108958   0.4455062205  -0.0053897802   0.0248348588
       -0.1750057546   0.0053553426   0.0076984977  -0.0144524267   0.0001777253
       -0.0010611950  -0.0253015763  -0.0102192453   0.0097171648  -0.0107598345
        0.0000188008   0.0022946213  -0.0015395292  -0.0007765214  -0.0021396667
        0.0023752117   0.0015501378   0.0006239436  -0.0004995637  -0.0009953556
        0.0005023707   0.0004060058   0.0017760772   0.0014547685  -0.0010979016
       -0.0009717502  -0.0003207546   0.0001384615  -0.0000877832  -0.0001048178
        0.0002730744  -0.0001833094   0.0000164135  -0.0000016806   0.0001297520
       -0.0002368084  -0.0000120233  -0.0002362377  -0.0004614329   0.0000158279
       -0.0001302431   0.0007034610   0.0000985427   0.0004899866  -0.0003820959
       -0.0000942064   0.0003354675   0.0005208868  -0.0000003542  -0.0000003204
       -0.0007148477  -0.0000570372  -0.0002225408   0.0003695001   0.0000465491
        0.0000514788   0.0002200704   0.0000315228  -0.0001450778  -0.0000698030
       -0.0000339192  -0.0001497339   0.0000525564  -0.0001959714  -0.0003641862
       -0.0017887633   0.0006453257   0.0000322954  -0.0001662468  -0.0000642476
       -0.0001725683  -0.0006263241   0.0006291368  -0.0027359181  -0.0001147448
       -0.0003194218   0.0009506740  -0.0003110635  -0.0000235472   0.0008762547
       -0.0002340025   0.0003289666   0.0418128687   0.0337380752  -0.0551985846
        0.0072503127  -0.1126553930  -0.1165699122  -0.0343052093   0.0166436063
       -0.0476801121  -0.0007472065  -0.0003258563   0.0001549978  -0.0007209697
       -0.0006449763   0.0005174212   0.0010851283   0.0013232922  -0.0003743785
       -0.0002829969   0.0005628382   0.0000150713   0.0002446553  -0.0030803276
       -0.0025210470   0.0000770249   0.0012748752   0.0005289146  -0.0001739787
        0.0000826601  -0.0001168694  -0.0001014058  -0.0000338736  -0.0000480233
       -0.0000388100  -0.0000450886  -0.0000303113  -0.0000199791  -0.0000246935
       -0.0000758087   0.0000426105   0.0000882690  -0.0000007578   0.0000436069
       -0.0000504370  -0.0000205143  -0.0000017597   0.0000378322   0.0000279443
       -0.0000562586   0.0000233984   0.0000272025  -0.0001380975   0.0000225699
        0.0000168552   0.0000236362   0.0000401113   0.0002431366   0.0000523469
       -0.0000643243   0.0000689258
       -0.0565035788   0.0020417597  -0.0053897802   0.4347019729   0.0205889446
       -0.0018570994  -0.1138180561  -0.0549300150   0.0201059232  -0.0533524895
       -0.0003247749  -0.0020168048  -0.1314648322   0.0433236629  -0.0086721459
       -0.0440365746   0.0009533016  -0.0006216247   0.0046903042   0.0002138205
        0.0007960027   0.0056067701   0.0025989766  -0.0004379853  -0.0035016551
        0.0011042591   0.0004839346   0.0039549391   0.0039828652  -0.0033271938
       -0.0026227061  -0.0007310443   0.0003584872  -0.0000304474  -0.0005752624
        0.0004264168  -0.0003448016   0.0001581473   0.0000826601   0.0001480070
       -0.0004824401  -0.0000449233  -0.0002194710  -0.0004806958   0.0000085476
       -0.0000435334   0.0007915460  -0.0000152558   0.0007656213  -0.0002008367
        0.0000736608   0.0007094109   0.0004183075  -0.0001812417   0.0000293417
       -0.0007583970   0.0000001143  -0.0001265085   0.0004241788  -0.0000657581
        0.0000011683   0.0004469869   0.0001179078  -0.0002948233  -0.0002890373
       -0.0000873304  -0.0003365049   0.0003852212  -0.0002234031   0.0000986852
       -0.0051017614   0.0021019099  -0.0010637751   0.0013383938  -0.0009231603
        0.0005540131  -0.0048902639   0.0051211699  -0.0030997218   0.0125685221
       -0.0160034275  -0.0002787465  -0.0000135393   0.0030091592  -0.0004505630
       -0.0039239347   0.0008843631  -0.0022212710  -0.0067549349   0.0199554938
       -0.0007997271  -0.0009026018   0.0021201278  -0.0047678877   0.0072473036
       -0.0241070807  -0.0239515216  -0.0152569699   0.0052611955  -0.0003683905
       -0.0018861690  -0.0010527310  -0.0019521474  -0.0023658612   0.0027460299
       -0.0044554344   0.0208471348   0.0135702170  -0.0000991786  -0.0031079519
       -0.0021814714  -0.0012150877  -0.0166380854  -0.0102920556   0.0001922162
        0.0000527015  -0.0001641575  -0.0001028563   0.0000114481  -0.0000402699
       -0.0000514476  -0.0000375362  -0.0000404070  -0.0000061365  -0.0000181673
       -0.0000989253   0.0000204668   0.0001058160   0.0000002335   0.0000164587
       -0.0000713799  -0.0000368966  -0.0000088959   0.0000692826   0.0000352900
       -0.0000630334  -0.0000060752   0.0000463776  -0.0001887800  -0.0000136467
        0.0000236433   0.0003306578   0.0001884508   0.0004530408   0.0000205511
       -0.0000996492   0.0000992229
        0.0017366384  -0.0645840148   0.0248348588   0.0205889446   0.4482534865
       -0.0121625407  -0.0553251426  -0.1094873549   0.0227479183   0.0004999509
       -0.1284030045  -0.0503538488   0.0477809555  -0.0873851519   0.0193656038
        0.0032635314   0.0146824063  -0.0077971292  -0.0004652936  -0.0042880278
        0.0017502522  -0.0052287571   0.0042484727  -0.0002650157  -0.0004800433
       -0.0008573617   0.0009280812   0.0007750117   0.0033791048  -0.0037892394
       -0.0005425312  -0.0003127323   0.0003777451   0.0002171505  -0.0002460307
        0.0004371920  -0.0000526150   0.0000696333  -0.0000330959   0.0000061010
       -0.0000790394  -0.0000303522   0.0000174041  -0.0000687360   0.0000054875
       -0.0000259301   0.0001304986   0.0000742036   0.0001416205  -0.0000717329
       -0.0000388103   0.0000111844   0.0000501186   0.0000641824   0.0000931642
       -0.0001439392  -0.0000827630  -0.0000284970   0.0000794454   0.0000865857
       -0.0000182314   0.0000921319   0.0000344664  -0.0001556880  -0.0000159650
       -0.0000116493   0.0000566901   0.0002947575  -0.0002109420  -0.0013113196
       -0.0031080575   0.0016046220   0.0017782704  -0.0008523983   0.0004710566
       -0.0016094950  -0.0032002202   0.0032429011   0.0102773552  -0.0061852479
        0.0064363107   0.0002409958  -0.0006441988  -0.0027083043  -0.0021603454
       -0.0009343865  -0.0009445952  -0.0028803672  -0.0070243185   0.0172940493
       -0.0009940219   0.0044180673  -0.0236698409   0.0026093800  -0.0048023948
        0.0139888117   0.0071820733   0.0058464603  -0.0017687167  -0.0191162990
       -0.0208209928   0.0038305137  -0.0074371100  -0.0065183150   0.0048476008
        0.0034625964  -0.0127833640  -0.0075006013  -0.0002340380   0.0033531485
        0.0004634061  -0.0022666848  -0.0221580764  -0.0119685006  -0.0004827098
        0.0001217757   0.0002566321  -0.0000542272  -0.0000606455  -0.0000133244
       -0.0000052330  -0.0000139327   0.0000027009  -0.0000374869  -0.0000143726
       -0.0000032828   0.0000274441   0.0000203143  -0.0000156405   0.0000441360
       -0.0000112254   0.0000011293   0.0000066618  -0.0000306743  -0.0000107500
       -0.0000158449  -0.0000082106  -0.0000084827   0.0000115960   0.0000352884
       -0.0000299464  -0.0000401036   0.0000363742   0.0002727757   0.0001391594
        0.0000026387  -0.0000017151
       -0.0047077494   0.0270055844  -0.1750057546  -0.0018570994  -0.0121625407
        0.4686847158   0.0193067757   0.0206505976  -0.0671423382   0.0018992712
       -0.0542083592  -0.1017410416  -0.0162900747   0.0198626864  -0.0544122617
        0.0059825599  -0.0049501398  -0.0003570138  -0.0017422408  -0.0003774972
       -0.0020038194   0.0011598346   0.0022935571   0.0012251059   0.0003751007
       -0.0002728560   0.0009664067  -0.0005037891   0.0006986415  -0.0006258492
        0.0004573934  -0.0000498969  -0.0002052305  -0.0000860015   0.0000585486
       -0.0000810688   0.0002274641   0.0001190299   0.0000114076  -0.0001891027
        0.0001821690   0.0000544957   0.0001967183   0.0005076485   0.0000387021
        0.0001073588  -0.0006961514  -0.0001124018  -0.0002859337   0.0005295971
        0.0001366725  -0.0001910694  -0.0006300176  -0.0000935003  -0.0000646422
        0.0007319286   0.0001149436   0.0002984467  -0.0004235908  -0.0001035668
       -0.0000921928  -0.0002310410  -0.0000068639   0.0001980593  -0.0000284159
       -0.0000192042  -0.0000242306   0.0000665525   0.0000684487  -0.0013277656
       -0.0001271225   0.0002294022  -0.0004724248  -0.0009083754   0.0001382048
       -0.0032578275   0.0034927635  -0.0026672516  -0.0062923443   0.0052500758
        0.0005736071   0.0004759848  -0.0009584860  -0.0010883596  -0.0016128991
       -0.0008089350  -0.0013809777   0.0035497894   0.0055622680  -0.0112665366
       -0.0008002648   0.0011407466  -0.0227975653  -0.0032339783   0.0028481185
       -0.0068684103  -0.0044357466  -0.0032742159   0.0013209036  -0.0096705292
       -0.0098103493   0.0028794816   0.0213527309   0.0190278808  -0.0102303723
        0.0001717231   0.0010969821   0.0011999972   0.0018098635  -0.0235976020
       -0.0227077058  -0.0004342258   0.0023683446   0.0029534465  -0.0000280802
        0.0001070211   0.0002086210   0.0000202223   0.0000037305   0.0000247545
        0.0000255717  -0.0000332623   0.0000000188   0.0000317377  -0.0000131817
        0.0000225886   0.0000166605  -0.0000335055   0.0000058093   0.0000208332
        0.0000249032   0.0000112006   0.0000270461   0.0000093387  -0.0000163959
        0.0000121869   0.0000257791   0.0000063024   0.0000428892  -0.0000212391
       -0.0000434696  -0.0001640921   0.0000392444   0.0000412509  -0.0000019176
       -0.0000869568   0.0000604718
       -0.0033817758  -0.0049447908   0.0053553426  -0.1138180561  -0.0553251426
        0.0193067757   0.4814742931  -0.0447408951   0.0161818522  -0.0026163670
       -0.0059533310   0.0000309739  -0.0409749354  -0.0157777577   0.0068226763
        0.0008201099   0.0042583053  -0.0018363077  -0.0008459045  -0.0002643168
       -0.0002662170  -0.0040448919  -0.0011938457   0.0003929254   0.0003222212
       -0.0000705808  -0.0003775484  -0.0009063713  -0.0006456116   0.0004977930
        0.0007122769   0.0002071055  -0.0001349813  -0.0001279230   0.0001459317
        0.0000706994   0.0000678521  -0.0000335912  -0.0000172296  -0.0000493288
        0.0000651160   0.0000063012  -0.0000033256   0.0000587201   0.0000323327
       -0.0000128036  -0.0000804583  -0.0000509611  -0.0000627463   0.0000629022
        0.0000426116  -0.0000361108  -0.0000774609  -0.0000182851  -0.0000657699
        0.0000742412   0.0000543245   0.0000437835  -0.0000566200  -0.0000355399
       -0.0000273509  -0.0001042573  -0.0000155246   0.0000911333   0.0000566298
       -0.0000020629  -0.0000135906  -0.0001567360   0.0000171574  -0.0001327239
        0.0007780599  -0.0003652307   0.0000074095  -0.0003727863   0.0001164595
       -0.0001906531   0.0008115207  -0.0005697408   0.0052338448   0.0005505267
        0.0006947804  -0.0032576433   0.0006331043  -0.0011640157  -0.0037241937
        0.0014910015  -0.0016599368   0.0016848778   0.0002545959   0.0007005221
        0.0003153651   0.0002021002  -0.0006342442   0.0001603327   0.0005496067
       -0.0008597824  -0.2293128384   0.0892748644  -0.0489424854  -0.0459724698
        0.0262898455   0.0156316204  -0.0425050836   0.0028960852  -0.0092213776
        0.0002567696   0.0008239071   0.0003461820   0.0001800652   0.0005660702
        0.0002632256   0.0008641519  -0.0002261565  -0.0003836394  -0.0000937319
        0.0000576343   0.0000028207  -0.0000000238  -0.0000080120   0.0000052514
       -0.0000043871  -0.0000217633  -0.0000107191   0.0000129379  -0.0000134851
       -0.0000066109   0.0000074420   0.0000136088  -0.0000087422   0.0000086450
       -0.0000039592  -0.0000059811   0.0000056566   0.0000244096   0.0000062718
       -0.0000115390   0.0000192304   0.0000092097  -0.0000283373   0.0000048640
        0.0000063021  -0.0000602436  -0.0000423364  -0.0000489330   0.0000119519
       -0.0000560924   0.0000416855
       -0.0086835158  -0.0088326220   0.0076984977  -0.0549300150  -0.1094873549
        0.0206505976  -0.0447408951   0.4982992596   0.0086343073  -0.0187968927
       -0.0251128038   0.0009305510   0.0062377613   0.0069361214  -0.0028692085
        0.0011340734  -0.0012189812   0.0004738140  -0.0002516825   0.0005239563
       -0.0006642281  -0.0001687100  -0.0011576999   0.0004255000   0.0003470552
        0.0001030014  -0.0003231397  -0.0008716937  -0.0011508587   0.0011656563
        0.0005235103   0.0001801356  -0.0001299915  -0.0000097467   0.0000705852
       -0.0001902385   0.0000785451   0.0000006272  -0.0000042912  -0.0000419455
        0.0000821160   0.0000160837   0.0000550795   0.0001524900   0.0000203136
        0.0000433034  -0.0002296310  -0.0000607210  -0.0001844804   0.0001217767
        0.0000449414  -0.0001128854  -0.0001627053  -0.0000252628  -0.0000486064
        0.0002307234   0.0000605066   0.0000985926  -0.0001204608  -0.0000518705
       -0.0000249878  -0.0001034192  -0.0000198055   0.0001098973   0.0000193867
       -0.0000068527   0.0000558880  -0.0000585881   0.0001185247   0.0002094328
        0.0011611279  -0.0005102630   0.0001934807   0.0000220003   0.0000283638
        0.0000766211   0.0009680765  -0.0007781915   0.0003599420  -0.0021445348
        0.0009377904  -0.0001400578   0.0005179520  -0.0001532677   0.0023685491
       -0.0000468355   0.0005309832   0.0006715597  -0.0001105038   0.0024579331
        0.0002285828   0.0005772540  -0.0010494788  -0.0004145923   0.0002438826
       -0.0004451859   0.0881410582  -0.0834109752   0.0221456123   0.0267305537
       -0.2200511677  -0.1065329362   0.0032449538  -0.0535247362   0.0489338898
       -0.0009626977   0.0007641768   0.0004905446   0.0000242610   0.0007959945
        0.0009705118  -0.0006396136  -0.0048462931  -0.0028030558   0.0001013897
       -0.0000134411  -0.0000065125   0.0000216546   0.0000159545   0.0000156278
        0.0000043373  -0.0000017330  -0.0000015899   0.0000124563   0.0000012967
        0.0000054450  -0.0000046371  -0.0000081614   0.0000028595  -0.0000096666
        0.0000080196   0.0000006909  -0.0000005986   0.0000099264   0.0000017288
        0.0000087181   0.0000085452   0.0000033211   0.0000094710  -0.0000157053
        0.0000066366  -0.0000106481  -0.0000293465  -0.0001306003  -0.0000421590
        0.0000241722  -0.0000145409
        0.0185708179   0.0192129181  -0.0144524267   0.0201059232   0.0227479183
       -0.0671423382   0.0161818522   0.0086343073   0.5256392759  -0.0084879440
       -0.0123146110   0.0011140217   0.0010589700  -0.0022743178   0.0027638719
       -0.0040335943  -0.0018703254   0.0017422540   0.0000048609   0.0006428505
       -0.0007728787   0.0007954774  -0.0005866341   0.0000060726  -0.0004336500
        0.0002576092  -0.0001052022   0.0003762298  -0.0001380718   0.0001570378
       -0.0001606743   0.0000002327  -0.0000503898  -0.0000277291  -0.0000304157
        0.0000651068  -0.0000862456  -0.0000507574   0.0000119364   0.0000284450
       -0.0000912889  -0.0000162869  -0.0000256682  -0.0001374268  -0.0000200698
        0.0000131693   0.0001798115   0.0000104990   0.0001263770  -0.0000577082
       -0.0000034008   0.0001044404   0.0001051248  -0.0000120636   0.0000510342
       -0.0001606557  -0.0000206867  -0.0000378490   0.0001249107   0.0000105321
       -0.0000059263   0.0001008399   0.0000260121  -0.0000940686   0.0000025593
        0.0000131977  -0.0000238353   0.0000187717  -0.0000335470   0.0001809891
       -0.0001379253  -0.0000920372  -0.0004936087   0.0000438160  -0.0002338848
        0.0006357701   0.0001336137   0.0001977542  -0.0018366300   0.0018228398
       -0.0012050525  -0.0001285672   0.0000870193   0.0002095176  -0.0007544255
       -0.0002029670  -0.0004336755   0.0009242420   0.0025607049  -0.0051745355
        0.0003287786   0.0008196579   0.0006693899   0.0008845822  -0.0000100931
        0.0001846206  -0.0480177807   0.0218426541  -0.0552145588   0.0154246925
       -0.1069909849  -0.1080191998  -0.0096438819   0.0487354766  -0.2798200888
       -0.0002813600   0.0002378055   0.0002711382  -0.0005745877  -0.0005721472
        0.0005754840  -0.0006286336  -0.0027268911  -0.0008712960   0.0000346929
        0.0000048054  -0.0000634123   0.0000045526   0.0000103628  -0.0000041252
       -0.0000040604   0.0000137976   0.0000007605  -0.0000107756   0.0000096238
       -0.0000038853  -0.0000160185   0.0000061735   0.0000022960  -0.0000169783
       -0.0000090620  -0.0000009410  -0.0000130432  -0.0000077721   0.0000024141
        0.0000017322  -0.0000215419  -0.0000016560  -0.0000006109  -0.0000008769
        0.0000067615   0.0000109098   0.0000436405   0.0000722451  -0.0000103922
       -0.0000073713   0.0000154392
        0.0007243552  -0.0014066449   0.0001777253  -0.0533524895   0.0004999509
        0.0018992712  -0.0026163670  -0.0187968927  -0.0084879440   0.5326712845
        0.0007597348   0.0040843424  -0.0224420330   0.0313458714   0.0108389262
        0.0029810748   0.0024498287   0.0002085931  -0.0012040066   0.0010097419
        0.0009968335  -0.0017545652  -0.0013407708   0.0002007560   0.0008517553
       -0.0000862460  -0.0005066381  -0.0011622847  -0.0013556361   0.0012691546
        0.0007129474   0.0002249890  -0.0000845244   0.0000144979   0.0001047876
       -0.0001493692   0.0000799219  -0.0000208006  -0.0000226949  -0.0000287686
        0.0001035003   0.0000029201   0.0000227308   0.0000903150   0.0000192580
        0.0000198923  -0.0001605627  -0.0000279022  -0.0001954071   0.0000150607
        0.0000034502  -0.0001398249  -0.0000678064   0.0000245393  -0.0000378326
        0.0001340194   0.0000265185   0.0000268825  -0.0000759811  -0.0000082486
       -0.0000000015  -0.0000966239  -0.0000416533   0.0000782089   0.0000551005
        0.0000098053   0.0000759633  -0.0001278507   0.0001059371   0.0003832969
        0.0015348283  -0.0006489934   0.0000167695   0.0000927767   0.0002128191
       -0.0000531526   0.0010228692  -0.0013154047  -0.0001651422  -0.0024880592
        0.0024674519   0.0000325533   0.0005736077   0.0000094780   0.0002059453
        0.0012442135  -0.0001480877   0.0003292126   0.0002087218   0.0003078170
        0.0006041769   0.0000331635  -0.0005658062   0.0001884325  -0.0001974695
       -0.0004304872   0.0004828681  -0.0005719065  -0.0002599049  -0.0023343568
       -0.0034346121   0.0002816186   0.0004849727   0.0001192354  -0.0006325138
       -0.2395901856   0.0914734696  -0.0256894102  -0.0489271935   0.0087588628
       -0.0295298764  -0.1669911982  -0.1115381373   0.0455900742   0.0000217618
       -0.0000276467  -0.0000220043   0.0000234022  -0.0000019274   0.0000150965
        0.0000028848  -0.0000010006   0.0000013283   0.0000055489  -0.0000014417
        0.0000113317  -0.0000042591  -0.0000056031  -0.0000019986  -0.0000042494
        0.0000055805  -0.0000015077  -0.0000009215   0.0000018781   0.0000037794
        0.0000015559   0.0000075863  -0.0000052674   0.0000146298   0.0000078414
        0.0000088413  -0.0000317158  -0.0000969062  -0.0001906192  -0.0000215707
        0.0000229912  -0.0000068107
       -0.0015966379   0.0005727368  -0.0010611950  -0.0003247749  -0.1284030045
       -0.0542083592  -0.0059533310  -0.0251128038  -0.0123146110   0.0007597348
        0.4656899306  -0.0466345796   0.0222210524  -0.0218105218  -0.0072623444
       -0.0036984701  -0.0021466861   0.0010523029  -0.0002301569   0.0005907275
       -0.0006699512   0.0008202639  -0.0008968398   0.0003300153  -0.0003946951
        0.0001423995  -0.0001971521  -0.0002484210  -0.0007101966   0.0007838731
        0.0002037737   0.0001310071  -0.0001740784  -0.0000212422   0.0000122671
       -0.0001122630   0.0000039737  -0.0000435402   0.0000217022  -0.0000528200
        0.0000171187  -0.0000054118   0.0001184073   0.0001418119  -0.0000252687
        0.0000798956  -0.0002110975  -0.0000193917  -0.0000905258   0.0002129289
        0.0000435909  -0.0000275315  -0.0002192050  -0.0000317752   0.0000426727
        0.0002495385   0.0000075649   0.0001140292  -0.0001046476  -0.0000167953
       -0.0000448700  -0.0000064163   0.0000075191   0.0000003278   0.0000003233
        0.0000292234   0.0000046846   0.0000098180   0.0000583277  -0.0000394862
        0.0004327272  -0.0002000996   0.0002700475  -0.0001078095  -0.0001135921
        0.0004155745   0.0004676883  -0.0001090659  -0.0000444818   0.0022451396
       -0.0014921335   0.0000607715  -0.0006634783   0.0004597529  -0.0003368266
       -0.0006528558  -0.0000041436   0.0005007984   0.0005185372   0.0012796858
       -0.0002878313   0.0003158697   0.0011179622  -0.0000522821   0.0002211013
        0.0000680953   0.0008791546   0.0003207004  -0.0001875052  -0.0031880300
       -0.0032021563   0.0003539140   0.0010601991   0.0006323944  -0.0008344264
        0.0918342246  -0.0844207377   0.0129838484   0.0081078693  -0.0606199092
        0.0638643150  -0.1110313920  -0.1436412006   0.0432473076   0.0001081647
       -0.0000278845  -0.0000231131   0.0000387045   0.0000320080   0.0000220330
        0.0000147482   0.0000295009   0.0000125888   0.0000039477   0.0000159358
        0.0000276210  -0.0000204537  -0.0000341368   0.0000058114  -0.0000239985
        0.0000193600   0.0000086914  -0.0000046536  -0.0000212948  -0.0000097748
        0.0000283787  -0.0000177126  -0.0000109681   0.0000577649  -0.0000177254
       -0.0000109975  -0.0000130324   0.0000345002  -0.0000437909  -0.0000232194
        0.0000357899  -0.0000129590
        0.0006513252  -0.0226132924  -0.0253015763  -0.0020168048  -0.0503538488
       -0.1017410416   0.0000309739   0.0009305510   0.0011140217   0.0040843424
       -0.0466345796   0.4954227519   0.0085253326  -0.0019929480   0.0042762578
       -0.0047453543  -0.0014648380   0.0011729832   0.0013852566   0.0001825949
       -0.0005730239   0.0014066349  -0.0003192930  -0.0001557074  -0.0005852955
        0.0003139059  -0.0001368448   0.0005976270  -0.0001387400   0.0002673655
       -0.0003277528  -0.0000113457  -0.0000067731  -0.0000286783  -0.0000022432
        0.0000159792  -0.0000990019  -0.0000705701   0.0000125686   0.0000603811
       -0.0000855367  -0.0000223786  -0.0000484950  -0.0001792013  -0.0000427109
       -0.0000292137   0.0002518516   0.0000511123   0.0001569528  -0.0001378465
       -0.0000393429   0.0001317522   0.0002017171   0.0000164083   0.0000505429
       -0.0002570691  -0.0000636473  -0.0001085553   0.0001551565   0.0000395534
        0.0000211250   0.0001155961   0.0000120891  -0.0001031099   0.0000153863
        0.0000152989  -0.0000570628  -0.0000678396  -0.0000174241   0.0002508225
       -0.0001971793  -0.0000091650  -0.0001290449   0.0003440850  -0.0000909899
        0.0003868552  -0.0003440877   0.0002222724  -0.0017326702   0.0011273256
       -0.0010160303   0.0003805262  -0.0004622138   0.0002508339   0.0004381884
       -0.0002162432   0.0003061411  -0.0002789367  -0.0006374638   0.0007882817
       -0.0004321543   0.0002741373  -0.0065528423   0.0007529230  -0.0006681780
        0.0005674423   0.0001720827   0.0000972058  -0.0000507285   0.0005368330
        0.0008448067   0.0003762781   0.0005402915   0.0010182186   0.0006625867
       -0.0252841940   0.0126163620  -0.0459386724  -0.0295126845   0.0651948648
       -0.2637208582   0.0448284890   0.0431545341  -0.0600298733   0.0001229187
       -0.0000475800  -0.0000931996   0.0000136610   0.0000143466  -0.0000016459
       -0.0000002772   0.0000289370   0.0000084541  -0.0000056640   0.0000152783
        0.0000069007  -0.0000211274  -0.0000098568   0.0000039028  -0.0000247969
        0.0000021871   0.0000015760  -0.0000124153  -0.0000117313   0.0000009976
        0.0000131454  -0.0000229147  -0.0000064485   0.0000069929  -0.0000105069
        0.0000192929   0.0000459390   0.0000244750  -0.0000030359  -0.0000086257
        0.0000336242  -0.0000173898
       -0.0127923174   0.0100774807  -0.0102192453  -0.1314648322   0.0477809555
       -0.0162900747  -0.0409749354   0.0062377613   0.0010589700  -0.0224420330
        0.0222210524   0.0085253326   0.4988598290  -0.0180114555  -0.0084546824
       -0.1458794651  -0.0578052753   0.0253058343  -0.0147943226  -0.0214905475
        0.0123892091  -0.0849806216  -0.0084430418   0.0006997046   0.0089838728
        0.0015529506  -0.0054694987  -0.0124210342  -0.0114527049   0.0068038494
        0.0053506774   0.0015094674   0.0000958444   0.0012053493   0.0005269052
       -0.0001160798   0.0006447587  -0.0000472755  -0.0003587774   0.0000923318
        0.0010829899  -0.0000483764  -0.0001652987   0.0002928586   0.0002428596
        0.0000037710  -0.0009192291  -0.0001986560  -0.0019697588  -0.0009605735
       -0.0002304001  -0.0019272918   0.0002401261   0.0006713620  -0.0002507943
        0.0006587233   0.0001764013  -0.0001909727  -0.0003595785   0.0001511516
        0.0004099503  -0.0009358865  -0.0003687560   0.0005168596   0.0005362741
        0.0000601294   0.0014105576  -0.0002491390   0.0001613274   0.0068799168
        0.0154056907  -0.0077540115  -0.0116456839  -0.0009086507   0.0017332000
        0.0038272793   0.0186062401  -0.0178019700  -0.0619107422   0.0153660251