$hessian                                                                        
        0.4895231788  -0.0169515212   0.0045934650  -0.1429378448  -0.0770860066
       -0.0234865044  -0.0202546296  -0.0156826214  -0.0093329137   0.0008432038
        0.0001158375  -0.0053440007  -0.0008788695  -0.0005332264  -0.0002210680
       -0.0008376891  -0.0005914364   0.0004767193  -0.0000737552   0.0006521071
        0.0004664976   0.0000331565   0.0000321036   0.0001220285   0.0000020726
       -0.0000618987  -0.0000057023   0.0000198612   0.0000372296  -0.0000313710
       -0.0000154831  -0.0000831421   0.0000048840  -0.0000361929   0.0001475740
        0.0000239729   0.0000248750  -0.0001000415  -0.0000142633  -0.0000258856
        0.0000752975  -0.0000344685  -0.0001154139  -0.0001379662   0.0000250150
        0.0003034466   0.0001584316   0.0000066509  -0.0002419415  -0.0000243993
       -0.0000217449   0.0000365269  -0.0000171878   0.0000241600  -0.0000627841
       -0.0000092450  -0.0000296359   0.0000138158  -0.0000126323  -0.0000043622
       -0.0001055580  -0.0001531347   0.0000838162  -0.0000178698   0.0000677672
       -0.0000475230   0.0000248875   0.0000181258   0.0000165637  -0.0001669868
       -0.0000329703  -0.0000243911  -0.0000035237  -0.0000019343   0.0000224885
        0.0000258072  -0.0000220920   0.0000321266  -0.0000234033   0.0000273335
       -0.0000688550  -0.0000307815  -0.0000870982   0.0000894466  -0.0000809766
       -0.0000552682  -0.0002471325   0.0000517929   0.0000192252   0.0000569733
        0.0000239737   0.0000520601   0.0000377292   0.0000132548  -0.0000345650
       -0.0000504935   0.0000459665  -0.0000053556   0.0000102924   0.0000049781
       -0.0000035620   0.0000120852   0.0000083522  -0.0000019034   0.0000322045
       -0.0000248769   0.0000365425   0.0000339519  -0.0000155241   0.0000111880
        0.0000059258   0.0037180233  -0.0014665618  -0.0016946900  -0.0001277374
       -0.0000036476  -0.0000534721  -0.0047774442  -0.0085492331   0.0007276088
       -0.2012168534   0.0893116960  -0.0693776585  -0.0652327189   0.0549651981
        0.0544274969  -0.0574950556  -0.0257326507   0.0468030639   0.0000111138
       -0.0002332240   0.0018963965   0.0000352500  -0.0001021334   0.0001140358
       -0.0000438601  -0.0000460777  -0.0001451075  -0.0001983050   0.0001043435
       -0.0001400858   0.0000151817   0.0000018000   0.0000036340  -0.0000076192
       -0.0000159510   0.0000001554   0.0000106886  -0.0000045760   0.0000002481
        0.0000264699   0.0000465065  -0.0000145996   0.0000254890   0.0000337510
       -0.0000148725   0.0000373614   0.0000138229  -0.0000000938   0.0000855924
        0.0001275293  -0.0000303920   0.0000990953   0.0000473735  -0.0000362728
        0.0000104962   0.0000109873   0.0000004759   0.0000218759   0.0000121365
        0.0000202103   0.0000380096   0.0000284476   0.0000048838  -0.0000576219
        0.0000046376  -0.0000058017   0.0000091281   0.0000236786  -0.0000159890
        0.0000176675  -0.0000632113  -0.0000587847  -0.0000098246   0.0000061412
        0.0000149929  -0.0000205655  -0.0000093827   0.0000032246  -0.0000052848
        0.0000075543  -0.0000044043  -0.0000063482   0.0000019998  -0.0000136992
       -0.0000227630  -0.0000047081  -0.0000252859   0.0000143540   0.0000011420
        0.0000044055   0.0000006786  -0.0000144033   0.0000110493  -0.0000171332
       -0.0000345045  -0.0000193746  -0.0000083126  -0.0000583040  -0.0000880387
       -0.0000663281   0.0000385615   0.0000202613  -0.0000522186   0.0000109990
        0.0000164720   0.0001403588   0.0017786482   0.0004574403
       -0.0169515212   0.4850309114  -0.0253486046  -0.0729210565  -0.1325942031
       -0.0167469388  -0.0034642736   0.0015084940  -0.0017598718  -0.0005793536
        0.0031471039   0.0033980154   0.0003409093  -0.0000184729   0.0000288214
       -0.0008067391  -0.0009583688  -0.0010344867   0.0010560808   0.0002737985
       -0.0001568921  -0.0001802279  -0.0002674647   0.0002443489   0.0000813408
       -0.0000648208  -0.0000303803   0.0000136592  -0.0000023680  -0.0000287671
        0.0000033833  -0.0000635729   0.0000016001  -0.0000578821   0.0001837117
        0.0000251874   0.0000298342  -0.0001242903  -0.0000178620  -0.0000399111
        0.0000240189  -0.0000114294  -0.0000329443   0.0000759200   0.0000108881
        0.0000830202  -0.0000082017  -0.0000256557  -0.0000495445   0.0000534314
        0.0000080082   0.0000377827  -0.0000184237   0.0000099672   0.0000182403
        0.0000361213  -0.0000273280  -0.0000806006   0.0000350396  -0.0000334643
       -0.0000388021   0.0000351933   0.0000435520   0.0000032211   0.0000384979
        0.0000166510   0.0000475333   0.0000535078   0.0000046874  -0.0000124440
       -0.0000607653  -0.0000135684   0.0000256066  -0.0000514213   0.0000667324
        0.0000324787   0.0000208895   0.0000004096  -0.0000198769  -0.0000143886
       -0.0000399486  -0.0000072344  -0.0000251491   0.0001024605  -0.0001569141
        0.0000417017  -0.0001542893   0.0000396931  -0.0000524154  -0.0000309088
        0.0000083197   0.0000762132   0.0000167019  -0.0000064565  -0.0000433434
       -0.0000709474   0.0000747969  -0.0000185108  -0.0000080413  -0.0000146320
       -0.0000037593   0.0000196713  -0.0000120560   0.0000177061   0.0000670634
        0.0000215372   0.0000568290   0.0001059400  -0.0000095840   0.0000079472
        0.0000041923  -0.0005525009  -0.0006465248   0.0052980080  -0.0007995469
       -0.0010822372  -0.0002295724  -0.0206774813  -0.0241179743  -0.0009743616
        0.0894064819  -0.0920196929   0.0423309021   0.0508536136  -0.1406975209
       -0.1020720457  -0.0264654826  -0.0977421382   0.0995858941   0.0019770993
        0.0002726094  -0.0006561727  -0.0000073516  -0.0000075275  -0.0000677314
        0.0000734414  -0.0000079651   0.0000220837  -0.0000001561   0.0000130262
        0.0000461575  -0.0000024835  -0.0000060018   0.0000149971  -0.0000180528
       -0.0000334218   0.0000051947   0.0000072984  -0.0000032126   0.0000005280
       -0.0000014715   0.0000153494  -0.0000076205  -0.0000003254  -0.0000339447
        0.0000119836   0.0000335840  -0.0000288190   0.0000114837  -0.0000114895
       -0.0000388150  -0.0000327274  -0.0000244458   0.0000358197   0.0000177819
       -0.0000101657   0.0000280638  -0.0000332569  -0.0000243852   0.0000122853
       -0.0000078483   0.0000064542   0.0000211947  -0.0000052781  -0.0000705363
        0.0000131603   0.0000140103   0.0000529110   0.0000413704  -0.0000183686
        0.0000431253  -0.0001057434  -0.0000150954  -0.0000175802   0.0000152277
        0.0000298086  -0.0000244740  -0.0000101513   0.0000039466  -0.0000131704
        0.0000128753  -0.0000024846  -0.0000051123   0.0000039301  -0.0000123859
       -0.0000282790  -0.0000075258  -0.0000272332   0.0000192992  -0.0000000769
       -0.0000061533  -0.0000001201  -0.0000105752   0.0000182169  -0.0000192838
       -0.0000335693  -0.0000193475  -0.0000068847  -0.0000386639  -0.0001039482
       -0.0000129440  -0.0003321066   0.0002545066  -0.0001157535   0.0000647328
       -0.0000551355  -0.0000392142   0.0001274669  -0.0019542498
        0.0045934650  -0.0253486046   0.5053697209  -0.0201818020  -0.0149564893
       -0.0681377585  -0.0180304066  -0.0132052251  -0.0060408350  -0.0042273297
        0.0036794262   0.0005834558  -0.0005889503  -0.0006707147  -0.0003416273
       -0.0002154957  -0.0006191990  -0.0007719911   0.0009535795  -0.0000495745
       -0.0002953253  -0.0001623695  -0.0002558018   0.0001055530   0.0000652108
       -0.0000122907  -0.0000045093   0.0000000159  -0.0000353956  -0.0000089379
        0.0000092817  -0.0000049870  -0.0000069434  -0.0000216987   0.0000592725
        0.0000118835   0.0000101689  -0.0000394209  -0.0000038622  -0.0000191450
       -0.0000392742   0.0000059442   0.0000200539   0.0001077627   0.0000004479
       -0.0000663505  -0.0001029532   0.0000506341   0.0000462755   0.0000176457
       -0.0000119321  -0.0000239626   0.0000018138  -0.0000329222   0.0000414139
        0.0000454219  -0.0000034530  -0.0000534166   0.0000005046  -0.0000875108
        0.0000330089   0.0000511527  -0.0000648585   0.0000617090   0.0000170715
        0.0000677585  -0.0000264215  -0.0000008147  -0.0000188518   0.0000088686
        0.0000223018  -0.0000302165   0.0000262506  -0.0000336329   0.0000707654
        0.0000569997   0.0000308305  -0.0000077616   0.0000196636  -0.0000080109
       -0.0000155335   0.0000378005   0.0001193115  -0.0000737777  -0.0000560109
        0.0000760270   0.0000223672   0.0000074732  -0.0000495658  -0.0000884240
        0.0000282472   0.0000265636   0.0000261315   0.0000002343  -0.0000175242
       -0.0000277371   0.0000442827  -0.0000106237  -0.0000139165  -0.0000133682
        0.0000027119   0.0000091287  -0.0000022728   0.0000103002   0.0000538308
        0.0000617689   0.0000309515   0.0000594793  -0.0000123108  -0.0000047984
        0.0000008875  -0.0025530495   0.0049484220   0.0015765704   0.0005411078
        0.0003660829   0.0000171648   0.0091477211   0.0109764441   0.0037128604
       -0.0700086550   0.0417755878  -0.0751442127   0.0511965248  -0.1041221027
       -0.1474925951   0.0467877103   0.0999352688  -0.2126367457   0.0004791693
       -0.0019046980  -0.0003035649   0.0000349583  -0.0000955720   0.0000843898
       -0.0000614148   0.0000226126  -0.0000665726  -0.0001658748  -0.0000149737
       -0.0001117502  -0.0000079905   0.0000000288   0.0000057258  -0.0000080952
       -0.0000173516  -0.0000005406   0.0000025476   0.0000010933  -0.0000007861
       -0.0000092867  -0.0000255948   0.0000232660  -0.0000010747  -0.0000351207
        0.0000365420   0.0000067617  -0.0000152921   0.0000106976  -0.0000288218
       -0.0001333503   0.0000976206  -0.0000495650  -0.0000540392   0.0000367828
       -0.0000229088  -0.0000047351  -0.0000155992  -0.0000304023  -0.0000132812
       -0.0000042504  -0.0000076049   0.0000000952  -0.0000017441  -0.0000247423
        0.0000047986   0.0000140495  -0.0000025980  -0.0000167091   0.0000097483
       -0.0000127090  -0.0000042921  -0.0000379176  -0.0000122934   0.0000115868
        0.0000169031  -0.0000147832  -0.0000064084   0.0000014863  -0.0000042005
        0.0000070540  -0.0000029132   0.0000010725   0.0000017562  -0.0000053260
       -0.0000101271  -0.0000034277  -0.0000119116   0.0000173896   0.0000068183
        0.0000160629   0.0000036710   0.0000010080   0.0000083465  -0.0000174301
       -0.0000210853  -0.0000068150  -0.0000325277  -0.0000029827   0.0000515796
        0.0001929073   0.0001522960  -0.0000785578   0.0000562240  -0.0000840761
        0.0000487072   0.0021939292  -0.0004700294  -0.0001960045
       -0.1429378448  -0.0729210565  -0.0201818020   0.4624642665   0.1318814859
        0.1945324211  -0.1805123936   0.0399328548  -0.1456900822  -0.0440975069
       -0.0338517433  -0.0160873887   0.0012800760  -0.0044398254  -0.0038236792
       -0.0049385279   0.0186762312  -0.0122115927  -0.0017710236  -0.0014448863
       -0.0006493530   0.0001196360   0.0005842415  -0.0003886800  -0.0001852283
        0.0000315485   0.0000442038   0.0000019325   0.0000276132   0.0000637724
        0.0000184057   0.0002126130  -0.0000085011   0.0000792642  -0.0002695441
       -0.0000571506  -0.0000433545   0.0001549587   0.0000156933   0.0000418619
       -0.0001681884   0.0000810333   0.0002410627   0.0000339534  -0.0000416652
       -0.0005880224  -0.0000486873   0.0003036122   0.0004383644  -0.0000402192
        0.0000432498  -0.0000748146  -0.0000828939   0.0000570389   0.0000130996
        0.0000122511   0.0000206782  -0.0000576236  -0.0000096623  -0.0001067948
        0.0001216571   0.0000536679  -0.0000547644   0.0001071804   0.0000915917
        0.0002905734   0.0000186261   0.0000175585   0.0000593221   0.0001884935
        0.0001342264  -0.0000958054  -0.0000498239   0.0000431362  -0.0000473703
       -0.0001125132   0.0000296383  -0.0000772035  -0.0001962529  -0.0000407677
       -0.0000166244   0.0000304381   0.0000875917  -0.0003022784   0.0005987331
       -0.0001235421   0.0003868877  -0.0001263186   0.0001954650   0.0000871484
        0.0000590573  -0.0000490012  -0.0000505580   0.0000475065   0.0000371591
        0.0000957901  -0.0001199161   0.0000115566   0.0000114845   0.0000584831
       -0.0000045099  -0.0000222877   0.0000799474  -0.0000306086  -0.0000688887
       -0.0000473596  -0.0001684925  -0.0002250803   0.0000175669   0.0000130751
        0.0000053838   0.0102734861  -0.0120754760   0.0211540914  -0.0003511273
       -0.0053829468  -0.0028608205  -0.0753179337  -0.0505880700   0.0103205322
       -0.0228470870  -0.0166072642  -0.0091889481   0.0054925033  -0.0000549545
       -0.0019957268  -0.0063611197  -0.0094850820   0.0005121033   0.0002664510
        0.0006572144  -0.0008973871   0.0001614036  -0.0001202395   0.0001631227
        0.0006178365  -0.0000363266   0.0002363299  -0.0014574099   0.0003539779
       -0.0010574471   0.0000218767  -0.0000054105  -0.0000357315   0.0000133003
        0.0000348417  -0.0000153074  -0.0000217668   0.0000237382  -0.0000010366
       -0.0000039587  -0.0000070870  -0.0000039637  -0.0000121009  -0.0000196664
       -0.0000029575  -0.0000130793  -0.0000063264  -0.0000268969  -0.0001553893
       -0.0000596359   0.0000649018  -0.0000639880  -0.0000490324   0.0001192505
        0.0000182883  -0.0000133897   0.0000188652   0.0000194076  -0.0000271700
        0.0000311535   0.0000318267   0.0000174352   0.0000037486   0.0000574329
       -0.0000078425  -0.0000202112  -0.0000032478   0.0000196827   0.0000123751
       -0.0001036079  -0.0000205590   0.0000974956   0.0000166361  -0.0000319618
       -0.0000184816   0.0000214336   0.0000141891  -0.0000063761   0.0000051694
       -0.0000194453   0.0000077873   0.0000063524  -0.0000035640   0.0000188129
        0.0000397667   0.0000172244   0.0000462510  -0.0000280094  -0.0000286558
        0.0000526841  -0.0000431375   0.0000382861  -0.0000135861   0.0000136475
        0.0000299688   0.0000296074   0.0000925100   0.0005106049  -0.0008275730
       -0.0000264568  -0.0012833132   0.0007984436  -0.0000579955  -0.0001361280
        0.0000840087  -0.0004690478   0.0157835950  -0.0126898560
       -0.0770860066  -0.1325942031  -0.0149564893   0.1318814859   0.5384011041
       -0.1617930055  -0.0115921059  -0.0883673965   0.0159841464   0.0075151828
        0.0347872160  -0.0196721948  -0.0053115311  -0.0003534141   0.0018422621
        0.0178604858  -0.0177831205   0.0262262725  -0.0019451434  -0.0013804258
        0.0000878597   0.0001442798   0.0004285102  -0.0003357112  -0.0001270394
        0.0001134972   0.0000239157   0.0000283356  -0.0000484603   0.0000179294
       -0.0000628648   0.0001288305   0.0000174516   0.0000726192  -0.0002538560
       -0.0000339080  -0.0000341234   0.0001362087   0.0000114191   0.0000464187
        0.0000177393   0.0000110009   0.0000784746  -0.0000977114  -0.0000094885
       -0.0001370200  -0.0002623171  -0.0001464445  -0.0000398299  -0.0000912120
       -0.0000085684  -0.0000669227  -0.0000662045   0.0001827466  -0.0000953136
       -0.0000977202   0.0001388921   0.0000825224   0.0000818579   0.0000127466
        0.0002607047   0.0001304173  -0.0000092597   0.0000891360  -0.0001528488
       -0.0001790760   0.0000687588   0.0000062865  -0.0002253222   0.0001355458
        0.0000583016  -0.0000527454   0.0000045124  -0.0000117171   0.0000555683
       -0.0000694030  -0.0000246696   0.0000334186  -0.0000894628   0.0000308597
        0.0000171474  -0.0000377498  -0.0000297060  -0.0000883879   0.0006377652
        0.0000186070   0.0002877304  -0.0001022931   0.0002425762   0.0001904064
        0.0000428496  -0.0000695661   0.0000846707   0.0000600818   0.0000190246
        0.0000766570  -0.0001190979   0.0000208718   0.0000039907   0.0000568486
       -0.0000095975  -0.0000243184   0.0000567682  -0.0000254585  -0.0000613283
       -0.0001099332  -0.0001858984  -0.0002396617   0.0000017649  -0.0000090099
        0.0000427240  -0.0517551144  -0.0515804356  -0.0122319279  -0.0035967888
        0.0007251823  -0.0003677895  -0.0006591949  -0.2425328438   0.1470624588
        0.0064923781   0.0083123732   0.0002387075  -0.0161957776  -0.0196250265
       -0.0085919646  -0.0123802698  -0.0156035308   0.0004724653   0.0158775719
       -0.0070682119   0.0206931131  -0.0000040195  -0.0002484223   0.0002392393
       -0.0009018639  -0.0000422171  -0.0006960880   0.0002578989  -0.0002180001
        0.0001982938   0.0000433245  -0.0000109552  -0.0000289276   0.0000195560
        0.0000364350  -0.0000185833  -0.0000175686   0.0000002844  -0.0000038987
        0.0000045237   0.0000234010  -0.0000463292  -0.0000083273   0.0000282344
       -0.0000435895  -0.0000475489   0.0000363619  -0.0000544125  -0.0000773337
        0.0000140949   0.0000420842  -0.0000447192  -0.0000112220   0.0000724555
        0.0000248045  -0.0000272439   0.0000222765   0.0000150564  -0.0000084572
        0.0000113711   0.0000257028  -0.0000148243  -0.0000089944   0.0000289505
        0.0000217299  -0.0000676053  -0.0000106613   0.0000062656  -0.0000741881
       -0.0002532660   0.0000771595   0.0000461051   0.0000250733  -0.0000242274
       -0.0000338408   0.0000272296   0.0000148173  -0.0000091843   0.0000105226
       -0.0000145536  -0.0000012864   0.0000053735   0.0000023219   0.0000107050
        0.0000385597   0.0000160142   0.0000300155  -0.0000142867   0.0000153562
       -0.0000026177  -0.0000146057   0.0000118698  -0.0000057711   0.0000130844
        0.0000473843   0.0000138174   0.0001090023  -0.0001230744   0.0005178161
       -0.0004381976  -0.0001825011   0.0006309509   0.0001002230   0.0006462330
       -0.0003403448   0.0012020079  -0.0054071667   0.0048124223
       -0.0234865044  -0.0167469388  -0.0681377585   0.1945324211  -0.1617930055
        0.4411135821  -0.1085669100   0.0640089081  -0.1894739921  -0.0442650045
       -0.0570604465  -0.0021015715  -0.0022140323   0.0017825434   0.0030733691
       -0.0139298592   0.0271736384  -0.0344963132  -0.0004635228  -0.0003168616
       -0.0006905581   0.0001039552   0.0002838671  -0.0001449137  -0.0000964447
       -0.0000093478   0.0000406427  -0.0000050357   0.0000372426   0.0000381360
        0.0000236228   0.0000754877  -0.0000078455   0.0000379449  -0.0001128968
       -0.0000126640  -0.0000176427   0.0000733016   0.0000090344   0.0000247579
       -0.0000777641   0.0000359316   0.0001129721  -0.0000046191  -0.0000192388
       -0.0002674282   0.0001455525   0.0002466751   0.0003244051  -0.0000439276
        0.0001016253  -0.0000766580   0.0000107682  -0.0001278894   0.0000987492
        0.0001241345  -0.0000685675  -0.0000830220  -0.0000962620   0.0000175589
       -0.0000836222  -0.0000439172  -0.0001319326   0.0002845299  -0.0002482339
        0.0001556622   0.0000127537  -0.0001187538   0.0000361267   0.0000156464
        0.0000979683  -0.0000496232  -0.0000492104   0.0001094101  -0.0000819522
       -0.0000947885   0.0000097493  -0.0000422928  -0.0000891125  -0.0000018090
       -0.0000291805  -0.0001054790  -0.0000208779  -0.0000128548   0.0001635684
       -0.0001399551   0.0001414176  -0.0000278271   0.0000352768   0.0000284298
       -0.0000032571  -0.0000340493  -0.0001616446  -0.0000098969   0.0000238525
        0.0000326179  -0.0000463126   0.0000077936   0.0000198072   0.0000235446
        0.0000033366  -0.0000180285   0.0000504047  -0.0000258170  -0.0000559994
        0.0000016834  -0.0000280536  -0.0000401671   0.0000497642   0.0000366616
       -0.0000464344   0.0498370869   0.0262020493   0.0284111695  -0.0036757840
        0.0000348998   0.0042113933  -0.0259912092   0.0966851503  -0.1481816664
       -0.0104712751  -0.0069992202  -0.0037258079  -0.0145856276  -0.0162506742
       -0.0043487324   0.0176184092   0.0174357079   0.0038027230  -0.0114176140
        0.0060951830  -0.0141776906   0.0001281695  -0.0001527103   0.0001382677
       -0.0009062123   0.0001648490  -0.0008939156   0.0001341060   0.0006652427
        0.0005161031  -0.0000044616   0.0000034883  -0.0000055438   0.0000048351
        0.0000153469  -0.0000049349  -0.0000022632   0.0000096808   0.0000064667
        0.0000143746   0.0000036379   0.0000039045  -0.0000028031  -0.0000076382
        0.0000122250  -0.0000062143   0.0000064853  -0.0000046183   0.0000191265
        0.0000307247   0.0000327099   0.0000679226   0.0000348230   0.0000155282
        0.0000273145  -0.0000013585   0.0000300426   0.0000441293  -0.0000118492
        0.0000230607   0.0000394854   0.0000207568   0.0000241908   0.0000609782
       -0.0000198878   0.0000129951  -0.0000013734  -0.0000063585   0.0000815253
        0.0000671030  -0.0000616700   0.0000842486   0.0000105175  -0.0000176909
       -0.0000148297   0.0000066129   0.0000053613  -0.0000061677   0.0000037175
       -0.0000154040   0.0000017435   0.0000013218  -0.0000069705   0.0000054271
        0.0000151806   0.0000035678   0.0000194558  -0.0000442056  -0.0000537475
        0.0000241975  -0.0000192060   0.0000085988  -0.0000061548   0.0000170199
        0.0000017753   0.0000161979  -0.0002974800  -0.0007778764   0.0003387324
        0.0001507776  -0.0001256820  -0.0000102864  -0.0006003332  -0.0001917107
       -0.0004733935  -0.0021212786   0.0201571637  -0.0150977600
       -0.0202546296  -0.0034642736  -0.0180304066  -0.1805123936  -0.0115921059
       -0.1085669100   0.4674370298   0.1487121757   0.2178761771  -0.1946902039
       -0.0978453646  -0.0646659636  -0.0219877101  -0.0140140165  -0.0117232542
        0.0107632016  -0.0483987395   0.0376304893   0.0040262795   0.0002487450
       -0.0006263226  -0.0005652458  -0.0012402791   0.0007684593   0.0002361471
       -0.0001313108  -0.0001258352  -0.0000416437  -0.0000897317  -0.0000996162
       -0.0000448895  -0.0000989413   0.0000101578  -0.0000447079   0.0001610537
        0.0000464270   0.0000325567  -0.0001032169  -0.0000082374  -0.0000203548
        0.0001645120  -0.0000976937  -0.0004355005  -0.0001049948   0.0000446860
        0.0005416670  -0.0000502377  -0.0002161481  -0.0003806781   0.0000623650
       -0.0002086068   0.0001386483  -0.0000183823   0.0001105457  -0.0001358938
       -0.0000982127   0.0000012184   0.0000421069   0.0001287424  -0.0000895297
        0.0000854889  -0.0000101346   0.0000938617  -0.0000377725   0.0000461284
       -0.0000891498   0.0000893649   0.0001520240   0.0003187642   0.0000145323
        0.0000615881  -0.0000732987   0.0000540669   0.0000921594   0.0000166994
       -0.0001231040  -0.0000870128   0.0000060372  -0.0001465678   0.0000252534
       -0.0001435888  -0.0000640145  -0.0002171933   0.0003321225  -0.0003515219
        0.0006568284  -0.0001910394   0.0000490508  -0.0001633251  -0.0002335682
        0.0000375616   0.0000883369   0.0000188654   0.0000115581  -0.0000517160
       -0.0000391307   0.0001114901  -0.0000159941  -0.0000369465  -0.0000437354
        0.0000100336   0.0000248477  -0.0000342976  -0.0000176151   0.0001281648
        0.0001495829  -0.0000183834   0.0001093286  -0.0000189556  -0.0000433298
        0.0000384653  -0.0416160043  -0.0164395234  -0.0238892572   0.0004708942
        0.0006025807  -0.0007128150   0.0208085537   0.0585684417  -0.0229270145
       -0.0032474483  -0.0024671268  -0.0013094582  -0.0011196902   0.0006476396
       -0.0008356853   0.0006348525   0.0013872584  -0.0010944066  -0.0409111448
       -0.0111411316   0.0021158583   0.0001675598  -0.0012470319   0.0012051280
       -0.0013760922  -0.0001463161  -0.0013586539  -0.0016483980  -0.0005277338
       -0.0011084390   0.0000375429   0.0000079190   0.0000017941   0.0000040704
       -0.0000529183   0.0000177032   0.0000210984  -0.0000326498  -0.0000051964
       -0.0000283269   0.0000013263  -0.0000184331   0.0000033733  -0.0000054663
        0.0000060154   0.0000018622  -0.0000159334  -0.0000023195   0.0000032545
       -0.0000461289  -0.0000173628   0.0000254534  -0.0000285498  -0.0000237722
       -0.0000041656  -0.0000070435  -0.0000232842   0.0000077291  -0.0000024865
        0.0000398038   0.0000250271   0.0000363055   0.0000026876  -0.0000042116
        0.0000440746  -0.0000064629   0.0000288158  -0.0000082667  -0.0000630892
       -0.0001203572   0.0000267241   0.0000999365  -0.0000203525   0.0000238931
        0.0000158366  -0.0000216121  -0.0000115631   0.0000063462  -0.0000017410
        0.0000195162  -0.0000133319   0.0000039205   0.0000075854  -0.0000103031
       -0.0000026743   0.0000020762  -0.0000159903   0.0000294349   0.0000762629
        0.0000463016  -0.0000104563  -0.0000135828   0.0000254758  -0.0000121065
       -0.0000124713  -0.0000070811   0.0000704784   0.0003233242   0.0000069025
       -0.0001874081   0.0001847299   0.0000085846   0.0004207972   0.0002564224
        0.0000236996   0.0036809585  -0.0027455906  -0.0024897887
       -0.0156826214   0.0015084940  -0.0132052251   0.0399328548  -0.0883673965
        0.0640089081   0.1487121757   0.5435948645  -0.1643983023  -0.1510683025
       -0.1869282724  -0.0405378145  -0.0018192445   0.0023693188   0.0002353278
       -0.0145851229  -0.0495895257   0.0238868435  -0.0006726513  -0.0006605766
        0.0032296692   0.0000332078   0.0001528133  -0.0005738042  -0.0000352032
        0.0000122941  -0.0000106235   0.0001045832   0.0000708925   0.0000269833
       -0.0000410431  -0.0001098396   0.0000097907  -0.0000496630   0.0001791514
        0.0000023337   0.0000294559  -0.0001169096  -0.0000177703  -0.0000143134
        0.0001458157  -0.0000001832  -0.0001907165  -0.0003446574   0.0000232176
        0.0001145185  -0.0000825583   0.0000626114  -0.0000413397  -0.0000642405
        0.0000017808   0.0000688828  -0.0000458687   0.0001114792  -0.0000724015
       -0.0000189863  -0.0000285471  -0.0000457862   0.0000696837  -0.0000703004
        0.0000616298   0.0000086900   0.0001405593  -0.0000046358  -0.0000203395
       -0.0000063934   0.0002134383   0.0000226352  -0.0002165470  -0.0000393832
        0.0000867536  -0.0000773647   0.0000243010  -0.0000388139   0.0000161295
        0.0001136464   0.0001232096  -0.0000487675  -0.0001923268   0.0000385499
        0.0000165668   0.0000673394  -0.0002337710  -0.0001175159  -0.0000716002
        0.0001487974  -0.0005744807   0.0000406035  -0.0000463187   0.0000011056
       -0.0001076683  -0.0000000781   0.0000548240   0.0000310522   0.0000116534
        0.0000545993  -0.0000175035  -0.0000146375  -0.0000027440   0.0000523142
       -0.0000049328   0.0000017493  -0.0000067722  -0.0000253435  -0.0000279288
       -0.0001032119   0.0000107255  -0.0000965815   0.0000287377   0.0000804848
        0.0000526863  -0.0128674423  -0.0043455334  -0.0131260452   0.0002853151
       -0.0001858268   0.0002862840   0.0229930533   0.0036579362   0.0197394362
       -0.0031205723  -0.0020787055  -0.0008756844  -0.0012505611  -0.0007367393
       -0.0007128099  -0.0010699356   0.0005202651  -0.0013532403  -0.0117769965
       -0.2173409490   0.1165178401   0.0021308645   0.0008617199   0.0011678369
        0.0011681213  -0.0004892930   0.0005556856   0.0008686230   0.0000154534
        0.0008340854   0.0000562611  -0.0000011791  -0.0000227344  -0.0000083321
        0.0000058794  -0.0000135916   0.0000007133   0.0000045599  -0.0000056386
       -0.0000042784   0.0000569876  -0.0000450178  -0.0000068784  -0.0000027961
       -0.0000235285   0.0000068849  -0.0000085436  -0.0000219201  -0.0000068204
        0.0000097723  -0.0000424148  -0.0000622220  -0.0000085058  -0.0000165096
       -0.0000092404  -0.0000385709   0.0000676058   0.0000042164   0.0000053234
        0.0000198728   0.0000072723  -0.0000460511   0.0000165148  -0.0000062346
        0.0000611629  -0.0000378121   0.0000566464   0.0001246135  -0.0001053213
       -0.0000817996  -0.0001036070   0.0001537233  -0.0000055922  -0.0000073975
        0.0000037223   0.0000059637   0.0000032210  -0.0000032935  -0.0000056800
        0.0000013003   0.0000028454   0.0000040815   0.0000020320   0.0000038424
       -0.0000066789   0.0000062734   0.0000096940  -0.0000402306  -0.0000129479
       -0.0000596343  -0.0000244989  -0.0000463933   0.0000346849   0.0000280644
        0.0000115448   0.0000054783   0.0000708919   0.0000494308  -0.0001719954
       -0.0000241261   0.0003237737  -0.0000731322  -0.0000787960   0.0001416817
       -0.0000920152  -0.0019972870  -0.0023316527   0.0054569156
       -0.0093329137  -0.0017598718  -0.0060408350  -0.1456900822   0.0159841464
       -0.1894739921   0.2178761771  -0.1643983023   0.4198112915  -0.0296337040
        0.0094464470  -0.0801134287  -0.0212495453  -0.0111834525  -0.0074964486
        0.0163914753  -0.0121843748   0.0263027307  -0.0005188293   0.0051820829
        0.0020504989   0.0005672358  -0.0000631404   0.0012296285   0.0000911436
        0.0002114024  -0.0000733663  -0.0000409307   0.0000110113  -0.0001766027
        0.0000039537  -0.0001844942   0.0000012774  -0.0000514966   0.0001982329
        0.0000860070   0.0000321790  -0.0001198975  -0.0000176728  -0.0000797699
        0.0001026372  -0.0001725929  -0.0001447750   0.0001237391  -0.0000366710
        0.0004477532  -0.0001612359  -0.0000986053  -0.0002955268   0.0000786439
       -0.0001703495   0.0000216035   0.0000596308  -0.0000476802  -0.0000189938
       -0.0000489387   0.0000194962   0.0000467333   0.0000375007  -0.0000264344
       -0.0000726211   0.0000007722  -0.0000646583  -0.0000428618   0.0001031864
       -0.0001710077   0.0001772150  -0.0002036108  -0.0000438842   0.0000515440
       -0.0000631480   0.0001277716  -0.0000726538   0.0000224204   0.0000762551
        0.0000145461  -0.0000669814  -0.0000155364   0.0001285753  -0.0000125379
        0.0000569900   0.0000583902   0.0000033133   0.0000710852  -0.0007634289
       -0.0000561553  -0.0010880657   0.0002047110  -0.0002119874  -0.0001405101