$hessian                                                                        
        0.2924718503   0.1112235067   0.0663538866  -0.2248737963  -0.0833077244
       -0.0497933833  -0.0509237800  -0.0166148858  -0.0098031214  -0.0023028794
        0.0054533995   0.0029512278  -0.0025607370  -0.0008817679  -0.0008141093
       -0.0001464640  -0.0019365707  -0.0007219197  -0.0002765641  -0.0001580459
       -0.0001712235   0.0000501855   0.0002963098   0.0005582541  -0.0001683011
       -0.0001486290   0.0001940439   0.0007618909  -0.0001625203  -0.0000548347
       -0.0007362804   0.0002093322   0.0001018085   0.0001265701  -0.0001820342
        0.0002151460  -0.0000159926   0.0000257240   0.0000159052  -0.0001237522
        0.0000099251  -0.0000081087   0.0001020967   0.0000629711  -0.0000145872
        0.0000146697  -0.0001077582   0.0000458118   0.0000780087   0.0001668913
       -0.0000973922  -0.0001888861   0.0000495750   0.0000059035   0.0000282282
       -0.0002379643   0.0000679586   0.0000516179   0.0001316476  -0.0000211339
        0.0000568922  -0.0000448730   0.0000240763  -0.0001204299   0.0000557628
        0.0000125003  -0.0000316287   0.0000291979   0.0000366705   0.0001154648
        0.0000839591  -0.0002619973  -0.0001417118   0.0002073334  -0.0001711267
       -0.0001983327  -0.0001157043  -0.0005017530   0.0005361050   0.0018427890
        0.0008074620  -0.0004261329  -0.0001429337  -0.0000468009  -0.0002377506
        0.0001751249   0.0006079880  -0.0001777180  -0.0002524089   0.0001714637
        0.0008581607   0.0001721557   0.0000628456  -0.0008189348  -0.0002278920
       -0.0000989545   0.0001270915   0.0001771422  -0.0002445826  -0.0000311339
       -0.0000192084  -0.0000142916  -0.0001543963  -0.0000194322   0.0000133920
        0.0001048354  -0.0000677618   0.0000167393   0.0000111068   0.0001303461
       -0.0000534578   0.0000806344  -0.0001946521   0.0001067559  -0.0002190788
       -0.0000567540  -0.0000054891   0.0000323537   0.0002686332  -0.0000884934
        0.0000576569  -0.0001415795   0.0000247558   0.0000763196   0.0000604893
       -0.0000309441  -0.0001378420  -0.0000522928  -0.0000105865  -0.0000281817
       -0.0000303749  -0.0000257742   0.0001225775  -0.0000832985   0.0002790120
       -0.0002182678   0.0001987262  -0.0002125525   0.0001486435  -0.0003534792
       -0.0006452967   0.0002965487   0.0000199362   0.0002034058  -0.0006572179
        0.0002978112   0.0002114920   0.0006624973  -0.0021558213  -0.0011529124
       -0.0213560646  -0.0103563041  -0.0061569739   0.0089528748  -0.0015514949
       -0.0009498155   0.0021276825  -0.0014712079  -0.0007931699   0.0000868222
       -0.0000506037  -0.0000198551  -0.0001118469  -0.0000259615  -0.0000392132
        0.0000215306  -0.0000726801   0.0000078622   0.0000210282   0.0000044360
       -0.0000105242  -0.0000021480   0.0000101662  -0.0000112349  -0.0000100404
       -0.0000057677  -0.0000039141  -0.0000161677  -0.0000040591  -0.0000155410
       -0.0000065026  -0.0000206440  -0.0000043815   0.0000355177  -0.0000264877
       -0.0000091855   0.0000375942   0.0000129676  -0.0000493521  -0.0000933070
        0.0000242116   0.0000567315   0.0000836449  -0.0000502259   0.0000005899
        0.0000839492   0.0000254368  -0.0000171493  -0.0000998643  -0.0000406600
       -0.0000629143   0.0000216661   0.0000649253  -0.0000096797   0.0000157991
       -0.0000103233   0.0000104160  -0.0000114698  -0.0000130276   0.0000092354
       -0.0000189016   0.0000062138  -0.0000003951  -0.0000170102   0.0000045363
        0.0000114614  -0.0000041695   0.0000215376   0.0000002790   0.0000403894
        0.0000231299   0.0000042758   0.0000434691  -0.0000283969   0.0000474153
       -0.0001287633   0.0000234040   0.0000395927   0.0000973840   0.0000315109
        0.0000248674  -0.0008489110  -0.0001769538  -0.0000831057
        0.1112235067   0.0962116778   0.0458898847  -0.0841810191  -0.0826540476
       -0.0307494661   0.0075192627   0.0081543343   0.0031374040   0.0012175839
        0.0013584890  -0.0044440006   0.0008601035   0.0005821755  -0.0003496304
        0.0000167627  -0.0017370614  -0.0000470785  -0.0000680666   0.0000388865
        0.0000175229   0.0000399099   0.0001510945   0.0002168911  -0.0000785253
       -0.0000807889   0.0001202856   0.0003278984  -0.0000843740  -0.0000229304
       -0.0003163773   0.0001096713   0.0000421976   0.0000752173  -0.0001195368
        0.0001065899  -0.0000115995   0.0000069082   0.0000108802  -0.0000554051
        0.0000072943  -0.0000015820   0.0000592137   0.0000341632  -0.0000092635
        0.0000072857  -0.0000559358   0.0000255216   0.0000355122   0.0000771406
       -0.0000439414  -0.0000889786   0.0000360743   0.0000001060   0.0000278180
       -0.0001230910   0.0000375760   0.0000268697   0.0000700792  -0.0000120831
        0.0000288075  -0.0000241222   0.0000128816  -0.0000476609   0.0000304233
        0.0000047968  -0.0000224237   0.0000255778   0.0000166638   0.0000617863
        0.0000451343  -0.0001214005  -0.0000697364   0.0000935606  -0.0000965386
       -0.0001126859  -0.0000421345  -0.0002144183   0.0001745522   0.0011792010
        0.0006139850  -0.0003211324  -0.0000199374  -0.0002275319  -0.0001793581
        0.0000736372   0.0002443031  -0.0000898268  -0.0001277330   0.0001016560
        0.0003908884   0.0000765584   0.0000333646  -0.0003820030  -0.0000853352
       -0.0000302596   0.0000706595   0.0001103048  -0.0001284611  -0.0000217461
        0.0000000108  -0.0000084771  -0.0000697940  -0.0000054894   0.0000063732
        0.0000464540  -0.0000380056   0.0000124063  -0.0000000938   0.0000734442
       -0.0000306350   0.0000462121  -0.0000995469   0.0000518054  -0.0001137829
       -0.0000285958  -0.0000006692   0.0000209108   0.0001301925  -0.0000459957
        0.0000238646  -0.0000723941   0.0000166981   0.0000404457   0.0000426058
       -0.0000191752  -0.0000583580  -0.0000290105  -0.0000006944  -0.0000193765
       -0.0000129913  -0.0000057036   0.0000918608  -0.0000730754   0.0001354671
       -0.0001165734   0.0000746187  -0.0001402519   0.0000793832  -0.0001602276
       -0.0002782297   0.0006567404  -0.0000861669   0.0006870598  -0.0005466283
        0.0003600663   0.0003358707   0.0018453259  -0.0044221952  -0.0054617503
       -0.0372524330  -0.0199257297  -0.0135463534   0.0015534364   0.0021184110
        0.0023352136  -0.0007402143  -0.0002783312   0.0021163786   0.0000424938
       -0.0000327878  -0.0000056465  -0.0000414838  -0.0000164814  -0.0000177603
        0.0000147246  -0.0000359408   0.0000060470   0.0000112300   0.0000037168
       -0.0000056286   0.0000006474   0.0000075687  -0.0000062007  -0.0000019306
       -0.0000005204  -0.0000021170  -0.0000096737   0.0000003538  -0.0000075560
       -0.0000037458  -0.0000091347  -0.0000024302   0.0000128760  -0.0000144085
       -0.0000051999   0.0000137858  -0.0000016028  -0.0000228827  -0.0000380697
        0.0000072000   0.0000296257   0.0000272233  -0.0000305731   0.0000160950
        0.0000508351   0.0000085180   0.0000036322  -0.0000434766  -0.0000217898
       -0.0000325561   0.0000074514   0.0000243463  -0.0000047661   0.0000042403
       -0.0000087690   0.0000047198  -0.0000082703  -0.0000054130   0.0000017373
       -0.0000136231   0.0000028160  -0.0000006313  -0.0000091388   0.0000060469
        0.0000038912  -0.0000036203   0.0000114370  -0.0000007779   0.0000167833
        0.0000129648   0.0000000305   0.0000205382  -0.0000182785   0.0000197501
       -0.0000525774   0.0000084038   0.0000241921   0.0000450288   0.0000120777
        0.0000143782  -0.0016467216  -0.0007956283  -0.0003032075
        0.0663538866   0.0458898847   0.0463550903  -0.0500770132  -0.0306493608
       -0.0495728578   0.0041862917   0.0031330585   0.0047416736   0.0004341654
       -0.0041876323   0.0062041012   0.0007370215  -0.0002725051   0.0006520767
       -0.0000142839  -0.0004636231  -0.0012329986  -0.0000334146   0.0000613090
       -0.0000591233  -0.0000189423   0.0000967000   0.0001292201  -0.0000455758
       -0.0000366945   0.0000565185   0.0001828026  -0.0000458069  -0.0000089876
       -0.0001719868   0.0000618078   0.0000271945   0.0000450392  -0.0000664161
        0.0000497143  -0.0000095754   0.0000054501   0.0000096993  -0.0000355801
        0.0000020914   0.0000077329   0.0000337670   0.0000214145  -0.0000113530
        0.0000035689  -0.0000326323   0.0000146135   0.0000140311   0.0000418030
       -0.0000198253  -0.0000485276   0.0000269415   0.0000002383   0.0000148930
       -0.0000724967   0.0000195485   0.0000129098   0.0000349928  -0.0000043757
        0.0000143665  -0.0000090679   0.0000171997  -0.0000173511   0.0000206785
       -0.0000003865  -0.0000123610   0.0000146970   0.0000133934   0.0000359986
        0.0000198067  -0.0000723727  -0.0000363911   0.0000444423  -0.0000562942
       -0.0000541186  -0.0000304542  -0.0001189138   0.0000249613   0.0008017262
        0.0001995776  -0.0001368643  -0.0001752189   0.0003003265  -0.0000255325
        0.0000736469   0.0001497258  -0.0000561445  -0.0000615625   0.0000883110
        0.0002398905   0.0000487864   0.0000245794  -0.0002392948  -0.0000563654
       -0.0000159344   0.0000424496   0.0000674326  -0.0000900348  -0.0000088945
        0.0000000105   0.0000008105  -0.0000356377  -0.0000046634   0.0000129921
        0.0000257099  -0.0000260087  -0.0000012664  -0.0000004944   0.0000430941
       -0.0000150834   0.0000328637  -0.0000629185   0.0000395480  -0.0000700671
       -0.0000077072   0.0000020316   0.0000115551   0.0000796383  -0.0000262033
        0.0000158774  -0.0000498110   0.0000129034   0.0000267710   0.0000260646
       -0.0000026332  -0.0000436904  -0.0000172046  -0.0000031976  -0.0000129367
       -0.0000072501  -0.0000007551   0.0000577591  -0.0000500433   0.0000823765
       -0.0000813368   0.0000657351  -0.0000669892  -0.0000433067  -0.0001337605
       -0.0001691474   0.0004672980   0.0007356920  -0.0006547397  -0.0003790762
        0.0000960637   0.0000033248   0.0011835612  -0.0055163880   0.0016542776
       -0.0220939103  -0.0135020130  -0.0051523299   0.0009551860   0.0023346844
       -0.0004493897  -0.0003976012   0.0020715911  -0.0026139999   0.0000218644
       -0.0000181748  -0.0000092061  -0.0000243529  -0.0000097707  -0.0000127161
        0.0000065348  -0.0000184910  -0.0000023429   0.0000051189   0.0000026393
       -0.0000072786  -0.0000004756   0.0000015252  -0.0000025241  -0.0000028863
       -0.0000006476  -0.0000002890  -0.0000033718  -0.0000009078  -0.0000020582
       -0.0000030629  -0.0000056051  -0.0000023793   0.0000104441  -0.0000061976
       -0.0000027073   0.0000088129  -0.0000006303  -0.0000152180  -0.0000216161
        0.0000047082   0.0000148939   0.0000117531  -0.0000144301  -0.0000035812
        0.0000400308   0.0000030327  -0.0000103653  -0.0000208194  -0.0000128787
       -0.0000214618   0.0000066505   0.0000160620  -0.0000015055   0.0000039182
       -0.0000027099   0.0000042441  -0.0000033441  -0.0000052180   0.0000065537
       -0.0000065511   0.0000010868   0.0000033665  -0.0000072355   0.0000011964
        0.0000053153  -0.0000017827   0.0000059422  -0.0000006836   0.0000076272
        0.0000075814  -0.0000015044   0.0000112391  -0.0000109301   0.0000108651
       -0.0000413338   0.0000056180   0.0000119506   0.0000275438   0.0000014233
       -0.0000044898  -0.0009774204  -0.0003258624  -0.0004064852
       -0.2248737963  -0.0841810191  -0.0500770132   0.6495143830  -0.0410173125
       -0.0222617994  -0.2809642004   0.1444040322   0.0838533882  -0.0683993685
       -0.0120014059  -0.0078732458   0.0116211183  -0.0044782876  -0.0016599137
       -0.0079059433  -0.0053804317  -0.0032913008   0.0000109279   0.0000424051
       -0.0000356325  -0.0000914373  -0.0001490287  -0.0005289114   0.0001485219
        0.0001574740  -0.0001780765  -0.0007284535   0.0001411806   0.0000414449
        0.0006975707  -0.0001650552  -0.0000751977  -0.0001303951   0.0002021432
       -0.0002107906   0.0000096014  -0.0000376936  -0.0000024527   0.0000910455
       -0.0000010932   0.0000032761  -0.0000693422  -0.0000404698   0.0000101579
       -0.0000121184   0.0000889884  -0.0000323668  -0.0000485564  -0.0001467143
        0.0000769885   0.0001409127  -0.0000207937  -0.0000030376   0.0000043819
        0.0001873567  -0.0000560731  -0.0000398162  -0.0001068164   0.0000221615
       -0.0000419195   0.0000333071  -0.0000171864   0.0000906972  -0.0000490825
       -0.0000034343   0.0000381128   0.0000023039  -0.0000296781  -0.0001678084
       -0.0001485205   0.0002514641   0.0001421037  -0.0001421889   0.0001634542
        0.0001951364   0.0001421439   0.0004305235  -0.0028269100   0.0044710728
        0.0025937338  -0.0001640173  -0.0001116617  -0.0001185821   0.0002654073
        0.0000052691  -0.0003707059   0.0001014487   0.0001304917  -0.0001363081
       -0.0006911363  -0.0001246541  -0.0000440203   0.0006599490   0.0001679349
        0.0000538167  -0.0001316554  -0.0002164932   0.0002148574   0.0000132648
        0.0000579931  -0.0000055799   0.0000751446  -0.0000046612   0.0000014226
       -0.0000407561   0.0000295756  -0.0000030143  -0.0000072823  -0.0000674564
        0.0000302254  -0.0000093215   0.0001110473  -0.0000577690   0.0000995344
        0.0000372745   0.0000016242   0.0000086781  -0.0001557406   0.0000516518
       -0.0000323037   0.0000818977  -0.0000091257  -0.0000289107  -0.0000144803
        0.0000153829   0.0000636299   0.0000541889   0.0000054598   0.0000360124
       -0.0000166873   0.0000381064  -0.0001512583   0.0001426236  -0.0002265465
        0.0001401828  -0.0001535606   0.0001381532   0.0001002711   0.0001457582
        0.0004743160   0.0058297828   0.0017418875   0.0005619010  -0.0130302220
        0.0134481713   0.0080921165   0.0203480964  -0.0176655352  -0.0106989733
       -0.0648882272  -0.0370458570  -0.0217405386  -0.0213963728   0.0372606789
        0.0220891069  -0.0002229209   0.0022444617   0.0016122018  -0.0000867272
        0.0000279489   0.0001238769   0.0000921631   0.0000169427   0.0000454397
       -0.0000202654   0.0000575870  -0.0000091138  -0.0000200749   0.0000013180
        0.0000053418   0.0000023314  -0.0000070156   0.0000088066   0.0000104409
        0.0000065724   0.0000030924   0.0000124783   0.0000045167   0.0000140470
        0.0000039616   0.0000184254   0.0000031881  -0.0000329684   0.0000242766
        0.0000053187  -0.0000260237  -0.0000132249   0.0000349940   0.0000816165
       -0.0000200486  -0.0000527835  -0.0001070809   0.0000319750  -0.0000521184
       -0.0000973581  -0.0000314001   0.0000658924   0.0000801349   0.0000114975
        0.0000648731  -0.0000171061  -0.0000509597   0.0000084171  -0.0000163976
        0.0000035266  -0.0000034179   0.0000037211   0.0000076345  -0.0000032612
        0.0000100652  -0.0000055861   0.0000035266   0.0000078364  -0.0000024422
       -0.0000069862  -0.0000027885  -0.0000137182   0.0000020473  -0.0000374098
       -0.0000163569  -0.0000057119  -0.0000277174   0.0000166839  -0.0000346170
        0.0000963599  -0.0000036386  -0.0000493673  -0.0000918418  -0.0000250111
       -0.0001158997  -0.0031688151  -0.0019284638  -0.0011352465
       -0.0833077244  -0.0826540476  -0.0306493608  -0.0410173125   0.4754646833
        0.2151066241   0.0793468722  -0.1407448784  -0.0582855968   0.0325369176
        0.0248268945   0.0178311049  -0.0214844031   0.0028703087  -0.0018859439
        0.0072557360   0.0132853076   0.0060480630   0.0003557644  -0.0006408841
        0.0004762683  -0.0000893839  -0.0004599116  -0.0005273093   0.0001789734
        0.0002137546  -0.0001533115  -0.0007129099   0.0001862166   0.0000804873
        0.0006856342  -0.0002504095  -0.0001159456  -0.0001079847   0.0001452525
       -0.0001945592   0.0000281893   0.0000196738  -0.0000258111   0.0001500035
       -0.0000213513   0.0000203562  -0.0001549663  -0.0000835430   0.0000244273
       -0.0000313484   0.0001419282  -0.0000573354  -0.0001160121  -0.0002004866
        0.0001205095   0.0002588068  -0.0000927713   0.0000000128  -0.0000786195
        0.0003014867  -0.0000870384  -0.0000746165  -0.0001560620   0.0000243624
       -0.0000946260   0.0000625029  -0.0000319279   0.0001325972  -0.0000515914
       -0.0000157952   0.0000267429  -0.0000729925  -0.0000201793  -0.0000643625
       -0.0000223619   0.0002355237   0.0001096691  -0.0002038747   0.0001566089
        0.0000244052   0.0001718594   0.0004977660   0.0064460291  -0.0117119998
       -0.0065156883   0.0007995131   0.0003289388   0.0001612127   0.0001418712
       -0.0002174946  -0.0005899845   0.0001609155   0.0002836350  -0.0001542516
       -0.0007764721  -0.0001807282  -0.0000781247   0.0007526949   0.0002197588
        0.0001232196  -0.0000914094  -0.0001171482   0.0002047901   0.0000461642
       -0.0000273257   0.0000239383   0.0001798291   0.0000373449  -0.0000276650
       -0.0001494001   0.0000803715  -0.0000242358  -0.0000230143  -0.0001640912
        0.0000618924  -0.0001361897   0.0002381525  -0.0001351487   0.0002983963
        0.0000627643   0.0000121553  -0.0000733240  -0.0003219956   0.0001002726
       -0.0000812773   0.0001667804  -0.0000298619  -0.0001159174  -0.0000830053
        0.0000363694   0.0001570043   0.0000458486   0.0000137645   0.0000226119
        0.0000761059   0.0000089438  -0.0000826766   0.0000340652  -0.0002556882
        0.0001898836  -0.0001917305   0.0002212568  -0.0002727985   0.0004473171
        0.0005502092  -0.0144052919  -0.0018385657  -0.0008048396   0.0284829003
       -0.0197638141  -0.0106431748  -0.0647881615  -0.0248790391  -0.0131941940
        0.0371697859  -0.2038019718  -0.0915803782   0.0103646249  -0.0199038774
       -0.0134848140   0.0228032255  -0.0130782269  -0.0089174625  -0.0000479157
        0.0000314473  -0.0000375809   0.0001240395   0.0000368688   0.0000149631
       -0.0000132918   0.0000580607   0.0000010377  -0.0000174154  -0.0000153142
        0.0000224687   0.0000051938  -0.0000148119   0.0000175917   0.0000156244
        0.0000023848   0.0000088727   0.0000240533   0.0000015201   0.0000153941
        0.0000158648   0.0000212520   0.0000032135  -0.0000217767   0.0000252971
        0.0000031960  -0.0000281054  -0.0000056844   0.0000432317   0.0000823142
       -0.0000297126  -0.0000403880  -0.0000187576   0.0000235809  -0.0000410009
       -0.0000268368  -0.0000221811   0.0000321097   0.0000878675   0.0000511280
        0.0000423415  -0.0000161181  -0.0000484057   0.0000003590  -0.0000090438
        0.0000136797  -0.0000205461   0.0000191923   0.0000169245  -0.0000190226
        0.0000283926  -0.0000058294  -0.0000059225   0.0000273253  -0.0000034061
       -0.0000132176   0.0000139445  -0.0000268435   0.0000003291  -0.0000265840
       -0.0000265023   0.0000014107  -0.0000326973   0.0000233337  -0.0000434566
        0.0001205006  -0.0000343339  -0.0000188129  -0.0000559947  -0.0000141971
        0.0000319644  -0.0010253348   0.0021669728  -0.0036530483
       -0.0497933833  -0.0307494661  -0.0495728578  -0.0222617994   0.2151066241
        0.2379662621   0.0465407052  -0.0580342571  -0.0751897812   0.0185283899
        0.0166015238   0.0065122087  -0.0129271536  -0.0011383135   0.0040831795
        0.0039933934   0.0070262282   0.0049224171   0.0004220465  -0.0000235005
       -0.0007916802  -0.0002568832  -0.0002011149  -0.0002550235   0.0001091170
        0.0001024914  -0.0002107335  -0.0004366909   0.0001141177   0.0000396788
        0.0004301183  -0.0001235051  -0.0000698334  -0.0000757786   0.0001207611
       -0.0001405985   0.0000222096   0.0000142730  -0.0000225309   0.0000841423
       -0.0000151505   0.0000099658  -0.0000886013  -0.0000550661   0.0000017897
       -0.0000135682   0.0000935159  -0.0000475149  -0.0000830600  -0.0001309081
        0.0000776102   0.0001679065  -0.0000435011  -0.0000095047  -0.0000490662
        0.0001858188  -0.0000561827  -0.0000454453  -0.0001055480   0.0000158315
       -0.0000650611   0.0000540724  -0.0000181015   0.0000822557  -0.0000349231
       -0.0000111666   0.0000201957  -0.0000428430  -0.0000134896  -0.0000763449
       -0.0000519107   0.0001574184   0.0000916267  -0.0001894628   0.0000846211
        0.0002422616   0.0000707458   0.0002999071   0.0036749968  -0.0072510729
       -0.0031354756   0.0004672365   0.0003345134  -0.0001944089   0.0000762347
       -0.0001383292  -0.0002901065   0.0001010554   0.0001567815  -0.0001453720
       -0.0004495123  -0.0001126289  -0.0000437329   0.0004428581   0.0001408797
        0.0000534902  -0.0000863656  -0.0001253014   0.0001437526   0.0000305188
       -0.0000192726   0.0000213224   0.0001099710   0.0000169422  -0.0000027842
       -0.0000996856   0.0000579261  -0.0000219275  -0.0000106607  -0.0001080641
        0.0000460599  -0.0000738445   0.0001418756  -0.0000684159   0.0001831135
        0.0000604007   0.0000012467  -0.0000549114  -0.0002080143   0.0000702662
       -0.0000455087   0.0001043221  -0.0000235539  -0.0000648900  -0.0000572881
        0.0000295885   0.0000788559   0.0000308359  -0.0000006596   0.0000224019
        0.0000459447   0.0000020195  -0.0000766360   0.0000452547  -0.0001579777
        0.0001409268  -0.0001181905   0.0001584099  -0.0000582772   0.0003058131
        0.0002924796  -0.0085984480  -0.0011327708  -0.0003095460   0.0167478625
       -0.0095843727  -0.0090959407  -0.0378732361  -0.0136141280  -0.0095636733
        0.0218068869  -0.0915936706  -0.1035542825   0.0061525583  -0.0135192844
       -0.0051337856   0.0133310536  -0.0088049516  -0.0032467881  -0.0000368828
        0.0000352672  -0.0000186051   0.0000456397   0.0000226472   0.0000145765
       -0.0000117739   0.0000325875  -0.0000036475  -0.0000106584  -0.0000109993
        0.0000049084   0.0000054887  -0.0000133045   0.0000040772   0.0000127497
        0.0000008250  -0.0000002702   0.0000184642   0.0000034189   0.0000083362
        0.0000101385   0.0000181097   0.0000005226  -0.0000116413   0.0000240419
        0.0000032042  -0.0000193711  -0.0000027533   0.0000293181   0.0000637892
       -0.0000214402  -0.0000315883  -0.0000105807   0.0000300229  -0.0000136547
       -0.0000230749  -0.0000177257   0.0000160689   0.0000371134   0.0000226449
        0.0000342648  -0.0000118537  -0.0000310242   0.0000100288  -0.0000077118
        0.0000165069  -0.0000047206   0.0000118998   0.0000131606  -0.0000015304
        0.0000187241  -0.0000008495   0.0000023125   0.0000191783  -0.0000048943
       -0.0000066107   0.0000121022  -0.0000199286  -0.0000029988  -0.0000151708
       -0.0000211859  -0.0000005881  -0.0000215748   0.0000096553  -0.0000235218
        0.0000700528  -0.0000177346  -0.0000135321  -0.0000377533  -0.0000107409
        0.0000273592  -0.0005433801  -0.0036611579   0.0063741954
       -0.0509237800   0.0075192627   0.0041862917  -0.2809642004   0.0793468722
        0.0465407052   0.6617878693  -0.0380094408  -0.0179629207  -0.2042069227
       -0.0727661508  -0.0428059245  -0.0809595960  -0.0029862543  -0.0039838794
        0.0096192781   0.0212417963   0.0105471289  -0.0010610178  -0.0013154244
       -0.0002189619   0.0000026181  -0.0002063958   0.0001816864  -0.0000221477
        0.0001693216  -0.0000464683   0.0000383634   0.0000476814   0.0000034522
       -0.0000354414  -0.0000676588  -0.0000297463  -0.0000043391   0.0000110622
        0.0000025923   0.0000231763   0.0000259988  -0.0000189329   0.0000264554
       -0.0000135196   0.0000024543  -0.0000443449  -0.0000228661   0.0000039402
       -0.0000053260   0.0000266839  -0.0000192391  -0.0000291101  -0.0000196640
        0.0000209742   0.0000625679  -0.0000413348  -0.0000049685  -0.0000500502
        0.0000638437  -0.0000093103  -0.0000202666  -0.0000240389  -0.0000018444
       -0.0000197409   0.0000090123  -0.0000054908   0.0000062786  -0.0000162121
       -0.0000063153   0.0000160371  -0.0000492201  -0.0000076120   0.0000277068
        0.0000535474  -0.0000025427  -0.0000038598   0.0000418359   0.0000164776
        0.0000141007  -0.0001095245  -0.0001105546   0.0052382938  -0.0132256755
       -0.0070682141   0.0013779183   0.0005612072   0.0003847592  -0.0000019266
       -0.0003288807  -0.0003742673   0.0001268162   0.0002047950  -0.0000672685
       -0.0003039050  -0.0000934809  -0.0000374874   0.0002921491   0.0000905248
        0.0000757811  -0.0000282635   0.0000086487   0.0000773912   0.0000430427
       -0.0000717138   0.0000347252   0.0001169788   0.0000380500  -0.0000202836
       -0.0001210834   0.0000630958  -0.0000136202  -0.0000214239  -0.0001182545
        0.0000481148  -0.0001258075   0.0001623723  -0.0000827943   0.0002068667
        0.0000422365   0.0000053074  -0.0000763815  -0.0002042507   0.0000717204
       -0.0000514815   0.0001129470  -0.0000260989  -0.0000932811  -0.0000823332
        0.0000285170   0.0001065566   0.0000014843   0.0000054319   0.0000134099
        0.0000793484  -0.0000310646  -0.0000267108  -0.0000302643  -0.0001038813
        0.0001466263  -0.0000719862   0.0001526701  -0.0004028623   0.0003771832
        0.0002680185  -0.0106378583  -0.0012657068  -0.0006222331   0.0236211505
       -0.0413509711  -0.0248142806  -0.0507459566  -0.0024509932  -0.0010101113
        0.0202786765   0.0648179638   0.0378991015   0.0006625890  -0.0018396731
       -0.0011815956  -0.0425203284   0.0016896480   0.0002601033  -0.0000278902
       -0.0000105747  -0.0000815366  -0.0000097789   0.0000138575  -0.0000096623
       -0.0000073984  -0.0000001835   0.0000029209  -0.0000001774  -0.0000090857
        0.0000042335   0.0000029058  -0.0000046533   0.0000010193   0.0000048580
        0.0000017710  -0.0000000965   0.0000072558   0.0000016856   0.0000038880
        0.0000041048   0.0000092346   0.0000041735  -0.0000020402   0.0000096321
        0.0000056347  -0.0000085113   0.0000221356   0.0000118146  -0.0000120193
        0.0000116812  -0.0000089434   0.0000273081  -0.0000201444  -0.0000993166
        0.0000159022  -0.0000142589  -0.0000091333   0.0000204398   0.0000460638
       -0.0000050170  -0.0000110417  -0.0000139969   0.0000016098  -0.0000047909
        0.0000151012  -0.0000092367   0.0000065322   0.0000125009  -0.0000034456
        0.0000134308   0.0000022766   0.0000002165   0.0000155996  -0.0000014710
       -0.0000036805   0.0000124408  -0.0000145042   0.0000004800   0.0000001216
       -0.0000201852   0.0000103622  -0.0000221022   0.0000149203  -0.0000089549
        0.0000416230  -0.0000374440   0.0000202337  -0.0000265435  -0.0000010680
        0.0000734060  -0.0003883406  -0.0000378254  -0.0000304015
       -0.0166148858   0.0081543343   0.0031330585   0.1444040322  -0.1407448784
       -0.0580342571  -0.0380094408   0.5336417671   0.2499757121  -0.1022386183
       -0.1211747988  -0.0436397757   0.0058906497   0.0092975823   0.0072416989
        0.0052235973   0.0027440429  -0.0028292270   0.0006240388   0.0005063434
       -0.0000069907   0.0000584469  -0.0000649957  -0.0001707207   0.0000626894
        0.0000056412  -0.0000559092  -0.0002422222   0.0000408694   0.0000305596
        0.0002473087  -0.0000245584  -0.0000300386  -0.0000371149   0.0000682942
       -0.0000698559   0.0000007249  -0.0000182963   0.0000004239   0.0000139727
        0.0000067552  -0.0000008735  -0.0000097150  -0.0000161947   0.0000063921
        0.0000020931   0.0000251169  -0.0000065240  -0.0000157854  -0.0000464692
        0.0000263574   0.0000407661   0.0000043753  -0.0000041862   0.0000132699
        0.0000466987  -0.0000116534  -0.0000068224  -0.0000281064   0.0000060434
       -0.0000105751   0.0000142822  -0.0000069485   0.0000141936  -0.0000166944
        0.0000011648   0.0000043081   0.0000114562  -0.0000093258  -0.0000692102
       -0.0000751967   0.0000897821   0.0000150462  -0.0001160514  -0.0000020145
        0.0002026085  -0.0001314789   0.0001504089   0.0007460575  -0.0012884825
       -0.0009836220   0.0002977799  -0.0003496404   0.0010659009   0.0002054682
        0.0000572357  -0.0001131010   0.0000281194   0.0000751846   0.0000382413
       -0.0001624556  -0.0000371020  -0.0000018735   0.0001373041   0.0000347687
        0.0000045711  -0.0000360635  -0.0000576454   0.0000436560  -0.0000022327
        0.0000133298  -0.0000046790   0.0000069903  -0.0000002909  -0.0000004332
       -0.0000152022   0.0000072272  -0.0000013132  -0.0000063705  -0.0000131848
        0.0000034932  -0.0000009921   0.0000235349  -0.0000116352   0.0000184764
        0.0000143323  -0.0000037232  -0.0000062625  -0.0000398699   0.0000133863
       -0.0000090235   0.0000214391  -0.0000013876  -0.0000072557   0.0000019290
        0.0000019548   0.0000089994   0.0000144449   0.0000019301  -0.0000000602
        0.0000023422   0.0000120223  -0.0000238535   0.0000237239  -0.0000441797
       -0.0000103687   0.0000117860   0.0000738094  -0.0002238792   0.0000169946
        0.0001395509  -0.0026915639  -0.0050600343  -0.0051509417  -0.0201240672
       -0.0180984991  -0.0121584122   0.0024248892   0.0020859793   0.0013081472
        0.0176954256  -0.0248399112  -0.0135845527   0.0021618315  -0.0044222291
       -0.0055156277  -0.0000596260  -0.2407548689  -0.1211532333  -0.0000405067
        0.0000184188  -0.0000146701   0.0000397676  -0.0000018984   0.0000126200
        0.0000064342   0.0000146824   0.0000071919   0.0000033055  -0.0000012373
        0.0000059523   0.0000058606   0.0000011471   0.0000041352   0.0000074059
        0.0000021783   0.0000033277   0.0000030588   0.0000049406   0.0000028559
        0.0000014354   0.0000042672   0.0000008434  -0.0000048264   0.0000041809
       -0.0000008550  -0.0000061704  -0.0000141526   0.0000134030   0.0000466204
       -0.0000049471  -0.0000222962  -0.0000000828   0.0000324685  -0.0000256250
        0.0000188256  -0.0000292543   0.0000185963   0.0000365166   0.0000053170
        0.0000093205   0.0000001611  -0.0000099787   0.0000000535  -0.0000052161