$hessian                                                                        
        0.0754303679   0.0634959763   0.0360803992  -0.0547967135  -0.0466185514
       -0.0237194304  -0.0150769516  -0.0238337559  -0.0109227381   0.0005925596
        0.0008867168   0.0005518454   0.0000327520  -0.0001740967   0.0002268205
        0.0002170503   0.0000252745   0.0000373882   0.0000847813   0.0001051641
       -0.0000582572   0.0000567784   0.0000565963  -0.0000297328   0.0000654014
       -0.0000668002  -0.0000070413   0.0002416469  -0.0000927127  -0.0001113518
       -0.0001558775   0.0001062362   0.0000067226   0.0000899267  -0.0001474508
        0.0000714334   0.0001495404  -0.0000696333  -0.0000316235  -0.0000201770
        0.0001254260  -0.0001213702  -0.0009000776   0.0013239924  -0.0014614523
       -0.0027062501  -0.0003431790  -0.0006460152  -0.0070393413  -0.0021940755
       -0.0009508704   0.0013348793   0.0023497736   0.0003237463  -0.0012928008
       -0.0018433009  -0.0003125269  -0.0003787124   0.0010542281  -0.0000965296
        0.0000459875  -0.0002428855   0.0001123177   0.0000325557   0.0001869275
       -0.0000525335  -0.0000837188   0.0000584849  -0.0000670959   0.0001566860
        0.0000014870   0.0000796062  -0.0002663884  -0.0000306491  -0.0001776066
        0.0000679824  -0.0002526261   0.0001416241  -0.0000571497   0.0001700550
       -0.0000300828   0.0000541509  -0.0001233894   0.0000723246   0.0001564540
        0.0000287299   0.0001577589  -0.0001925437   0.0000866766  -0.0002109251
        0.0010702824  -0.0000233106   0.0003828191  -0.0014954001   0.0018601729
       -0.0005399926   0.0001305040   0.0004614281   0.0001149444   0.0026548705
       -0.0012130748  -0.0007225086   0.0023154524   0.0026331363   0.0019853470
       -0.0002562804   0.0006112923   0.0004642288  -0.0002271314   0.0003128619
        0.0012879800   0.0000211963   0.0002028353  -0.0000016180  -0.0001990300
        0.0000131330  -0.0000702038  -0.0000721727  -0.0000590524   0.0001390343
        0.0004056425  -0.0000819310   0.0001403700  -0.0000128247   0.0001753111
       -0.0002242512   0.0000172646  -0.0000595359   0.0000063235   0.0000603444
        0.0001008753  -0.0000630142  -0.0001025897   0.0000498797  -0.0000364009
        0.0000506465   0.0000818421   0.0000591482   0.0004322129   0.0001792533
        0.0003596481   0.0000596836   0.0000914931  -0.0001183352   0.0000464515
        0.0000249921  -0.0000219484   0.0000272007   0.0000237392  -0.0000019997
        0.0000312784   0.0000182305  -0.0000017866   0.0000152527  -0.0000599101
        0.0000200925   0.0000239708  -0.0000542185  -0.0000056316   0.0000183749
       -0.0000948555   0.0000983294  -0.0005504006   0.0007563749  -0.0019550851
       -0.0000310737  -0.0000168887  -0.0000178200   0.0000105673   0.0000004333
        0.0000174411   0.0000106090   0.0000177608   0.0000165819   0.0000106583
        0.0000155793   0.0000149725  -0.0000017131   0.0000141206   0.0000078615
        0.0000042976   0.0000162537  -0.0000006386   0.0000038392   0.0000170482
        0.0000041118   0.0000718766  -0.0001319214   0.0000930428  -0.0001895709
        0.0001737232  -0.0002813938  -0.0000183626  -0.0000262521  -0.0000041458
       -0.0000504178  -0.0000192798  -0.0000294167  -0.0000298136   0.0000068144
        0.0000032643  -0.0000216303   0.0000041789   0.0000026744  -0.0000187224
        0.0000141870   0.0000161997  -0.0000167823   0.0000222702  -0.0000011682
       -0.0000413590  -0.0000876288   0.0000081401
        0.0634959763   0.1410349712   0.0576457355  -0.0458382153  -0.0975078244
       -0.0383425338  -0.0105888746  -0.0124394309  -0.0057190465  -0.0002216869
        0.0032752712   0.0025066442   0.0000284249   0.0001573323   0.0003196812
        0.0000804261  -0.0000146025   0.0001314178   0.0001600183   0.0000457080
       -0.0000846048   0.0000783473   0.0002134680  -0.0000558307  -0.0000377681
       -0.0000913733   0.0000228530   0.0002769904   0.0002489127  -0.0003056392
       -0.0005515287   0.0004743519   0.0003142970   0.0000586506  -0.0003275011
        0.0001613919   0.0002805331  -0.0002958128  -0.0003551853   0.0003500689
        0.0002297134  -0.0000089414   0.0013676755  -0.0005726447   0.0027810305
        0.0007417734  -0.0002952950  -0.0001068947  -0.0015371568  -0.0000605042
       -0.0019178809   0.0016161527   0.0020403720   0.0002341436  -0.0019602423
       -0.0026983082  -0.0001335022  -0.0005050515   0.0014485281  -0.0001016701
       -0.0000107777  -0.0003435012   0.0001719189   0.0000427194   0.0002775527
       -0.0000739652  -0.0001201385   0.0000763250  -0.0000920472   0.0002159262
        0.0000179686   0.0001074665  -0.0003639770  -0.0000172528  -0.0002583313
        0.0001031080  -0.0003853673   0.0002040565  -0.0000721300   0.0002326335
       -0.0000266971   0.0000684571  -0.0001315788   0.0000874853   0.0001943409
        0.0000672847   0.0001917576  -0.0002702633   0.0000867520  -0.0002298129
        0.0014732736  -0.0000734634   0.0004612646   0.0025115564   0.0003869385
       -0.0031924493  -0.0004618360  -0.0009081434  -0.0002470383  -0.0133656126
       -0.0348462343  -0.0156127208   0.0011204558   0.0008092397   0.0019478815
        0.0006628229  -0.0010389155  -0.0007790577   0.0004366867   0.0003528259
        0.0006383792   0.0001003591   0.0002033271  -0.0000654309  -0.0003394599
        0.0000703404  -0.0000822866  -0.0002079519  -0.0000429022   0.0001971008
        0.0003138422  -0.0000683428   0.0000640141  -0.0001151368   0.0001233852
       -0.0001330385  -0.0001210777   0.0000377981  -0.0000121751  -0.0000297917
        0.0001391103  -0.0000566069   0.0000157877   0.0001344563  -0.0000550901
        0.0000543625   0.0003238437   0.0000672623   0.0003436494  -0.0000886249
        0.0002597231   0.0000258770  -0.0000552645  -0.0000832893   0.0000446297
       -0.0000138419  -0.0000045196   0.0000162788   0.0000087130   0.0000177826
        0.0000375765  -0.0000006887  -0.0000111976   0.0000382307  -0.0000757260
        0.0000252041   0.0000013374  -0.0001357474  -0.0000301044  -0.0000947208
       -0.0001199214   0.0001151572   0.0011008491   0.0000378863   0.0000835868
        0.0000386591   0.0000412727  -0.0000075193   0.0000539826  -0.0000130781
        0.0000603816   0.0000210830  -0.0000073868   0.0000379282  -0.0000124099
       -0.0000047398   0.0000081283  -0.0000076426  -0.0000216627   0.0000129855
       -0.0000231857   0.0000225604  -0.0000199236  -0.0000106506   0.0000673247
       -0.0000146105   0.0000719378  -0.0000517020   0.0000553444  -0.0002948746
        0.0001871150  -0.0008558010  -0.0000607816  -0.0000624737   0.0001004034
       -0.0001013555  -0.0000320047   0.0000133771  -0.0000883841  -0.0000186160
        0.0000372526  -0.0000212349   0.0000376523  -0.0000063412  -0.0000178875
        0.0000255793   0.0000133083  -0.0000428307   0.0000332384   0.0000008910
       -0.0001481915  -0.0001092753  -0.0000154526
        0.0360803992   0.0576457355   0.0449742281  -0.0241454944  -0.0389523152
       -0.0354038870  -0.0047349275  -0.0068363795  -0.0030869182   0.0001587469
        0.0020370924   0.0001717636  -0.0001085189  -0.0000446333   0.0001841236
        0.0001506634   0.0000146917   0.0000216375   0.0000641259   0.0000365778
       -0.0000616928   0.0000514209   0.0000715273  -0.0000319289  -0.0000030964
       -0.0000568191  -0.0000070375   0.0002524500   0.0000045435  -0.0001685876
       -0.0000298463   0.0001429149   0.0000788959   0.0000631670  -0.0000835188
        0.0000708666   0.0001392041  -0.0000600016   0.0000391354  -0.0000802326
        0.0001289254   0.0000779720  -0.0012125385   0.0010197291  -0.0020899259
       -0.0016716048  -0.0001010286  -0.0001335456  -0.0017001497  -0.0017623064
        0.0036412994   0.0008346402   0.0016301384   0.0004364620  -0.0010816089
       -0.0010710801  -0.0014708607  -0.0000955253   0.0008174529  -0.0000967928
        0.0000320089  -0.0001619085   0.0000763874  -0.0000113566   0.0001349022
       -0.0000373177  -0.0000560817   0.0000599216  -0.0000501641   0.0001333305
        0.0000191074   0.0000922382  -0.0002048620   0.0000515814  -0.0001299528
       -0.0000125369  -0.0001942660   0.0000888601  -0.0000349103   0.0001220982
        0.0000105670   0.0000567106  -0.0000574551   0.0000555969   0.0000899950
        0.0000235343   0.0001490099  -0.0000853011   0.0000906590  -0.0001220340
        0.0008055979  -0.0002018184   0.0001607270   0.0005240139  -0.0014054402
        0.0040642238  -0.0001150517  -0.0002470048   0.0000537728  -0.0038224376
       -0.0145796901  -0.0049132489  -0.0000272091   0.0015079004  -0.0013185599
        0.0011511050  -0.0011210456  -0.0004172713   0.0005267839  -0.0001029358
       -0.0008036810   0.0000471007   0.0000294744  -0.0000091019  -0.0001674580
        0.0000631498   0.0000053751  -0.0000820094  -0.0000631513   0.0001465825
        0.0000690247   0.0001844028  -0.0001055142  -0.0002642462   0.0000634203
       -0.0000327523  -0.0000542162   0.0000485318  -0.0000099222  -0.0000585449
        0.0000299805  -0.0000064574   0.0000668733   0.0000435315   0.0000095575
       -0.0000446428   0.0002348002  -0.0000497701   0.0001538286  -0.0004484588
        0.0002696468   0.0000117678   0.0000263867  -0.0000644695   0.0000252862
        0.0000145941  -0.0000110668   0.0000152661   0.0000176754   0.0000129566
        0.0000175871   0.0000144691  -0.0000023985   0.0000076634  -0.0000109285
       -0.0000060024   0.0000024118  -0.0000121886  -0.0000396945   0.0000296599
       -0.0000464358   0.0000175556  -0.0018763791   0.0015419887  -0.0027876193
       -0.0000159403  -0.0000149245  -0.0000358513   0.0000072341   0.0000057963
        0.0000125545   0.0000093416   0.0000107916   0.0000104839   0.0000017052
        0.0000171905   0.0000139643  -0.0000097077   0.0000072472   0.0000090532
        0.0000041123   0.0000117914  -0.0000108958  -0.0000029713   0.0000192623
        0.0000017241   0.0000186688  -0.0001056504   0.0000062527   0.0003696217
       -0.0002541331  -0.0013895503  -0.0000515688   0.0000245307   0.0000393689
       -0.0000454616   0.0000046558  -0.0000142693  -0.0000323044   0.0000030079
       -0.0000065110  -0.0000207530   0.0000260994  -0.0000047611  -0.0000104393
        0.0000215302  -0.0000089070  -0.0000085366   0.0000354366  -0.0000241456
        0.0000069532  -0.0000632606  -0.0000397755
       -0.0547967135  -0.0458382153  -0.0241454944   0.5514911390  -0.0574525178
        0.0115982144  -0.2533555005   0.0301026648  -0.0069037202  -0.0410155637
        0.0229945791   0.0057971996   0.0042903835   0.0024261288  -0.0024837408
       -0.0002895203  -0.0001804951   0.0006190454   0.0004959288  -0.0002697375
       -0.0007515343   0.0001190924   0.0005806863  -0.0001622001  -0.0004875479
       -0.0004118025   0.0002840255   0.0000710101   0.0015500060  -0.0001559687
       -0.0010851818  -0.0012742655   0.0011029134   0.0008837145   0.0005148819
       -0.0005024055  -0.0007157335   0.0000390793   0.0005561611   0.0000202224
       -0.0009236699   0.0003133250  -0.0006805003   0.0006753979  -0.0004648371
       -0.0016273206  -0.0044955169  -0.0009871567  -0.0409830062  -0.0841702964
       -0.0261610020  -0.0437229738   0.0220364289   0.0065991113   0.0062116385
        0.0061076237   0.0001634975   0.0010033104  -0.0029050783   0.0004769375
       -0.0005158834   0.0004188371  -0.0001943859   0.0000211834  -0.0005536751
        0.0000997563   0.0002733943   0.0000269405   0.0002030848  -0.0003120433
       -0.0000160781  -0.0001242083   0.0008049244  -0.0000102362   0.0005950564
        0.0000178505   0.0010005426  -0.0003447042   0.0001020955  -0.0003008091
       -0.0000440821  -0.0000453345   0.0001999910  -0.0000355576  -0.0002027439
       -0.0002119689  -0.0006130358   0.0003863453  -0.0004276008   0.0004162530
       -0.0031757447   0.0007068755  -0.0007613778   0.0489381038   0.0214672290
        0.0093430662  -0.0014968905  -0.0025110666  -0.0005244156  -0.1203209649
        0.0602433927   0.0202932272  -0.0494418638   0.0288654063   0.0029306557
        0.0030741517   0.0070333671  -0.0004228406  -0.0008223339  -0.0008680997
        0.0000282560   0.0006753983   0.0001021038  -0.0004523736  -0.0003475265
        0.0002988484  -0.0002719119   0.0002885720  -0.0007243360   0.0000313043
       -0.0011796384   0.0010307335  -0.0013236028  -0.0021185267  -0.0007914242
       -0.0000406353  -0.0000221359   0.0002213299  -0.0002851789  -0.0004567686
       -0.0004609848   0.0003758108   0.0009417592  -0.0004608944   0.0005025544
       -0.0003278614   0.0003219289  -0.0007895465  -0.0005471832  -0.0043975902
        0.0047880616   0.0000364895  -0.0002700953   0.0001398995  -0.0000993364
       -0.0001023082   0.0000901651  -0.0000631014   0.0000142709   0.0001454542
       -0.0001738300   0.0001125850   0.0000201617  -0.0000472795   0.0000921514
        0.0000895110  -0.0000007819   0.0001206544  -0.0000671474   0.0000858202
        0.0000530429  -0.0001027442   0.0003974758   0.0000845031   0.0000699657
        0.0000847323  -0.0000051332   0.0001368421  -0.0000880545   0.0000851164
       -0.0000875764  -0.0000166623   0.0001221613  -0.0000254706   0.0000632382
        0.0001147737   0.0000193408   0.0000839031   0.0000982208   0.0000022636
        0.0000395274   0.0000444293   0.0001434398   0.0000567431  -0.0000535906
        0.0000612284  -0.0001436496  -0.0000466330   0.0003262345   0.0002251117
       -0.0000643866   0.0009225250   0.0000131822  -0.0000682419   0.0001163285
       -0.0000707945  -0.0000365616   0.0001382523  -0.0001499710  -0.0000389104
       -0.0000403265  -0.0003120485   0.0001079924  -0.0000071901  -0.0001278957
        0.0000753915  -0.0001079289  -0.0000027819   0.0001212742  -0.0001363452
        0.0001927513   0.0001306499  -0.0000184835
       -0.0466185514  -0.0975078244  -0.0389523152  -0.0574525178   0.4479624602
        0.1258880512  -0.0260081559  -0.0585842390  -0.0038723792   0.0365979495
       -0.0136058089  -0.0059359671  -0.0029421304  -0.0036061875   0.0032975355
        0.0006592038   0.0004773859  -0.0007594626  -0.0008578850   0.0003266604
        0.0006759865  -0.0000844385  -0.0006866128   0.0001425649   0.0002015894
        0.0001247374  -0.0002497183   0.0006100823  -0.0017836949  -0.0003283896
        0.0016186046  -0.0002866530  -0.0012144262  -0.0005772383  -0.0000139099
        0.0000436970   0.0002743450  -0.0000510677  -0.0001764081  -0.0002044734
        0.0005867826   0.0000089108  -0.0009121157  -0.0013356709  -0.0006218696
        0.0027478335   0.0055756998  -0.0003163493  -0.0317218713   0.0043019384
       -0.0009712473   0.0192180611  -0.0093005290  -0.0022312121   0.0000046809
        0.0006641876   0.0002877397   0.0002783279  -0.0005540702   0.0004367427
        0.0000974048   0.0001319297  -0.0002294468  -0.0000852262  -0.0002743818
        0.0000553314  -0.0000330496  -0.0000018506  -0.0000346399   0.0000279825
       -0.0001749642   0.0000391703   0.0000563420   0.0002601236   0.0000100563
        0.0001741104   0.0001324529   0.0000577703  -0.0001966171  -0.0000173589
       -0.0000854422   0.0000016698  -0.0000398172  -0.0000138890  -0.0002572399
       -0.0000516373   0.0000080908   0.0000737738  -0.0000673175  -0.0000470037
       -0.0002929301   0.0000668223  -0.0006589907  -0.0215074002  -0.0583201574
       -0.0199015396  -0.0018594824   0.0003885386  -0.0014051236   0.1155141318
       -0.2100163048  -0.0529405446   0.0155240994  -0.0029821776  -0.0005674942
       -0.0009906449  -0.0000616014  -0.0007502037   0.0000184310  -0.0009178611
       -0.0002657066  -0.0000427184  -0.0001085636   0.0001630524   0.0001658802
       -0.0001790812   0.0001246482   0.0000455721   0.0003034820  -0.0002889441
       -0.0008041925  -0.0005373772   0.0003109026  -0.0002650055   0.0003573729
       -0.0002365255   0.0000422235  -0.0003028864   0.0001090691   0.0000343988
        0.0000308498  -0.0000582027   0.0000438209  -0.0001757641  -0.0000654799
        0.0000970523   0.0003515573  -0.0001966007  -0.0005343151   0.0005112273
        0.0002544304  -0.0000352498  -0.0002255572  -0.0000683620   0.0001364828
        0.0000634647  -0.0001177083   0.0001446824  -0.0000689078  -0.0001321760
        0.0002421869  -0.0002020364  -0.0000872583   0.0000849643  -0.0001280078
       -0.0000495930  -0.0000016594  -0.0001375746   0.0000653487  -0.0000449856
       -0.0000963609   0.0000957940   0.0002466455  -0.0005115903   0.0013092100
        0.0000123958   0.0000132159  -0.0000268022  -0.0000055814   0.0000113909
       -0.0000204838   0.0000057013   0.0000080079  -0.0000209740   0.0000023723
        0.0000186723   0.0000011966   0.0000059369   0.0000172962   0.0000154515
        0.0000300739  -0.0000017758  -0.0000322525  -0.0000004090  -0.0000083261
       -0.0000073022   0.0000375015  -0.0000016234  -0.0000833545  -0.0001159666
        0.0003634602   0.0004023762  -0.0000433685  -0.0000020722   0.0000140854
       -0.0000410102  -0.0000361918  -0.0000188695  -0.0000639358   0.0000092601
        0.0000438063  -0.0000708846  -0.0000162037  -0.0000368003  -0.0000644322
        0.0000377487   0.0000260478  -0.0000502383   0.0000121633  -0.0000264958
       -0.0002905940  -0.0001272905   0.0002168876
       -0.0237194304  -0.0383425338  -0.0354038870   0.0115982144   0.1258880512
        0.1304662106  -0.0258907565  -0.0003896625  -0.0478408647   0.0107341298
       -0.0080832161   0.0009826513   0.0000307467  -0.0010756353   0.0012587989
        0.0002429411  -0.0002873124  -0.0001602720  -0.0004308880   0.0002323540
        0.0002539492  -0.0001081980  -0.0005006718   0.0001576460   0.0003010979
        0.0003092558  -0.0003570099  -0.0003898318  -0.0007914352   0.0003979366
        0.0008570212  -0.0001308565  -0.0006276800  -0.0003038930  -0.0000970523
        0.0000552151   0.0001991609   0.0000167239  -0.0000974197  -0.0002943913
        0.0002257214  -0.0002667250  -0.0003815291  -0.0002451910  -0.0001244719
        0.0016315292   0.0028075719  -0.0005290353  -0.0129655076  -0.0035678711
        0.0126423735   0.0083476937  -0.0016789251  -0.0037034102   0.0001824215
        0.0004460279   0.0009844092   0.0000566395  -0.0002089953   0.0000498904
       -0.0000648833   0.0000344128  -0.0001174311  -0.0000069328  -0.0000805109
        0.0000435067   0.0000060000   0.0000036263   0.0000060937  -0.0000155540
       -0.0000355394  -0.0000045341   0.0000398202   0.0000466073   0.0000222006
        0.0001115546   0.0000592140   0.0000270043  -0.0000427679  -0.0000200596
       -0.0000310524  -0.0000108349  -0.0000198771  -0.0000015083  -0.0000673872
        0.0000468668  -0.0000308844   0.0000405379  -0.0002569574   0.0000801853
       -0.0000932780   0.0001884964  -0.0000167034  -0.0093520658  -0.0198988204
       -0.0085614742   0.0005389772  -0.0031925326   0.0040642336   0.0397800018
       -0.0506666875  -0.0568957238  -0.0002119605  -0.0023468711   0.0038915792
        0.0002128804   0.0017590840  -0.0006792237   0.0003028579  -0.0003542913
        0.0000093161   0.0000960718  -0.0001906413  -0.0002090939   0.0000081173
        0.0000201498   0.0000042015   0.0000338438  -0.0000455117  -0.0001055961
       -0.0006954930   0.0000696041  -0.0001812017   0.0001004464  -0.0004396052
        0.0003596638  -0.0000212815   0.0002174696  -0.0002496874  -0.0002042730
       -0.0001575144   0.0001299452   0.0001706207  -0.0001500357   0.0000982417
       -0.0000227924   0.0000800323  -0.0002197547  -0.0006380211   0.0002246214
       -0.0001133704  -0.0000766911   0.0001601824   0.0000055399   0.0000306655
        0.0000375953  -0.0000260153   0.0000508852  -0.0000032455  -0.0000348689
        0.0000431573  -0.0000766741  -0.0000236286   0.0000018534  -0.0000656998
       -0.0000190102   0.0000233934  -0.0000202259   0.0000982129  -0.0000661300
       -0.0000582341   0.0000480542  -0.0001940186   0.0005380054   0.0003041080
        0.0000218374  -0.0000656051   0.0000121537  -0.0000010716  -0.0000022528
       -0.0000077990   0.0000055168   0.0000091026  -0.0000029727   0.0000036542
        0.0000036143   0.0000064473   0.0000087526   0.0000115325   0.0000125784
        0.0000175348   0.0000081423   0.0000107345   0.0000077990  -0.0000090082
        0.0000088327   0.0000581305   0.0001535440   0.0000006976   0.0004795482
        0.0002451227  -0.0000718144  -0.0000026755  -0.0000558470   0.0000230042
        0.0000019980   0.0000159829   0.0000609053  -0.0000414147  -0.0000344615
        0.0000105825  -0.0000411783  -0.0000271206  -0.0000064569  -0.0000422682
        0.0000059777  -0.0000091306  -0.0000079153   0.0000030774  -0.0000115723
        0.0000272625  -0.0001945813   0.0001541804
       -0.0150769516  -0.0105888746  -0.0047349275  -0.2533555005  -0.0260081559
       -0.0258907565   0.6090959795  -0.0114530640   0.0033310282  -0.1323091251
        0.0873839696   0.0325361941  -0.0286455056   0.0197742203   0.0054985285
        0.0017594092   0.0006944755  -0.0022200650  -0.0011737866   0.0006025489
        0.0013986573  -0.0001126110  -0.0011791498   0.0000862773   0.0005260664
        0.0022124834   0.0000872909  -0.0038013958  -0.0011076401   0.0048619663
        0.0034420496  -0.0023917163   0.0001190212  -0.0005381308  -0.0000628104
        0.0005607489   0.0006246958  -0.0001651830  -0.0005171307  -0.0006082208
        0.0014418503  -0.0002385577  -0.0001386642  -0.0032623636   0.0001209164
        0.0060668037   0.0109462063  -0.0054966532  -0.1616056181  -0.0980915292
       -0.0172629844   0.0578725027  -0.0169676583  -0.0050112180  -0.0077869576
       -0.0023747030   0.0004820583  -0.0010353841   0.0032178206  -0.0003250464
        0.0006598595  -0.0003922186   0.0003116708   0.0000124109   0.0005551142
       -0.0000592057  -0.0002599487  -0.0001511626  -0.0001756991   0.0001243029
        0.0000606934  -0.0000348239  -0.0006241738  -0.0001590295  -0.0005724030
       -0.0004358166  -0.0010091722   0.0001203701  -0.0000003160   0.0000709577
        0.0001350474  -0.0001116201  -0.0001144630  -0.0000842102   0.0001130591
        0.0003941460   0.0005014727  -0.0008134397   0.0001236271  -0.0004709790
        0.0040310342  -0.0007638730   0.0014410826  -0.0437387034  -0.0192053302
       -0.0083471199   0.0013334302  -0.0016159347  -0.0008340041  -0.0405878191
        0.0717630148   0.0200418054   0.0110898516   0.0002921869   0.0006394649
       -0.0030651737  -0.0042890451   0.0012670827   0.0004513415   0.0009717040
       -0.0006225154  -0.0006234415  -0.0003381255   0.0004717959   0.0003389019
       -0.0003090177   0.0003086687  -0.0003585068   0.0005461144  -0.0002656138
        0.0008632673  -0.0008776658   0.0007201651   0.0008780957   0.0007638580
       -0.0007198463  -0.0003268531  -0.0005054881   0.0001799769   0.0003411438
        0.0004024284  -0.0003275296  -0.0007658642   0.0002676876  -0.0006419324
        0.0004354580  -0.0005827909   0.0009379919  -0.0029042940   0.0045450683
       -0.0012179168  -0.0004881761  -0.0007018152   0.0003552461   0.0003515914
        0.0001878449  -0.0002525051   0.0003031656  -0.0001347746  -0.0003321649
        0.0000434918  -0.0002746810   0.0001775212   0.0001672983  -0.0004265203
       -0.0000520566  -0.0000218388  -0.0002913927   0.0001909737  -0.0001705153
       -0.0003572817   0.0003281047  -0.0002354503  -0.0002341433   0.0007103411
       -0.0001426679   0.0000538713  -0.0002782759   0.0000635870  -0.0000979197
        0.0000524974   0.0000035667  -0.0001369076  -0.0000108110  -0.0000662555
       -0.0001580296  -0.0000494591  -0.0000860221  -0.0000528243  -0.0000407218
       -0.0000071815  -0.0000122525  -0.0001278199  -0.0001544452   0.0000268415
       -0.0001508838   0.0000030543  -0.0001697055  -0.0008254285   0.0000888052
       -0.0003342815   0.0002663932   0.0001054006   0.0001354146  -0.0001791930
        0.0002067172   0.0001133389  -0.0000894784   0.0002709857   0.0000296216
        0.0000081325   0.0002931955  -0.0000732551  -0.0000436180   0.0001941912
       -0.0000883964   0.0001152036   0.0000432520  -0.0001606853   0.0001349290
       -0.0000215905   0.0000939233   0.0000049301
       -0.0238337559  -0.0124394309  -0.0068363795   0.0301026648  -0.0585842390
       -0.0003896625  -0.0114530640   0.6150854925   0.1049389551   0.0859812010
       -0.1893714037  -0.0202350757   0.0215751351   0.0013809631  -0.0080155458
       -0.0032999494   0.0002457077   0.0023484262   0.0015494051  -0.0014525674
       -0.0020163022   0.0002116548   0.0017751398  -0.0003607633  -0.0010591317
       -0.0015619697   0.0005898081   0.0003080556   0.0043173552  -0.0006195021
       -0.0035752144  -0.0057293837   0.0042010776   0.0027928105   0.0003380183
       -0.0015455756  -0.0017061754   0.0004258343   0.0011331440   0.0007049997
       -0.0025807087   0.0006555981   0.0004971804   0.0036673233  -0.0016905105
        0.0085995505  -0.0361212968  -0.0051157782  -0.1253757921  -0.2406640457
       -0.0534580520   0.0169153206  -0.0827954125  -0.0203229746   0.0049210693
        0.0011415781   0.0003580542   0.0006836747  -0.0045273176  -0.0002154549
        0.0002839834   0.0010368502  -0.0005002071  -0.0002163630  -0.0007634232
        0.0003144606   0.0005009434   0.0000159182   0.0003537543  -0.0006448816
        0.0001347652  -0.0003386381   0.0009499964  -0.0004039981   0.0007702636
       -0.0006803530   0.0006988249  -0.0004483953   0.0004269143  -0.0005693083
        0.0003805626   0.0000073079   0.0006719025  -0.0001780070  -0.0008211204
       -0.0000834483  -0.0004553479   0.0011626115   0.0000259285   0.0008441884
       -0.0033630877  -0.0003777378  -0.0015364791  -0.0220240380  -0.0092856381
       -0.0016753487  -0.0023493912   0.0020417637   0.0016305428   0.0224815219
        0.0161490044   0.0096229711   0.0008267817  -0.0031939867  -0.0034814916
        0.0010734434   0.0009043968  -0.0005544072  -0.0003513449  -0.0002086285
        0.0000741150   0.0001487490   0.0000674264  -0.0001874661   0.0000618923
        0.0000043584  -0.0000087084   0.0002071748  -0.0000182290   0.0000103985
       -0.0002022804   0.0001216442  -0.0000568647  -0.0001261296  -0.0000313203
        0.0002193584   0.0001925790   0.0000436489   0.0000622400  -0.0000344579
       -0.0000869326   0.0000607289   0.0001025847  -0.0001611358   0.0001706618
       -0.0001771759   0.0001257311  -0.0001671772   0.0009833868  -0.0013048236
        0.0000546025  -0.0011771796  -0.0004818626   0.0019606472  -0.0004270126
       -0.0002630412   0.0003511724  -0.0002218926   0.0000280782   0.0004359561
       -0.0004390726   0.0003803375   0.0000777644  -0.0002112369   0.0000913284
        0.0002820070  -0.0000629655   0.0004577203  -0.0002243337   0.0002476590
        0.0004142218  -0.0003983550  -0.0000707746  -0.0000401014  -0.0001539232
       -0.0000706975  -0.0001640318  -0.0000945054  -0.0001310172   0.0001208281
       -0.0001169224   0.0000063938   0.0001582581  -0.0000936335   0.0000770603
        0.0001498650   0.0000971589   0.0001156110   0.0002077004   0.0000350802
        0.0002025365   0.0000978930   0.0001036209   0.0001627011  -0.0000487053
        0.0001746023  -0.0007929933   0.0006330543  -0.0009806151   0.0000204962
        0.0001983988   0.0000510589  -0.0000262798  -0.0000397999   0.0000549283
       -0.0000486411  -0.0000196262   0.0000461227  -0.0000668965   0.0000293915
       -0.0000313492  -0.0000867484  -0.0000082935   0.0000209196  -0.0000459142
        0.0000333857  -0.0000433260   0.0000262410   0.0000523866  -0.0000350320
        0.0000617377  -0.0000905755   0.0000971606
       -0.0109227381  -0.0057190465  -0.0030869182  -0.0069037202  -0.0038723792
       -0.0478408647   0.0033310282   0.1049389551   0.1700516010   0.0329027769
       -0.0193680994  -0.0495954187   0.0097991709  -0.0129548732  -0.0072236545
       -0.0004915810  -0.0007283209  -0.0001948729   0.0007295389  -0.0002330197
        0.0002341648  -0.0000362127   0.0003379568  -0.0001666771   0.0004100333
       -0.0009204002   0.0006401290   0.0039514322   0.0007277889  -0.0010828900
        0.0004263096   0.0022265936   0.0010832733   0.0005182963   0.0005434149
        0.0006406230  -0.0003974079   0.0000379930   0.0001169806   0.0007127290
       -0.0003958651   0.0007410901  -0.0006401468   0.0013781113  -0.0006281531
       -0.0096251050   0.0006257797  -0.0013740685  -0.0294863125  -0.0470390233
       -0.0613150753   0.0050023052  -0.0203244116  -0.0079273064   0.0023394371
       -0.0003119122   0.0069928898  -0.0010683582  -0.0013565611   0.0007052874
        0.0000835190   0.0002185394  -0.0001353156   0.0000426412  -0.0001421855
       -0.0000325908   0.0000871358   0.0000203128   0.0000686065  -0.0001696396
       -0.0000378291  -0.0002652244   0.0004918160  -0.0002984991   0.0002897799
        0.0000049595   0.0002517264  -0.0001320269   0.0001622642  -0.0000624739
        0.0000567710  -0.0000074668   0.0001714588  -0.0000404749  -0.0001604443
        0.0000379062  -0.0002588724  -0.0000329474  -0.0005038110   0.0000699856
       -0.0004712098   0.0006301274   0.0000373796  -0.0065989278  -0.0022281532
       -0.0037030189  -0.0003236319   0.0002342472   0.0004364733   0.0067903522
        0.0071403295  -0.0024942654  -0.0009788116  -0.0043252069   0.0061128819
       -0.0007198738   0.0008100415   0.0001423222   0.0000743648  -0.0001039861
        0.0001137870   0.0001891144   0.0000457010  -0.0001690993  -0.0000749899
        0.0000580583  -0.0000331677  -0.0000673111  -0.0001009252   0.0000008096
       -0.0002313029   0.0000126086  -0.0000904318   0.0001419253  -0.0005084899
        0.0004668098   0.0001437535   0.0000994387  -0.0001366148  -0.0000964000
       -0.0000326833   0.0000393219   0.0000739520  -0.0000720002  -0.0000062727
       -0.0000930100   0.0000755684  -0.0000980618   0.0016404851  -0.0000025093