$hessian                                                                        
        0.5606181578  -0.0128260142  -0.2635422343  -0.2228842333  -0.1367716324
        0.1826497525  -0.0372902595  -0.0077438488   0.0253732979   0.0018216819
       -0.0046455523   0.0010244395  -0.0014612661  -0.0006026941   0.0001506715
        0.0008367675  -0.0006669679  -0.0003425356  -0.0000746457   0.0000341648
        0.0000902345  -0.0000206841   0.0000637055   0.0000602747   0.0001426612
       -0.0000926584   0.0000023935  -0.0000410015   0.0000342315   0.0000258385
        0.0000128029  -0.0000029568   0.0000034399  -0.0000129776   0.0000089776
       -0.0000129897   0.0000155742  -0.0000084754   0.0000146041  -0.0000328831
        0.0000188082  -0.0000013051  -0.0000014432  -0.0000012555  -0.0000071345
        0.0000214544  -0.0000044080   0.0000133884  -0.0000101286   0.0000099459
       -0.0000047360   0.0000043510  -0.0000037365  -0.0000051124  -0.0000046676
        0.0000051617   0.0000010665   0.0000039881  -0.0000080495  -0.0000076219
       -0.0000240088   0.0000133442  -0.0000175397   0.0000055399  -0.0000030295
        0.0000015756   0.0000010341   0.0000029329  -0.0000004693   0.0000043834
        0.0000010261   0.0000001524   0.0000014052   0.0000007218  -0.0000001096
        0.0000024164   0.0000011640  -0.0000003160  -0.0000095876  -0.0000044805
        0.0000068159   0.0000266463  -0.0000022603  -0.0000079589  -0.0000144499
        0.0000229062   0.0000026707   0.0000237487  -0.0000235065  -0.0000040189
       -0.0000384107  -0.0000112899   0.0000094194   0.0000520370   0.0000208760
       -0.0000217001  -0.0001596461  -0.0000739815   0.0000304491   0.0000189403
       -0.0000245031   0.0000010296   0.0000207456   0.0000079953  -0.0000096195
       -0.0000069787  -0.0000113759   0.0000031106   0.0000192198   0.0000023012
       -0.0000064863  -0.0000058216   0.0000249286  -0.0000060680  -0.0000123720
       -0.0000285453   0.0000175545   0.0000160501   0.0001097627  -0.0000031094
        0.0002238274  -0.0000927632  -0.0000353257  -0.0002329546   0.0001307369
       -0.0000070980  -0.0000148253  -0.0000565918   0.0000006868  -0.0002029126
       -0.0000911882  -0.0000322181  -0.0001546543  -0.0000359800   0.0001596288
        0.0000181519   0.0001472846   0.0000250495   0.0000500218  -0.0001008745
        0.0001189665   0.0001213479   0.0001076065  -0.0000397659  -0.0000328029
       -0.0000170166   0.0000007667  -0.0000061948  -0.0000009926   0.0000003183
        0.0000037280  -0.0000066980   0.0000081719   0.0000378626   0.0000235793
        0.0000037253  -0.0000892752  -0.0000237812  -0.0000212191  -0.0000026219
       -0.0000395473   0.0000522021   0.0002270652   0.0002069437  -0.0000493853
       -0.0002919603  -0.0001521643  -0.0000391275   0.0000643396  -0.0000168365
        0.0000461951  -0.0000024997   0.0000184766   0.0000131164   0.0000079484
        0.0000174715   0.0000017575   0.0000318725   0.0000139226   0.0000061159
        0.0000366872   0.0000111944  -0.0000139113   0.0000116763   0.0000068301
       -0.0000021115   0.0000959186   0.0001105972  -0.0000508546   0.0000355279
        0.0000494756  -0.0000269258   0.0000088322   0.0000045396   0.0000130773
       -0.0000322286   0.0000236175  -0.0000176313   0.0000131066   0.0000405427
       -0.0000079369  -0.0000070630   0.0000122218   0.0000087872   0.0000131667
        0.0000157614   0.0000012212  -0.0000418999  -0.0001298056   0.0000376898
        0.0000349606  -0.0001095302   0.0001101951   0.0001815947   0.0000288765
        0.0000952382  -0.0001970438  -0.0001415805   0.0001407364   0.0000084102
        0.0000297387  -0.0000458192   0.0000026532   0.0000146989   0.0000198142
        0.0000024914   0.0000071150   0.0000304813  -0.0000029916  -0.0000016726
        0.0000120776  -0.0000004481   0.0000037741  -0.0000058691   0.0000067932
        0.0000088742   0.0000021705  -0.0000033004   0.0000065084  -0.0000136517
       -0.0000237955   0.0000162057  -0.0000256139   0.0000372309  -0.0001283922
        0.0000342876  -0.0002320843   0.0000096623  -0.0001726668   0.0000009846
        0.0000952864  -0.0000804948  -0.0000865952  -0.0001936147   0.0000671901
       -0.0001060883  -0.0000692940   0.0000093694   0.0000023333  -0.0000778219
        0.0001235207   0.0002724140   0.0000937456  -0.0000315474  -0.0001754149
        0.0001238459  -0.0001719240   0.0000659535  -0.0000434174  -0.0000194185
        0.0000308244   0.0001288821   0.0000506635   0.0000044041  -0.0000727187
       -0.0000265091  -0.0025511958   0.0005719302   0.0006848927  -0.0001468967
        0.0043198553  -0.0003186317  -0.2428110446   0.0926204272   0.0740776189
       -0.0594021515   0.0627127821  -0.0185588986   0.0043097025   0.0026861446
       -0.0018892298  -0.0005326924   0.0002380158   0.0006643010  -0.0000031174
       -0.0000223839  -0.0000164291  -0.0000122676   0.0000269869  -0.0000111806
       -0.0000268231  -0.0000046481   0.0000017318   0.0000056877  -0.0000095924
       -0.0000066799  -0.0000068553   0.0000042517   0.0000050760  -0.0000083516
        0.0000026866   0.0000007264   0.0000030551   0.0000017609   0.0000214629
       -0.0000009230  -0.0000041178  -0.0000031091  -0.0000041151  -0.0000003749
       -0.0000072399  -0.0000057570   0.0000004769  -0.0000037799  -0.0000019984
       -0.0000003595  -0.0000026682  -0.0000010448   0.0000008194   0.0000021659
       -0.0000036576   0.0000032410  -0.0000020788  -0.0000004205  -0.0000026143
        0.0000009800  -0.0000014059  -0.0000002662   0.0000015643  -0.0000043814
       -0.0000039085   0.0000012193  -0.0000020018   0.0000015372  -0.0000017756
       -0.0000011323  -0.0000018040  -0.0000005982  -0.0000000602  -0.0000008041
        0.0000007616  -0.0000006450   0.0000039166  -0.0000018648   0.0000000800
        0.0000012041   0.0000006236  -0.0000014992   0.0000008997  -0.0000002220
        0.0000028575  -0.0000012858  -0.0000012559   0.0000177822  -0.0000044537
        0.0000067138  -0.0000371126  -0.0000208994   0.0000131884   0.0000035110
       -0.0000054422  -0.0000015841   0.0000032451  -0.0000034136   0.0000000952
       -0.0000010417  -0.0000018711   0.0000002659   0.0000074030   0.0000069444
       -0.0000075605   0.0000423211  -0.0000157998   0.0000007479  -0.0000016259
       -0.0000478882  -0.0000186913   0.0002261089  -0.0001237309  -0.0000843548
        0.0000130960   0.0000021886   0.0000015986  -0.0000001955  -0.0000177996
        0.0000101720  -0.0000082753  -0.0000189773   0.0000064504  -0.0000133935
       -0.0000081072  -0.0000035416   0.0000022423   0.0000052767  -0.0000117435
       -0.0000149382  -0.0000043597  -0.0000074029   0.0000047609  -0.0000198931
       -0.0000092134  -0.0000139822   0.0000013619  -0.0000039004   0.0000021408
       -0.0000044425  -0.0000075393  -0.0000106318  -0.0000101714   0.0000010435
       -0.0000136561  -0.0000064456   0.0000067937  -0.0000149406   0.0000020026
       -0.0000040870  -0.0000022528   0.0000002711  -0.0000094398  -0.0000215161
       -0.0000271192   0.0000009294  -0.0000200159   0.0000044889   0.0000045170
       -0.0000093037   0.0000064584   0.0000030614   0.0000014855  -0.0000068239
        0.0000019913   0.0000037882  -0.0000038769  -0.0000009086   0.0000018553
       -0.0000012500  -0.0000016765   0.0000065695  -0.0000187963  -0.0000014760
        0.0000291736   0.0000048069  -0.0000470997   0.0002530288  -0.0000706746
       -0.0003993280  -0.0001832440   0.0000559721  -0.0001053365  -0.0000008538
       -0.0000108869   0.0000098909  -0.0000023340  -0.0000015126  -0.0000025339
       -0.0000072461  -0.0000039039   0.0000041075  -0.0000049453  -0.0000004320
       -0.0000011108  -0.0000000097  -0.0000015998  -0.0000038069   0.0000024210
       -0.0000030033   0.0000051623   0.0001291847   0.0002130676   0.0000035087
       -0.0000030834   0.0000166748  -0.0000011246   0.0000292041   0.0000170329
        0.0000227986  -0.0000585096  -0.0000120158  -0.0000261672  -0.0001651800
       -0.0001137169  -0.0000960467   0.0000749461   0.0000891824   0.0001257749
       -0.0003408304   0.0000813053   0.0001274566   0.0000272921   0.0002100306
        0.0001246143
       -0.0128260142   0.5481050339  -0.2338375202  -0.1229398638  -0.2002252503
        0.1581483767  -0.0100611605   0.0111249052  -0.0002885458   0.0034745583
       -0.0043576841  -0.0004180119  -0.0017508968   0.0000376235   0.0011878997
        0.0008867700   0.0002019275  -0.0004677460  -0.0003259224   0.0001341679
       -0.0000438924   0.0002458163  -0.0001022571   0.0000534813  -0.0001111819
        0.0000968850   0.0000228610   0.0000410642  -0.0000302458  -0.0000124431
       -0.0000157437   0.0000070254   0.0000034606   0.0000016368   0.0000002436
        0.0000162062  -0.0000222602   0.0000098013  -0.0000225892   0.0000410833
       -0.0000273296   0.0000162940   0.0000018701  -0.0000022674  -0.0000141847
       -0.0000085612  -0.0000087639   0.0000021464   0.0000019444  -0.0000121061
        0.0000106134  -0.0000019085   0.0000019532   0.0000045900  -0.0000040761
       -0.0000021207  -0.0000017956   0.0000121063  -0.0000008995   0.0000020884
        0.0000002781  -0.0000007181   0.0000243686  -0.0000013813  -0.0000025701
        0.0000030442  -0.0000018272  -0.0000044846  -0.0000001262  -0.0000038368
       -0.0000041297   0.0000064028  -0.0000018151  -0.0000043390   0.0000030152
       -0.0000012354   0.0000025303  -0.0000022826  -0.0000309916  -0.0000079455
        0.0000182929   0.0000666912  -0.0000558175  -0.0000109000  -0.0000579549
        0.0000644424  -0.0000003589  -0.0000116730   0.0000038364   0.0000099882
       -0.0000346876   0.0000195182   0.0000246220  -0.0000336435  -0.0000001896
        0.0000326197  -0.0000024422  -0.0000164394   0.0000008494   0.0000198573
       -0.0000040338  -0.0000024963   0.0000047650  -0.0000004235  -0.0000022804
       -0.0000008668   0.0000183186  -0.0000017229  -0.0000072693  -0.0000013507
        0.0000044013  -0.0000136886   0.0000160327   0.0000034647  -0.0000015176
        0.0000138773  -0.0000006408  -0.0000030621   0.0000330901  -0.0000147251
       -0.0000021140  -0.0000145509   0.0000325532   0.0000551791  -0.0000428187
        0.0000585713   0.0001552479   0.0000493408   0.0000451987  -0.0000006379
       -0.0001879221  -0.0002705588  -0.0001072152   0.0001975691  -0.0001219026
       -0.0002396022  -0.0001899765  -0.0000048295   0.0001727084  -0.0000974178
        0.0002010653   0.0000729229  -0.0000081001  -0.0000182240  -0.0000166203
        0.0000290731  -0.0000244088  -0.0000026513  -0.0000000054   0.0000065973
        0.0000277330  -0.0000080390   0.0000187755   0.0000384638   0.0000403823
       -0.0000059848  -0.0000378105  -0.0000163522  -0.0000046767   0.0000029870
       -0.0000003469   0.0000089397   0.0002047224   0.0001534065   0.0000045365
       -0.0002657304  -0.0001298505  -0.0000344257   0.0000645967  -0.0000323550
        0.0000430009   0.0000082614   0.0000058396   0.0000078573   0.0000080022
        0.0000090882  -0.0000000178   0.0000267484   0.0000003878   0.0000038202
        0.0000283434   0.0000052649  -0.0000318494   0.0000286231  -0.0000036748
       -0.0000123408   0.0000589093   0.0000198104   0.0000081740  -0.0000580863
        0.0000280707  -0.0000273058   0.0000059161  -0.0000010302   0.0000023188
        0.0000129088  -0.0000028047   0.0000079603   0.0000198209  -0.0000012819
        0.0000034696   0.0000018771  -0.0000263790  -0.0000272693   0.0000011599
        0.0000200145  -0.0000259979   0.0000392717   0.0000722949  -0.0000462846
       -0.0004066698   0.0001230539   0.0000032507   0.0000699694  -0.0001644096
       -0.0001011739  -0.0000370550  -0.0000134424  -0.0000723176   0.0000266538
        0.0000240340   0.0000834178  -0.0001175830  -0.0001930636   0.0000790104
        0.0000557214  -0.0000514566  -0.0000510198   0.0000192739   0.0000178677
       -0.0000330743  -0.0000010254   0.0000044548   0.0000074184  -0.0000176123
       -0.0000017456  -0.0000102476  -0.0000269323   0.0000061793   0.0000071154
        0.0000036140   0.0000167353   0.0000302717   0.0000621996  -0.0001615418
       -0.0001497045  -0.0000184595  -0.0000725718   0.0000564414   0.0000845516
       -0.0000070474   0.0000660118   0.0000001042   0.0000485540  -0.0000382192
        0.0000416017  -0.0000352674   0.0000245474   0.0001361624  -0.0000121536
        0.0000145374   0.0002243056  -0.0000592570   0.0000415820  -0.0001772132
        0.0002500090  -0.0001881531  -0.0000062346   0.0000600561   0.0000273065
       -0.0000116271  -0.0001722072  -0.0000871600   0.0000126111   0.0000266498
        0.0000358888  -0.0004642260   0.0009667693   0.0002532437   0.0039894225
        0.0009481992  -0.0021859390   0.0906270888  -0.0811895619  -0.0262571493
        0.0637009981  -0.2550349741   0.0854202027  -0.0162089305  -0.0201849152
        0.0210782346   0.0013730879  -0.0002476972  -0.0013715697   0.0000455073
       -0.0000201868  -0.0000668443   0.0000682594   0.0000160234  -0.0000375646
        0.0000196899  -0.0000319879  -0.0000040031  -0.0000082867   0.0000076845
       -0.0000021627   0.0000000561  -0.0000007621  -0.0000040400   0.0000039469
       -0.0000013295  -0.0000023910   0.0000034571   0.0000010224  -0.0000206922
        0.0000032117   0.0000093060   0.0000019298   0.0000036497   0.0000023736
        0.0000035868   0.0000033256   0.0000005127   0.0000005859   0.0000037771
        0.0000014845   0.0000003460   0.0000011822   0.0000004321  -0.0000001259
        0.0000012469   0.0000006549  -0.0000000941   0.0000006076   0.0000014489
        0.0000005136  -0.0000001694   0.0000011665  -0.0000016654   0.0000021547
        0.0000023064  -0.0000039707   0.0000016002  -0.0000001853   0.0000007648
        0.0000013773   0.0000003446  -0.0000011724   0.0000005377  -0.0000020518
        0.0000014317   0.0000009361  -0.0000022983   0.0000010086   0.0000042576
       -0.0000006762  -0.0000029939   0.0000000153   0.0000026752  -0.0000033380
        0.0000118050   0.0000006208  -0.0000078727   0.0000032476   0.0000044006
       -0.0000144874   0.0000996846  -0.0000180912  -0.0000451990   0.0000042416
       -0.0000067441  -0.0000000510   0.0000015555  -0.0000066722   0.0000002945
       -0.0000002875  -0.0000062907   0.0000007211  -0.0000039322  -0.0000232100
        0.0000060889   0.0000332173  -0.0000221706   0.0000130078   0.0000761305
        0.0000794304   0.0001785702  -0.0000725557   0.0000606613  -0.0000952677
        0.0000049204  -0.0000269912   0.0000182307  -0.0000028494  -0.0000201190
        0.0000111808  -0.0000097867  -0.0000174654   0.0000058941  -0.0000110845
       -0.0000035635  -0.0000010056   0.0000004164   0.0000078785  -0.0000038221
       -0.0000164665  -0.0000065644  -0.0000069106   0.0000038636  -0.0000018593
       -0.0000028558  -0.0000082494   0.0000044725  -0.0000026666   0.0000000998
        0.0000005414  -0.0000053892  -0.0000120371  -0.0000079675  -0.0000001086
       -0.0000183076  -0.0000049638   0.0000102958  -0.0000044875   0.0000016217
       -0.0000019942  -0.0000150103   0.0000010362   0.0000045819   0.0000016517
        0.0000082623   0.0000184225  -0.0000015475  -0.0000026414  -0.0000038148
       -0.0000153682  -0.0000023051   0.0000160286  -0.0000071024  -0.0000030964
        0.0000022880  -0.0000048635  -0.0000140750   0.0000111246   0.0000041412
       -0.0000188569   0.0000175058   0.0000083082  -0.0000014694   0.0000331158
        0.0000464809  -0.0000357053  -0.0001002279  -0.0001243536   0.0001781991
       -0.0002041105   0.0001580347   0.0001539979  -0.0001217633   0.0000035950
        0.0000005968  -0.0000116198   0.0000020303   0.0000042491   0.0000056540
        0.0000149888  -0.0000039740  -0.0000115470   0.0000035360   0.0000008987
       -0.0000022068  -0.0000007226   0.0000033318   0.0000000369   0.0000006182
        0.0000069889  -0.0000130958   0.0001006996  -0.0000727764  -0.0000852662
       -0.0000147762   0.0000152026  -0.0000101193   0.0000157337   0.0000127561
       -0.0000114123  -0.0000351033  -0.0000056433  -0.0000087923  -0.0000031545
       -0.0000512456   0.0000643241  -0.0006109401  -0.0001778736  -0.0002575048
        0.0002270726   0.0000560506  -0.0001091173   0.0002458812   0.0001944466
       -0.0000745856
       -0.2635422343  -0.2338375202   0.3722878100   0.1775472881   0.1665472814
       -0.2222835722   0.0248211586   0.0000281162  -0.0138741865  -0.0017509175
        0.0033886094  -0.0006469627   0.0011047000   0.0005292584  -0.0005482153
       -0.0006011098   0.0005608456   0.0001947068   0.0001064675  -0.0000392390
       -0.0000555788   0.0000270547  -0.0000347450  -0.0000199958  -0.0000993821
        0.0000530889  -0.0000123691   0.0000269285  -0.0000181919  -0.0000201280
       -0.0000137304   0.0000071502  -0.0000024188   0.0000131346  -0.0000061037
        0.0000129785  -0.0000184504   0.0000080763  -0.0000202443   0.0000239490
       -0.0000104859  -0.0000005710  -0.0000109955   0.0000028544  -0.0000160368
       -0.0000030844  -0.0000042640  -0.0000079050   0.0000150153  -0.0000187652
        0.0000005218   0.0000027898  -0.0000024525   0.0000137887  -0.0000007783
       -0.0000005560   0.0000078373   0.0000300473  -0.0000198181  -0.0000095902
       -0.0000045927   0.0000135639   0.0000458575   0.0000039856   0.0000008062
        0.0000034478   0.0000021008  -0.0000003589  -0.0000000410  -0.0000001116
        0.0000000140  -0.0000030019   0.0000021660   0.0000003276   0.0000005010
       -0.0000020370  -0.0000022368   0.0000032614   0.0000227997   0.0000038554
       -0.0000207466  -0.0000599755   0.0000548115   0.0000197939   0.0000421630
       -0.0000739446  -0.0000092754  -0.0000069458   0.0000206282   0.0000059303
        0.0000472319   0.0000033229  -0.0000047871   0.0000187486  -0.0000266041
        0.0000407575   0.0000720813   0.0000394702  -0.0000286988  -0.0000170312
        0.0000248917   0.0000049142  -0.0000253091   0.0000021360   0.0000078621
        0.0000087421  -0.0000065491   0.0000013220  -0.0000053535  -0.0000004086
        0.0000035653   0.0000110326  -0.0000226932   0.0000044280   0.0000035826
        0.0000140175  -0.0000010142  -0.0000109585  -0.0000956816   0.0000004809
       -0.0001213304   0.0001444890   0.0000530660   0.0000378632  -0.0000646498
       -0.0000299052   0.0001045426   0.0000004214  -0.0000220673  -0.0001385973
       -0.0000961996  -0.0003030737   0.0001034996   0.0001203956   0.0000236565
       -0.0001935412  -0.0001743958  -0.0001790204   0.0003220384   0.0000370702
        0.0001656856   0.0000141224  -0.0000954993   0.0000191843  -0.0000113392
        0.0000207258  -0.0000149446  -0.0000382452  -0.0000279187   0.0000076865
        0.0000195809  -0.0000142116   0.0000202959   0.0000084645   0.0000105745
        0.0000014604  -0.0000212532  -0.0000286999   0.0000069464   0.0000135707
       -0.0000103804   0.0000382841   0.0000721585   0.0000742423  -0.0000194228
       -0.0000945054  -0.0000816221   0.0000033157   0.0000138559   0.0000055752
       -0.0000010609  -0.0000032303   0.0000084228   0.0000023515   0.0000107063
       -0.0000020819  -0.0000014273  -0.0000273921   0.0000076273   0.0000179564
        0.0000223626   0.0000043734  -0.0000053084  -0.0001113217  -0.0000025598
       -0.0000397542   0.0001985344   0.0002164170  -0.0000333796   0.0000281603
        0.0000660592  -0.0000417699  -0.0000017337  -0.0000464359   0.0000308715
       -0.0000465479   0.0000127790  -0.0000163415   0.0000291703   0.0000032757
        0.0000020570  -0.0000024651  -0.0000526576   0.0000420795  -0.0000032757
       -0.0000496479   0.0000276049   0.0000434724  -0.0001094703   0.0000434058
       -0.0007599880   0.0000988600  -0.0001393352   0.0006910406  -0.0001806742
       -0.0001078159  -0.0001203664  -0.0001680355  -0.0005175803   0.0001248228
       -0.0000329637  -0.0000152735  -0.0000055081  -0.0000425027   0.0002350632
        0.0000680569  -0.0000376993  -0.0000660084  -0.0000221183   0.0000065587
       -0.0000208855   0.0000377861  -0.0000180846   0.0000368638  -0.0000048303
        0.0000149225  -0.0000230368  -0.0000205708   0.0000098608   0.0000069204
       -0.0000458162   0.0000345331   0.0000559835   0.0004694116  -0.0004281400
       -0.0006038227  -0.0005714515  -0.0000087842  -0.0001421877   0.0001205688
        0.0002226351  -0.0000359436  -0.0002344395  -0.0002701280   0.0000600722
       -0.0000259301  -0.0000441707   0.0000173203  -0.0000360185  -0.0000353575
       -0.0000217214   0.0002612001   0.0000190586   0.0000012521  -0.0002700826
        0.0002204816  -0.0002129382  -0.0000487988   0.0001296649   0.0001055928
       -0.0000289066  -0.0000650259  -0.0000981966   0.0000208979   0.0000686376
        0.0000859237   0.0017990274  -0.0008430661  -0.0002311774  -0.0014467684
       -0.0025484138   0.0029999928   0.0750775686  -0.0271957506  -0.0595196994
       -0.0195718930   0.0844650404  -0.0681200869   0.0061365526   0.0089250583
       -0.0088845527   0.0001075795   0.0002447719   0.0000757127  -0.0000295101
        0.0000262444   0.0000471027  -0.0000066414  -0.0000167747   0.0000212213
        0.0000057070   0.0000181432   0.0000080315  -0.0000037367   0.0000056654
        0.0000136365   0.0000020812   0.0000004024   0.0000022109   0.0000025266
        0.0000004506   0.0000024395  -0.0000022973  -0.0000024011  -0.0000259439
       -0.0000054320   0.0000148533   0.0000134816   0.0000019480   0.0000018605
        0.0000059642  -0.0000022146   0.0000035088   0.0000015161   0.0000014752
        0.0000008256   0.0000014294  -0.0000035120   0.0000011245   0.0000010469
        0.0000014932  -0.0000006409   0.0000011976  -0.0000005575   0.0000003202
        0.0000019501  -0.0000018272   0.0000014644   0.0000022404   0.0000020276
        0.0000006544  -0.0000013669   0.0000019821  -0.0000012643   0.0000008371
       -0.0000023365  -0.0000002504  -0.0000002439  -0.0000021069   0.0000025913
        0.0000004797   0.0000001856  -0.0000019384   0.0000010630  -0.0000020430
        0.0000037051   0.0000037628  -0.0000004148  -0.0000036057  -0.0000010459
       -0.0000110641   0.0000038423   0.0000004533  -0.0000114971   0.0000032209
       -0.0000102595  -0.0000289798   0.0000004154  -0.0000372297  -0.0000049096
        0.0000071378  -0.0000010407  -0.0000028475   0.0000066363  -0.0000021618
        0.0000010012   0.0000065199  -0.0000037037  -0.0000031844   0.0000047028
       -0.0000058680   0.0000101304   0.0000108462   0.0000022982   0.0000887556
        0.0000621425   0.0001968255  -0.0001302078  -0.0000357986  -0.0000491226
        0.0000127983   0.0000018769   0.0000001540   0.0000027652   0.0000007731
       -0.0000009840   0.0000033266  -0.0000008153  -0.0000007293   0.0000081192
        0.0000068300  -0.0000030452   0.0000016665   0.0000055709   0.0000077479
       -0.0000011152  -0.0000035044   0.0000024567   0.0000049885  -0.0000048752
       -0.0000105738  -0.0000003909   0.0000011268   0.0000012456   0.0000022113
        0.0000037778  -0.0000071477   0.0000035335   0.0000061186   0.0000051884
        0.0000010985  -0.0000014068  -0.0000002667   0.0000082812  -0.0000045867
       -0.0000041337  -0.0000010451   0.0000042478  -0.0000110449   0.0000101956
       -0.0000085878  -0.0000004008   0.0000114135  -0.0000103945   0.0000016470
        0.0000335837   0.0000102823  -0.0000027811   0.0000367360   0.0000271286
       -0.0000125129   0.0000165036   0.0000368368  -0.0000179365  -0.0000075475
        0.0000313415  -0.0000207885   0.0000275327  -0.0000038431   0.0000189549
       -0.0000498466  -0.0000865979  -0.0001766469   0.0002612933   0.0005231711
        0.0008067243   0.0000933790  -0.0000124689  -0.0001778967  -0.0000366552
        0.0000265650  -0.0000099091  -0.0000222226   0.0000136734  -0.0000249763
       -0.0000010449  -0.0000084811  -0.0000104666  -0.0000253930   0.0000175025
        0.0000021684  -0.0000293974   0.0000253786  -0.0000474609   0.0000011480
       -0.0000040129  -0.0000453687   0.0001498002   0.0001069858  -0.0000806947
        0.0000669512  -0.0000540874   0.0000093889   0.0001000543   0.0000045561
        0.0000064058  -0.0000175903  -0.0000093914  -0.0000026712  -0.0000506043
       -0.0000722251   0.0000354039  -0.0000615962   0.0000460578   0.0000524497
        0.0000430714  -0.0000726386  -0.0001452678  -0.0001685152  -0.0001663002
       -0.0001207267
       -0.2228842333  -0.1229398638   0.1775472881   0.5317428166   0.0126773260
       -0.2472975988  -0.1833349442   0.0438257702   0.0517146673  -0.0177287233
        0.0230918460   0.0030924879   0.0059409241   0.0019015788  -0.0001701825
       -0.0029460714   0.0008632162   0.0010711966   0.0000819274  -0.0001231864
       -0.0003223781  -0.0001320984   0.0000058606  -0.0001751075  -0.0001038157
        0.0000664925   0.0000174621   0.0000595028  -0.0000319314  -0.0000284907
       -0.0000012668   0.0000037760   0.0000180763   0.0000094071  -0.0000038580
        0.0000067673  -0.0000291284   0.0000085689  -0.0000114145   0.0000426616
       -0.0000093593  -0.0000016579  -0.0000006512   0.0000030330   0.0000027071
        0.0000077005   0.0000122936  -0.0000007217   0.0000168757  -0.0000036891
        0.0000258234   0.0000013468  -0.0000014088   0.0000023807   0.0000038383
       -0.0000014703   0.0000038245   0.0000018663  -0.0000004643   0.0000110259
        0.0000176907   0.0000018011   0.0000102651   0.0000082689  -0.0000120057
        0.0000109278   0.0000011234  -0.0000015239   0.0000051648   0.0000012050
       -0.0000039473   0.0000079574  -0.0000002165  -0.0000060466   0.0000051046
        0.0000030700  -0.0000026808   0.0000064237   0.0000070455  -0.0000036437
        0.0000017001   0.0000098987  -0.0000146586   0.0000006691  -0.0000399799
        0.0000242671   0.0000010679  -0.0000097122  -0.0000178200   0.0000154237
       -0.0000112041  -0.0000001177   0.0000294425   0.0000165589  -0.0000382288
        0.0000221570   0.0000031646  -0.0000053091  -0.0000139365   0.0000114333
       -0.0000054747  -0.0000008838  -0.0000022574   0.0000031107   0.0000000454
       -0.0000002812  -0.0000039703   0.0000009289  -0.0000103864   0.0000022634
        0.0000033838  -0.0000026589   0.0000056256  -0.0000008351  -0.0000056299
        0.0000046044   0.0000006698   0.0000078051  -0.0000010094   0.0000000812
        0.0000276362  -0.0000159571   0.0000062523   0.0000167635   0.0000232111
        0.0000212876   0.0000473465  -0.0000038780   0.0000389089   0.0000036145
        0.0000379299  -0.0000954127  -0.0000253321   0.0000815086  -0.0001039878
       -0.0000403585  -0.0000855487  -0.0000189545  -0.0000105686  -0.0000042145
        0.0000376111   0.0000107021  -0.0000120798  -0.0000150155  -0.0000021874
        0.0000133375  -0.0000049603   0.0000068256   0.0000040231   0.0000047217
       -0.0000012887   0.0000014593   0.0000001460   0.0000010644   0.0000091479
       -0.0000019578   0.0000042916   0.0000032769   0.0000002501   0.0000156849
        0.0000107268  -0.0000011729  -0.0000064276   0.0000252025  -0.0000032787
        0.0000252467  -0.0000304822   0.0000007219  -0.0000112314   0.0000087531
        0.0000006437   0.0000116914   0.0000098450   0.0000033436   0.0000036321
        0.0000015097   0.0000040524   0.0000091953   0.0000070779   0.0000032015
        0.0000185011   0.0000013782  -0.0000094394   0.0000047747   0.0000179643
        0.0000104767   0.0000075366  -0.0000121033   0.0000003026  -0.0000374672
        0.0000123484   0.0000032967  -0.0000124246   0.0000084893  -0.0000087014
        0.0000051907  -0.0000180827   0.0000099565   0.0000177480  -0.0000012353
        0.0000027786  -0.0000073214   0.0000065643  -0.0000185429  -0.0000022555
        0.0000184861  -0.0000041325   0.0000671607   0.0000672981  -0.0000273643
       -0.0002447735   0.0001464710   0.0001162131   0.0001287261  -0.0000262194
       -0.0000978147  -0.0002096371  -0.0001090106  -0.0001684546   0.0000598955
       -0.0000063779   0.0000645605  -0.0000996537  -0.0000168320  -0.0000005433
        0.0000199107  -0.0000255780   0.0000592199   0.0000131812  -0.0000009139
       -0.0000038074  -0.0000054723   0.0000025295   0.0000079239  -0.0000065305
       -0.0000058474   0.0000234164  -0.0000346812   0.0000153647   0.0000235476
       -0.0000304310   0.0000214111   0.0000295805  -0.0000539824  -0.0001240412
        0.0000372402   0.0000639301   0.0000035409   0.0000072535   0.0000544349
        0.0000355026  -0.0000041496  -0.0000343371   0.0000277885  -0.0000088668
        0.0000342791   0.0000224478  -0.0000057341   0.0000564316   0.0000302380
        0.0000176883   0.0000005295   0.0000479738   0.0000491176   0.0000239759
        0.0000169193  -0.0000211678  -0.0000259973  -0.0000005081  -0.0000024091
        0.0000235929  -0.0000180250  -0.0000047244  -0.0000084084   0.0000005729
       -0.0000021049   0.0031590080  -0.0056397972   0.0022976080  -0.0359498038
       -0.0051540173   0.0194957770  -0.0199918798  -0.0134833632   0.0189825803
        0.0050185344   0.0012105211  -0.0050636209  -0.0627907674   0.0629198503
       -0.0200638852  -0.0000958104  -0.0011640032  -0.0002722529   0.0000152771
       -0.0001518463   0.0001609669   0.0000758407  -0.0000342372  -0.0000495558
        0.0000412044  -0.0000046372  -0.0000302719  -0.0000151286   0.0000110807
        0.0000028068  -0.0000035379   0.0000029161  -0.0000022423  -0.0000011057
        0.0000016229  -0.0000015877  -0.0000351962  -0.0000078313  -0.0000155738
       -0.0000053474   0.0000004051  -0.0000136065  -0.0000000987   0.0000001802
       -0.0000027863  -0.0000004188  -0.0000001059  -0.0000028672  -0.0000035772
        0.0000032969  -0.0000002746  -0.0000042135   0.0000027043  -0.0000012201
        0.0000010159   0.0000012374  -0.0000026323   0.0000006127   0.0000036175
       -0.0000046339  -0.0000015502   0.0000033164  -0.0000011360   0.0000003904