92
 energy: -148.519719145037 gnorm: 0.000022826562 xtb: 6.7.1 (edcfbbe)
O           -8.06582212364843       -4.50950587244282       -0.55777770692544
C           -7.47027993010580       -3.49549594709437       -0.24097808039219
C           -8.16906425807379       -2.32245894910611        0.32474698960654
C           -9.55994620304503       -2.33597866121746        0.39740033750128
C          -10.24718661216498       -1.25522288345471        0.91764431669999
C           -9.54937729925313       -0.14992590111052        1.38252822235547
C           -8.16773583247308       -0.13158607129480        1.32780312881716
C           -7.46536564171209       -1.20888823646385        0.79569229032631
C           -5.98272981629950       -1.15893739687244        0.78124639954927
O           -5.37282879709072       -0.30252912622578        1.39121345601071
C           -5.32143037504923       -2.22753869400721        0.00883282541933
C           -6.01114656859309       -3.35118652649871       -0.43422114406285
C           -5.33782286642059       -4.39325193326329       -1.10097803800696
C           -3.98547738058455       -4.35596510633458       -1.30258810209182
C           -3.25460826857746       -3.23590857972869       -0.87126921073858
N           -1.90975167330451       -3.23816561353214       -0.91674774265656
C           -1.25720787613376       -2.17091443545206       -0.52884637701151
C            0.18113431175363       -2.26213576887038       -0.32189568922791
C            0.98319203300113       -3.04378674867816       -1.15325845942897
C            2.34258195144289       -3.11946301727446       -0.95056622792097
C            2.94169589479146       -2.45472517346663        0.12553332229908
N            4.31006145810636       -2.54892015928764        0.34302830853098
C            5.01589222981446       -3.69703332709796       -0.05690189451916
C            4.47598215317435       -4.96788398682093        0.13109464819167
C            5.18426940686640       -6.08703730541895       -0.26235363904487
C            6.43794673607520       -5.95738146930201       -0.83732973686825
C            6.98141094043530       -4.69610944015786       -1.01841708847688
C            6.27754720072639       -3.57079226932894       -0.63503990906771
C            5.00782901555739       -1.54190272477287        1.02582545896278
C            6.01725140317810       -1.88306312647405        1.92563463543955
C            6.70789324810212       -0.89898092853643        2.60559927553016
C            6.39493961286762        0.43621001539233        2.41289266711034
C            5.39328763566063        0.78063190317857        1.52040814834087
C            4.71042585444974       -0.19500108753120        0.81949652120683
C            2.12872030313286       -1.70423694585105        0.98195797212103
C            0.77794054690010       -1.59386960420288        0.74954686615299
C           -1.97935738842930       -0.94464038100656       -0.28868865760642
C           -1.33125732115336        0.35884650042834       -0.31774768638193
C           -0.27120444303975        0.62245241041767       -1.18673494789557
C            0.30238977342271        1.87204866975364       -1.23411180952571
C           -0.13949437298538        2.89294602151449       -0.38622328185649
N            0.45004592409325        4.15141331694949       -0.42021912975038
C           -0.30252558602749        5.29577977129845       -0.10419647120621
C           -1.61583310676809        5.43189848690640       -0.54994103820713
C           -2.34086762674417        6.56501273834732       -0.23491521169382
C           -1.76814673737597        7.57801110304341        0.51666462792368
C           -0.46038243721894        7.44982745467696        0.95508099014040
C            0.26994269290226        6.31699451036736        0.65183248312215
C            1.77699922714741        4.31983653666204       -0.83893483548057
C            2.76568874029205        3.40348699381120       -0.48037961408422
C            4.06344499466507        3.57492533062328       -0.92267095925924
C            4.40328083046978        4.66738789216474       -1.70340859962988
C            3.42937999198216        5.59049092347662       -2.04582306940262
C            2.12508048051860        5.41775249652328       -1.62577997325285
C           -1.20109492094506        2.62522296158223        0.48561353707947
C           -1.80225385526122        1.38733999835683        0.50011600304918
N           -3.27290491952350       -0.97987746778464       -0.10370727686943
C           -3.93669977823069       -2.12869842828390       -0.28081671295618
H          -10.08157777080857       -3.21006716984951        0.03639887536543
H          -11.32594148431042       -1.27328785410418        0.96394158216832
H          -10.08432398960446        0.69491562589081        1.79054149473161
H           -7.60439305153245        0.71449554765003        1.69280925526192
H           -5.92791323807611       -5.23960861398307       -1.42040759422410
H           -3.45385472324572       -5.17649936731056       -1.75902693046861
H            0.52361453862046       -3.56742722978493       -1.97728854545268
H            2.95594980133743       -3.69680011473291       -1.62621510933139
H            3.50368953603249       -5.07009324541458        0.59033941372736
H            4.75755839097285       -7.06731682376256       -0.11019744304326
H            6.98904886771559       -6.83440468267886       -1.14070486081804
H            7.95738030813756       -4.58675331775166       -1.46762205048573
H            6.69829839374967       -2.58638060304890       -0.77960224327430
H            6.25091291744129       -2.92449694365650        2.09134202016038
H            7.48616197523755       -1.17827587064615        3.30019825227915
H            6.92695648870727        1.20364918541652        2.95405418684417
H            5.14409482388489        1.82058488390605        1.37001454344434
H            3.94294369365867        0.07858342826149        0.10978994727737
H            2.56549683952415       -1.21759902042389        1.84104981195310
H            0.16675457016670       -1.01722426768586        1.42802341442142
H            0.07660673485761       -0.14592288463145       -1.86155313699664
H            1.09130340591847        2.07223096964578       -1.94376694187825
H           -2.05976975732701        4.64753270000326       -1.14513500880726
H           -3.35745257160863        6.66057158782656       -0.58647237511163
H           -2.33721804066915        8.46278738922037        0.75819513543280
H           -0.00747853857165        8.23400620927477        1.54355425584308
H            1.28827886846054        6.21384113788239        0.99740599633322
H            2.50817164440433        2.56022938783468        0.14428301003420
H            4.81968486229906        2.85149635649250       -0.65609430465457
H            5.41984511790607        4.79723123368276       -2.04204736866280
H            3.68331541154435        6.44490098917062       -2.65557020263207
H            1.36405318342119        6.12983408142917       -1.90936088152456
H           -1.55129467252720        3.40105165569524        1.14992745699750
H           -2.63535511097894        1.18470089895823        1.15523223514609
