$hessian                                                                        
        0.0221788959   0.0858072228  -0.0163287720  -0.0403304764  -0.0811038704
        0.0152757500   0.0178141230  -0.0048705363   0.0010938084  -0.0003809949
        0.0029731187  -0.0007278318   0.0009933148   0.0004831114   0.0001227988
       -0.0002695053   0.0004269554  -0.0000657723   0.0001462514  -0.0002058158
        0.0000454751  -0.0001369631   0.0002697796  -0.0000429932   0.0000927091
       -0.0001782126   0.0000049136   0.0000214402  -0.0000288728  -0.0000040328
       -0.0000057681   0.0000199074   0.0000094983  -0.0000163316   0.0000019337
       -0.0000019537   0.0000074281  -0.0000206437  -0.0000040803   0.0000229037
       -0.0000030466   0.0000064635  -0.0000259405   0.0000059985  -0.0000040099
        0.0000342039  -0.0000160925   0.0000003065  -0.0000230481   0.0000039041
       -0.0000000542   0.0000154181  -0.0000301949  -0.0000013652   0.0000396933
        0.0000410165   0.0000580013   0.0000198651  -0.0000569077   0.0000488456
       -0.0000092547   0.0002027433   0.0000208665   0.0000706985  -0.0002221989
        0.0000118436  -0.0001112227   0.0001740048  -0.0000159942   0.0000218192
       -0.0001177386   0.0000075978   0.0000282846   0.0000151301  -0.0000054652
       -0.0000164492   0.0000044080   0.0000093147   0.0000091723   0.0000079146
       -0.0000024989   0.0000070391  -0.0000074298  -0.0000017297  -0.0000094362
       -0.0000013589   0.0000034296   0.0000117511  -0.0000024526  -0.0000033645
       -0.0000105152  -0.0000097025   0.0000038721   0.0000099204   0.0000024607
       -0.0000019726  -0.0000049983  -0.0000055308   0.0000024161  -0.0000136617
        0.0000068938   0.0000050000   0.0000191485  -0.0000051933  -0.0000060434
       -0.0000436897   0.0000347606   0.0000050383   0.0001305634  -0.0000493220
        0.0000123887   0.0003436385   0.0000723235   0.0000064705   0.0011814002
       -0.0012293157   0.0004426591  -0.0005977766  -0.0003518847   0.0000755615
        0.0001433066   0.0000093893  -0.0000228530   0.0000306821   0.0000005099
        0.0000255100   0.0000002698  -0.0000091045   0.0000090505   0.0000025010
        0.0000176428   0.0000113135  -0.0000172844   0.0000059140   0.0000013491
       -0.0000193055   0.0000309946  -0.0000217113   0.0000696448   0.0000218022
       -0.0000069964   0.0000001288   0.0000076917  -0.0000014136   0.0000152963
        0.0000124680  -0.0000185201   0.0000095128   0.0000094997  -0.0000250676
        0.0000057666   0.0000247970  -0.0000278557   0.0000061766  -0.0000004335
       -0.0000567592   0.0001118445   0.0000285818   0.0000087565  -0.0000267663
        0.0000029812   0.0000276982  -0.0000042638  -0.0000039443   0.0000087593
        0.0000035545   0.0000054165  -0.0000161273   0.0000152604  -0.0000091139
       -0.0000006415  -0.0000083890   0.0000095378  -0.0000360125  -0.0022191817
       -0.0021787738   0.0002174414   0.0002560406   0.0003497956  -0.0000875402
       -0.0000025082   0.0000002240  -0.0000051102  -0.0000065324  -0.0000073528
       -0.0000034947  -0.0000077645  -0.0000059113  -0.0000036690   0.0000019574
       -0.0000013717  -0.0000009665  -0.0000197457  -0.0000062801  -0.0000069847
       -0.0000083888  -0.0000080042  -0.0000099016   0.0000060121  -0.0000851701
       -0.0000713147   0.0000168321   0.0001074135  -0.0000515795   0.0000064309
       -0.0000009032  -0.0000066766   0.0000019946  -0.0000000960  -0.0000011844
       -0.0000009232  -0.0000039314   0.0000006159   0.0000004879  -0.0000045713
       -0.0000000381   0.0000009878  -0.0000031242   0.0000000187   0.0000030001
       -0.0000055628  -0.0000008575   0.0000004529  -0.0000044685  -0.0000006948
       -0.0000115537   0.0000052726   0.0000035275   0.0000273054  -0.0000043561
       -0.0000422294  -0.0000192704   0.0000000547   0.0000044666  -0.0000059530
        0.0000021605   0.0000008695   0.0000011416  -0.0000005180  -0.0000014792
        0.0000009068  -0.0000033102   0.0000031785   0.0000047367  -0.0000007103
        0.0000070022  -0.0000115100   0.0000028247   0.0000194954   0.0000150672
        0.0000019305  -0.0000031418   0.0000287229   0.0000117215   0.0000016490
        0.0000483074   0.0000393487   0.0000417717  -0.0000210621  -0.0000213607
        0.0000478723   0.0000253846  -0.0000069731  -0.0000059093   0.0000124466
       -0.0000048521   0.0000024767   0.0000041183  -0.0000003025   0.0000034885
       -0.0000019759   0.0000015588  -0.0000100292   0.0000051339   0.0000045161
       -0.0000125720   0.0003173157  -0.0003708138   0.0000586352
        0.0858072228   1.2628243199  -0.2368461848  -0.0809669564  -1.2116502342
        0.2239495672  -0.0047654449  -0.0526503513   0.0130961184   0.0089754229
        0.0029509955   0.0004452853  -0.0011802820  -0.0035316267   0.0002875257
        0.0027569837   0.0004321660   0.0000714725  -0.0019113880  -0.0000381625
       -0.0000486500   0.0021492100  -0.0003665229   0.0000429412  -0.0012597124
        0.0008254109  -0.0000490697   0.0004573092   0.0002267773   0.0000802638
       -0.0000971024  -0.0001022464  -0.0000664926   0.0001186492   0.0000108275
        0.0000342471  -0.0000159334   0.0001047782   0.0000233733  -0.0000489499
       -0.0000828483  -0.0000345063   0.0000259825   0.0001563306   0.0000421107
       -0.0001995894  -0.0000613671  -0.0000527651   0.0001036751   0.0000521204
        0.0000179437  -0.0000856752  -0.0000231621  -0.0000378816  -0.0000778290
       -0.0001786943  -0.0001168989   0.0001155042   0.0001505817   0.0000490923
        0.0000441491  -0.0006915149  -0.0000726264  -0.0006652535   0.0001233367
       -0.0000064078   0.0012782389   0.0010541556  -0.0000166173  -0.0002797503
       -0.0008484158   0.0000671960   0.0003297939   0.0002045244  -0.0000803684
       -0.0000766542  -0.0000470717   0.0000270297   0.0000433901   0.0000402237
       -0.0000246531   0.0000350325  -0.0000220797  -0.0000085705  -0.0000446509
        0.0000400520   0.0000102742   0.0000852133  -0.0001008051  -0.0000160737
       -0.0000998716  -0.0000068207   0.0000345550   0.0000627824   0.0000038099
       -0.0000157516  -0.0000645884  -0.0000311712   0.0000240276  -0.0000392798
        0.0000578644   0.0000056685   0.0000850119   0.0000464891  -0.0000719380
       -0.0001767669   0.0001274086   0.0000262014  -0.0015188989  -0.0012135689
        0.0000440483   0.0000076995   0.0013816793  -0.0003545962   0.0006564533
       -0.0038900750   0.0004122256  -0.0021937047   0.0006395590  -0.0003294656
        0.0004656538  -0.0002304787  -0.0000547698   0.0000810241   0.0000765529
        0.0001198468   0.0000318134  -0.0000332645   0.0000791149   0.0000066133
        0.0000149308   0.0000404262  -0.0000625963   0.0000121686  -0.0000140960
       -0.0001033849   0.0001023499  -0.0001527367   0.0004161910  -0.0001171881
        0.0000743584  -0.0000188932   0.0001002169   0.0001674014  -0.0000014730
        0.0000767065   0.0000636329  -0.0000665980  -0.0000389218  -0.0000008708
       -0.0000258341  -0.0000113108  -0.0001350463  -0.0000362489  -0.0001499485
       -0.0002117017   0.0003843877  -0.0002200270   0.0001441639  -0.0001782364
       -0.0000184643   0.0000988469  -0.0000369975   0.0000115407   0.0000489852
        0.0000228845   0.0000108275  -0.0000345357   0.0001026393   0.0000049941
       -0.0000082614   0.0000057557   0.0000266690  -0.0001562502  -0.0088710081
        0.0041395324  -0.0011779247   0.0000037828   0.0001438501   0.0000410362
        0.0000269134   0.0000284566   0.0000240078  -0.0000077605  -0.0000094346
       -0.0000026559  -0.0000251727  -0.0000004290  -0.0000072532  -0.0000271923
        0.0000180552   0.0000032495  -0.0000165708   0.0000188035   0.0000046058
       -0.0000368659   0.0000563230   0.0000198632   0.0000153962   0.0000699470
        0.0000881642   0.0000414375  -0.0001560484  -0.0000337995   0.0000260160
        0.0000155064  -0.0000006779  -0.0000294102   0.0000028504   0.0000141703
       -0.0000251420  -0.0000191318   0.0000153159   0.0000039495  -0.0000208841
        0.0000018394  -0.0000130386  -0.0000395216   0.0000101753   0.0000198929
       -0.0000309100   0.0000013233  -0.0000039497   0.0000119521   0.0000082213
       -0.0000125737   0.0000384247   0.0000667623   0.0000406715   0.0000418106
        0.0001172625   0.0000040524   0.0000129249   0.0001284105  -0.0000262868
       -0.0000225932  -0.0000341298   0.0000067550  -0.0000518837  -0.0000292095
        0.0000151602  -0.0000674259  -0.0000001953   0.0000067804   0.0000273674
        0.0000148846  -0.0000193199   0.0000026868   0.0000555416   0.0000599895
        0.0000044644  -0.0000417501   0.0000805826   0.0000323457  -0.0000125997
        0.0000887468   0.0000662852   0.0000594146  -0.0000329495  -0.0000404615
       -0.0000126781   0.0000245202  -0.0000150931  -0.0000196689   0.0000571560
       -0.0000231555   0.0000508703   0.0000195223  -0.0000240212   0.0000624950
       -0.0000287721  -0.0000139119   0.0000290313   0.0001282610   0.0000004003
       -0.0000969956   0.0001502840   0.0002688937   0.0000427357
       -0.0163287720  -0.2368461848   0.0617637757   0.0152542831   0.2240049001
       -0.0755831199   0.0011207962   0.0131485280   0.0136474904  -0.0019367142
       -0.0001345509   0.0010958494   0.0004870163   0.0003063489  -0.0019978476
       -0.0005287692  -0.0001067297  -0.0001583179   0.0003311688   0.0000046833
        0.0001153591  -0.0003431519   0.0000136360  -0.0000757134   0.0002037629
       -0.0000783747   0.0000570972  -0.0000840461  -0.0000219306  -0.0000278738
        0.0000187645   0.0000085114   0.0000167492  -0.0000161845  -0.0000039983
       -0.0000016164  -0.0000005677  -0.0000113543   0.0000000816   0.0000016079
        0.0000159143   0.0000101022   0.0000046574  -0.0000320812  -0.0000061835
        0.0000343879   0.0000205977   0.0000126282  -0.0000014841  -0.0000125309
        0.0000061393   0.0000182259   0.0000159452   0.0000172352  -0.0000352089
       -0.0000336428   0.0000012807  -0.0000351065  -0.0000021083   0.0000194385
        0.0000115839   0.0000474708  -0.0000198854   0.0001155392   0.0000212802
        0.0000283864  -0.0002434760  -0.0002166597  -0.0000320846   0.0000473454
        0.0001812155   0.0000030465  -0.0000631431  -0.0000366691   0.0000069327
        0.0000171673   0.0000068143  -0.0000012569  -0.0000082103  -0.0000108496
        0.0000072893  -0.0000076197   0.0000065609   0.0000038015   0.0000104293
       -0.0000059375   0.0000000096  -0.0000171734   0.0000161204   0.0000043773
        0.0000214690   0.0000032903  -0.0000070864  -0.0000109410  -0.0000001300
        0.0000054099   0.0000097813   0.0000058402  -0.0000015608   0.0000134704
       -0.0000147685   0.0000014262  -0.0000126857   0.0000001933   0.0000230115
        0.0000424889  -0.0000372863  -0.0000136922   0.0002902857   0.0002732861
        0.0000606417   0.0000297557  -0.0002278581   0.0001280075   0.0000641483
        0.0003133964  -0.0017005609   0.0004033939  -0.0001946151  -0.0002326529
       -0.0000759994   0.0000211246   0.0000517996  -0.0000411326   0.0000528573
       -0.0000127137  -0.0000039252  -0.0000078099  -0.0000191015   0.0000022571
       -0.0000023112   0.0000029042   0.0000100956   0.0000004889   0.0000006608
        0.0000213379  -0.0000221896   0.0000290303  -0.0000816287   0.0000229918
        0.0000346022  -0.0000124198  -0.0000345188  -0.0000143449   0.0000033609
       -0.0000114194   0.0000031001   0.0000075291  -0.0000029225   0.0000044658
       -0.0000097527  -0.0000174477   0.0000018092   0.0000516091   0.0000383955
       -0.0000451232  -0.0000581526   0.0000684256  -0.0000135432   0.0000349346
       -0.0000017295  -0.0000054506   0.0000124585  -0.0000028468  -0.0000067987
       -0.0000022077  -0.0000009346   0.0000155729  -0.0000169876   0.0000028828
        0.0000089653   0.0000001847   0.0000020399   0.0000591844   0.0014862526
       -0.0007721375   0.0013203802  -0.0000103741   0.0001147960   0.0004858889
       -0.0000054140   0.0000008703  -0.0000077079   0.0000042636   0.0000067383
        0.0000005096   0.0000084321   0.0000024320   0.0000007374   0.0000053067
       -0.0000040618  -0.0000038849   0.0000161899   0.0000018636  -0.0000011579
        0.0000063868  -0.0000048007  -0.0000078635  -0.0000223163   0.0000368692
       -0.0000083501  -0.0000248953  -0.0000244128  -0.0000365070  -0.0000062955
       -0.0000029948  -0.0000032046   0.0000034101  -0.0000006093  -0.0000030265
        0.0000041065   0.0000040907  -0.0000033763  -0.0000013695   0.0000055882
       -0.0000010413   0.0000016172   0.0000074309  -0.0000025411  -0.0000053499
        0.0000078367  -0.0000009112  -0.0000031905   0.0000000544  -0.0000032590
       -0.0000006277  -0.0000110478  -0.0000228898  -0.0000458940   0.0000932318
        0.0005008942   0.0000055543  -0.0000031701  -0.0000315158   0.0000122651
        0.0000199738   0.0000246124   0.0000003265   0.0000098321   0.0000081064
        0.0000003749   0.0000105487   0.0000047494   0.0000062455  -0.0000135570
        0.0000062653   0.0000014066   0.0000226668   0.0000067210  -0.0000300248
        0.0000086967   0.0000280711  -0.0000254982  -0.0000055476   0.0000079825
        0.0000092082   0.0000100456   0.0000028289   0.0000005926  -0.0000093972
        0.0000493565  -0.0000137586   0.0000048683   0.0000014912  -0.0000108449
        0.0000015820  -0.0000051096  -0.0000050515   0.0000009538  -0.0000058094
       -0.0000053411  -0.0000055258   0.0000089588  -0.0000297592  -0.0000133877
        0.0000031496  -0.0000457702   0.0000083312   0.0004163195
       -0.0403304764  -0.0809669564   0.0152542831   0.1119774678   0.0981096355
       -0.0166010509  -0.0595874925  -0.0127652480   0.0020442223  -0.0039413247
       -0.0282685004   0.0054010511  -0.0050026210  -0.0034366023  -0.0003355939
        0.0003403431  -0.0013834468   0.0002884275   0.0000061434   0.0002312498
       -0.0000558840   0.0001602695  -0.0002289256   0.0000188529  -0.0000785430
        0.0001357747  -0.0000030877  -0.0000144355   0.0000207198   0.0000035628
        0.0000010842  -0.0000205610  -0.0000090492   0.0000148241  -0.0000000321
        0.0000029026  -0.0000058456   0.0000194761   0.0000042665  -0.0000190966
        0.0000031007  -0.0000046399   0.0000261092  -0.0000027515   0.0000051332
       -0.0000170001   0.0000158937   0.0000034970   0.0000239626   0.0000047315
        0.0000037279  -0.0000198540   0.0000259009   0.0000028653   0.0000037949
       -0.0000248890  -0.0000325247  -0.0000453719   0.0000920147  -0.0000594573
        0.0000244030  -0.0001871285  -0.0000247761  -0.0000572215   0.0001358379
        0.0000030074   0.0000911625  -0.0000927420  -0.0000207435  -0.0000424472
       -0.0000122369   0.0000017555   0.0000032070  -0.0000083086  -0.0000013923
        0.0000013780  -0.0000041173  -0.0000024550  -0.0000042310   0.0000008712
        0.0000003559  -0.0000029573  -0.0000031993   0.0000008639   0.0000020524
       -0.0000032946  -0.0000007685  -0.0000034976  -0.0000035934   0.0000016839
       -0.0000017441   0.0000009205  -0.0000000895  -0.0000019125  -0.0000034114
        0.0000005283   0.0000036652  -0.0000049562  -0.0000011229   0.0000009789
       -0.0000004195   0.0000016733   0.0000024530  -0.0000044524   0.0000046471
       -0.0000035732   0.0000149223   0.0000004662  -0.0004300020  -0.0002106930
       -0.0000070944  -0.0014405266  -0.0001576160  -0.0000481099  -0.0042877060
        0.0053409556  -0.0019836107   0.0008706137   0.0006254593  -0.0000935844
       -0.0002781205   0.0000594097   0.0000148612  -0.0000530718   0.0000203962
       -0.0000619853  -0.0000010711   0.0000184502  -0.0000256879  -0.0000033699
       -0.0000178385  -0.0000194837   0.0000344637   0.0000039749   0.0000049343
        0.0000458386  -0.0000335241   0.0000682382  -0.0000410217   0.0000356554
       -0.0000239621  -0.0000043539  -0.0000313411  -0.0000105125  -0.0000143418
       -0.0000318700   0.0000024761  -0.0000011674  -0.0000065382   0.0000241789
       -0.0000129861  -0.0000421226   0.0000400294   0.0000115938   0.0000078582
        0.0001057900  -0.0001993275   0.0000328427  -0.0000288276   0.0000579006
       -0.0000013507  -0.0000571248   0.0000146316   0.0000021233  -0.0000296582
       -0.0000118534  -0.0000068708   0.0000257194  -0.0000336289   0.0000087147
        0.0000055055  -0.0000276749  -0.0000009107   0.0000439002   0.0030479494
        0.0227104322  -0.0043880191  -0.0001889796  -0.0010876019   0.0004432247
        0.0000069053   0.0000019210   0.0000044733   0.0000053774   0.0000038557
        0.0000020566   0.0000046268   0.0000052584   0.0000024858  -0.0000011052
        0.0000025122   0.0000006034   0.0000148259   0.0000059831   0.0000039396
        0.0000189584   0.0000019170   0.0000049089  -0.0000015359   0.0000883256
        0.0000433665  -0.0000343097  -0.0001362631   0.0000571881   0.0000008475
        0.0000005430   0.0000021771  -0.0000014871  -0.0000003203   0.0000006615
        0.0000005225   0.0000025016  -0.0000007929  -0.0000009936   0.0000013752
       -0.0000002305   0.0000007467   0.0000029045  -0.0000008384  -0.0000017724
        0.0000016955  -0.0000001512   0.0000017889  -0.0000035703  -0.0000011094
       -0.0000166564   0.0000068218  -0.0000018782  -0.0000696788   0.0000162305
        0.0001828361   0.0000038862  -0.0000159145  -0.0000346600   0.0000076612
        0.0000035248   0.0000108513  -0.0000045992   0.0000087916   0.0000101007
       -0.0000051188   0.0000154395   0.0000005456  -0.0000015936  -0.0000080289
       -0.0000025287   0.0000231437  -0.0000022417  -0.0000320999  -0.0000185145
       -0.0000054441   0.0000108799  -0.0000257335  -0.0000168200  -0.0000047712
       -0.0000452784  -0.0000444651  -0.0000381128   0.0000382897   0.0000311434
       -0.0000487040  -0.0000176895   0.0000078205   0.0000081878  -0.0000197678
        0.0000076233  -0.0000101336  -0.0000051771   0.0000020244  -0.0000140175
        0.0000089238   0.0000003197   0.0000005243  -0.0000359771  -0.0000111883
        0.0000373226  -0.0003869568   0.0014024535  -0.0000894165
       -0.0811038704  -1.2116502342   0.2240049001   0.0981096355   1.5349178051
       -0.2780332294  -0.0132038323  -0.2571792061   0.0393745446  -0.0274179210
       -0.0357468966   0.0047851120  -0.0026644630   0.0068476989   0.0002690802
       -0.0044672250  -0.0019331833   0.0001441183   0.0032355341   0.0001019611
        0.0001315625  -0.0033924370   0.0004580777  -0.0000770026   0.0019699981
       -0.0012942973   0.0000783351  -0.0007292299  -0.0003421922  -0.0001178726
        0.0001558734   0.0001486701   0.0001022638  -0.0001876881  -0.0000252773
       -0.0000555153   0.0000164304  -0.0001597161  -0.0000370550   0.0000775659
        0.0001312570   0.0000537232  -0.0000322899  -0.0002353768  -0.0000637926
        0.0003211256   0.0000893538   0.0000807142  -0.0001651934  -0.0000718375
       -0.0000257473   0.0001324414   0.0000334259   0.0000560433   0.0001408787
        0.0002562929   0.0001751819  -0.0001672782  -0.0002112829  -0.0000700182
       -0.0000507770   0.0010726440   0.0001089827   0.0010068957  -0.0001558327
        0.0000213442  -0.0020176647  -0.0017832539  -0.0000126386   0.0003892026
        0.0013555213  -0.0000936697  -0.0004904266  -0.0003098931   0.0001251452
        0.0001153391   0.0000791816  -0.0000414775  -0.0000734469  -0.0000643296
        0.0000409616  -0.0000586806   0.0000294985   0.0000156830   0.0000717786
       -0.0000690434  -0.0000163054  -0.0001387852   0.0001501146   0.0000280483
        0.0001553579   0.0000145705  -0.0000543793  -0.0000955449  -0.0000199941
        0.0000243241   0.0000981790   0.0000413149  -0.0000369905   0.0000700714
       -0.0000891310  -0.0000149483  -0.0001259552  -0.0000631797   0.0001054829
        0.0002811844  -0.0001997709  -0.0000431320   0.0021938507   0.0020075010
       -0.0001253165  -0.0000549212  -0.0021395628   0.0005611623   0.0038757599
        0.0058904762   0.0008909061   0.0033374810  -0.0014506119   0.0005601454
       -0.0006421367   0.0003444425   0.0001207816  -0.0001228921  -0.0001374693
       -0.0002005792  -0.0000551758   0.0000474192  -0.0001276605  -0.0000200439
       -0.0000302561  -0.0000788274   0.0001000091  -0.0000455529   0.0000287658
        0.0001553487  -0.0001872349   0.0002280778  -0.0006887959   0.0001702376
       -0.0000713557   0.0000240663  -0.0001520239  -0.0002701496   0.0000027319
       -0.0000996353  -0.0001165699   0.0001129377   0.0000632489  -0.0000033757
        0.0000099368   0.0000115745   0.0002083476   0.0000748407   0.0002442329
        0.0003500816  -0.0005232154   0.0003526564  -0.0002444424   0.0003026924
       -0.0000040569  -0.0001186251   0.0000695219  -0.0000170906  -0.0000604409
       -0.0000343951  -0.0000208818   0.0000648779  -0.0001593026  -0.0000052810
        0.0000182499  -0.0000248663  -0.0000410610   0.0002624304   0.0231044706
       -0.0405126196   0.0097243400   0.0013089494   0.0008053937  -0.0006289308
       -0.0000399405  -0.0000414429  -0.0000348406   0.0000144031   0.0000161115
        0.0000045551   0.0000409023  -0.0000006398   0.0000107237   0.0000432058
       -0.0000299307  -0.0000046096   0.0000272952  -0.0000295451  -0.0000089898
        0.0000592536  -0.0000818432  -0.0000297272  -0.0000331727  -0.0000872329
       -0.0001387499  -0.0001243472   0.0002021396   0.0000270281  -0.0000332460
       -0.0000346753  -0.0000019139   0.0000444112  -0.0000066290  -0.0000211630
        0.0000385865   0.0000290484  -0.0000228959  -0.0000061579   0.0000322763
       -0.0000026323   0.0000184924   0.0000582620  -0.0000154194  -0.0000315097
        0.0000462322  -0.0000021994   0.0000053476  -0.0000205414  -0.0000105700
        0.0000134284  -0.0000601458  -0.0001006788  -0.0001041143  -0.0000065074
       -0.0004929197  -0.0000077090  -0.0000558795  -0.0001793813   0.0000392758
        0.0000256635   0.0000448801  -0.0000142774   0.0000763691   0.0000390731
       -0.0000270815   0.0000982304  -0.0000090654  -0.0000284441   0.0000170842
       -0.0000557060   0.0000309876  -0.0000137243  -0.0000838235  -0.0000977506
       -0.0000092391   0.0000583004  -0.0001235369  -0.0000482570   0.0000191184
       -0.0001389280  -0.0000914068  -0.0000984190   0.0000530213   0.0000472663
        0.0000227354  -0.0000736716   0.0000194759   0.0000262532  -0.0000891857
        0.0000344478  -0.0000748958  -0.0000333584   0.0000350596  -0.0000925841
        0.0000443245   0.0000166415  -0.0000363446  -0.0001936401   0.0000005000
        0.0001372782  -0.0013844985   0.0006455281  -0.0007760860
        0.0152757500   0.2239495672  -0.0755831199  -0.0166010509  -0.2780332294
        0.1313671606   0.0019450074   0.0393822448  -0.0619345617   0.0052902848
        0.0049368848  -0.0009989603  -0.0006498304   0.0002512597   0.0092112143
        0.0009319549   0.0003450062   0.0003390564  -0.0006064065   0.0000156186
       -0.0001030503   0.0006225943  -0.0000408076   0.0000663065  -0.0003610655
        0.0001945085  -0.0000536931   0.0001379908   0.0000511113   0.0000330962
       -0.0000312693  -0.0000227608  -0.0000239161   0.0000297680   0.0000061469
        0.0000070330  -0.0000003551   0.0000248397   0.0000039058  -0.0000061890
       -0.0000259692  -0.0000121474  -0.0000037708   0.0000507107   0.0000118134
       -0.0000614880  -0.0000220110  -0.0000165315   0.0000223205   0.0000133009
       -0.0000013232  -0.0000272824  -0.0000187681  -0.0000179902  -0.0000022434
       -0.0000029214  -0.0000236483   0.0000580222   0.0000162409  -0.0000136981
       -0.0000101503  -0.0001354868   0.0000081018  -0.0002013877   0.0000011571
       -0.0000252792   0.0004402599   0.0003673632  -0.0000093458  -0.0000732541
       -0.0002920296   0.0000176444   0.0001033502   0.0000609708  -0.0000149118
       -0.0000261370  -0.0000136418   0.0000057817   0.0000137453   0.0000154811
       -0.0000103800   0.0000132468  -0.0000086231  -0.0000048023  -0.0000156603
        0.0000125178   0.0000011252   0.0000264652  -0.0000286308  -0.0000062213
       -0.0000355814  -0.0000037101   0.0000126489   0.0000194508   0.0000008714
       -0.0000068496  -0.0000152601  -0.0000081328   0.0000047580  -0.0000245262
        0.0000223050   0.0000034723   0.0000200744   0.0000012402  -0.0000304745
       -0.0000671114   0.0000552378   0.0000167595  -0.0004568284  -0.0004596712
       -0.0001370441  -0.0001344537   0.0003256437  -0.0004327550  -0.0016398709
        0.0009360201   0.0078881611  -0.0006200313   0.0003823620   0.0001701029
        0.0000818960   0.0000097932  -0.0000462608   0.0000534037  -0.0000394263
        0.0000434322   0.0000040378   0.0000055401   0.0000238090  -0.0000021614
        0.0000074267   0.0000021464  -0.0000126102   0.0000086339   0.0000027202
       -0.0000375276   0.0000361846  -0.0000449132   0.0001401989  -0.0000351485
       -0.0000241045   0.0000139360   0.0000477868   0.0000363395   0.0000036598
        0.0000221625   0.0000053382  -0.0000175676  -0.0000021348   0.0000009355
        0.0000060136   0.0000051402  -0.0000329261  -0.0000527806  -0.0000506738
        0.0000227803   0.0000706872  -0.0000913180   0.0000724261  -0.0000567377
        0.0000136458  -0.0000049877  -0.0000129299   0.0000014435   0.0000104156
       -0.0000003812   0.0000035595  -0.0000144997   0.0000184935  -0.0000047610
       -0.0000229401   0.0000221666  -0.0000107615  -0.0000695513  -0.0042528769
        0.0097258102  -0.0021610053  -0.0000327208  -0.0008796229  -0.0027924103
        0.0000081164   0.0000033690   0.0000094908  -0.0000046978  -0.0000071637
       -0.0000008442  -0.0000107115  -0.0000019947  -0.0000016768  -0.0000087209
        0.0000063876   0.0000033363  -0.0000159089   0.0000024514   0.0000019109
       -0.0000141217   0.0000141379   0.0000087578   0.0000166724  -0.0000263214
        0.0000233562   0.0000305055   0.0000017724   0.0000354144   0.0000083811
        0.0000073606   0.0000031385  -0.0000069976   0.0000013797   0.0000044229
       -0.0000073072  -0.0000062672   0.0000049019   0.0000015247  -0.0000082485
        0.0000008939  -0.0000029443  -0.0000119207   0.0000033165   0.0000075469
       -0.0000123062   0.0000007782   0.0000031925   0.0000008615   0.0000033487
        0.0000035806   0.0000205473   0.0000311009   0.0001915131  -0.0004547739
       -0.0022233367  -0.0000053345   0.0000188110   0.0000220522  -0.0000142612
       -0.0000197627  -0.0000255542   0.0000010336  -0.0000114414  -0.0000095251
        0.0000030675  -0.0000161376  -0.0000038120  -0.0000017472   0.0000045129
        0.0000040401  -0.0000030313  -0.0000227787  -0.0000061504   0.0000331835
       -0.0000058905  -0.0000276699   0.0000316600   0.0000065955  -0.0000108548
        0.0000071602  -0.0000010964   0.0000088392  -0.0000057517  -0.0000020413
       -0.0000497431   0.0000258917  -0.0000058044  -0.0000015379   0.0000175279
       -0.0000047473   0.0000088132   0.0000099323  -0.0000026331   0.0000126826
        0.0000018758   0.0000035774  -0.0000047967   0.0000373764   0.0000222893
       -0.0000141118   0.0004465133  -0.0005682204  -0.0025251639
        0.0178141230  -0.0047654449   0.0011207962  -0.0595874925  -0.0132038323
        0.0019450074   0.6150788097   0.0160886630   0.0351926585  -0.2728072551
       -0.0612128370  -0.0053941758   0.0128245364  -0.0782316177   0.0157421063
        0.0062146421   0.0019187950  -0.0004678541  -0.0014263385   0.0006820660
       -0.0001726219   0.0011489851   0.0000112701   0.0001271654  -0.0004821253
        0.0003750344  -0.0000135140   0.0002251220   0.0001047350   0.0000466923
       -0.0000516230  -0.0000422010  -0.0000293453   0.0000539588  -0.0000012655
        0.0000159868  -0.0000200183   0.0000310072   0.0000049311  -0.0000107714
       -0.0000238271  -0.0000078658  -0.0000127059   0.0000713995   0.0000151741
       -0.0000587999  -0.0000450545  -0.0000309007  -0.0000011345   0.0000211164
        0.0000046795  -0.0000285788   0.0000253768  -0.0000117116  -0.0000033166
       -0.0001005361  -0.0000311814   0.0000314627   0.0000273018   0.0001076069
        0.0000198791  -0.0002346036  -0.0000236977  -0.0006443440   0.0000612038
       -0.0001243680   0.0014347539   0.0010319762   0.0001539802  -0.0000951884
       -0.0008641150   0.0000055369   0.0002786607   0.0001439112  -0.0000684662
       -0.0000904484  -0.0000345983   0.0000375660   0.0000448258   0.0000566460
       -0.0000243613   0.0000316386  -0.0000425971  -0.0000085134  -0.0000501862
       -0.0000000905   0.0000138412   0.0000720626  -0.0000594192  -0.0000155271
       -0.0000917260  -0.0000291448   0.0000294120   0.0000608808  -0.0000025196
       -0.0000150911  -0.0000312718  -0.0000631189   0.0000138234  -0.0000826918
        0.0000365145   0.0000348716   0.0001277879  -0.0000506072  -0.0000334894
       -0.0003010652   0.0002833689   0.0000395783  -0.0014136971  -0.0030454669
        0.0003259324  -0.0582082247   0.0030377404  -0.0045288139   0.0284488735
        0.0721873656  -0.0127545599   0.0028784947  -0.0012439228   0.0002251217
       -0.0000987587   0.0001018539   0.0000274153  -0.0001410029   0.0000577525
       -0.0000187725  -0.0000079619  -0.0000135810  -0.0000434397   0.0000014137
        0.0000454376  -0.0000153598   0.0000172409   0.0000427925   0.0000196108
        0.0000780148  -0.0002455002   0.0000811550  -0.0001881773  -0.0000462611
       -0.0000135127   0.0000448599  -0.0000227958  -0.0000335862   0.0000017069
        0.0000021833   0.0000357916  -0.0000130570  -0.0000098648  -0.0000031888
        0.0001000039   0.0000569432  -0.0000632976   0.0000171700   0.0000122080
        0.0000166677  -0.0001074615   0.0000044452  -0.0003767908   0.0001283034
       -0.0000604269   0.0001010875   0.0000107943   0.0000294730  -0.0000397263
       -0.0000547273   0.0000187942  -0.0000417355  -0.0000276623   0.0000465639