93
 energy: -147.890842766863 gnorm: 0.000080837990 xtb: 6.7.1 (edcfbbe)
N            1.96720701207955        5.92762150365583        1.21549503418182
C            1.86312620253207        4.80794979874570        0.98811156352006
C            1.73708063728718        3.43094784676716        0.69776526342920
C            0.47865838461237        2.85794774645147        0.63583774411850
C            0.34697159270245        1.48649661188996        0.35230843777759
C           -0.91443447678066        0.85545619379804        0.27864537880989
N           -2.06694443320189        1.58177454222816        0.34637106565799
C           -3.20227846619500        0.95726358002255        0.21929687542615
N           -4.36482705491831        1.68737677802184        0.23997515921107
C           -5.63872186666726        1.19877787680786        0.50355104677140
C           -6.04739862099873       -0.07834250415950        0.85446585374297
C           -7.39895063467641       -0.29193318138254        1.06103149860947
C           -8.32342144948869        0.74108821015027        0.94456292630008
C           -7.91745066886758        2.02429496265408        0.62355920464949
C           -6.56875705671169        2.25846049189388        0.40563177156975
C           -5.81719428500585        3.44150235337371        0.07557508002541
C           -6.17558451744412        4.76307435045239       -0.14096535395294
C           -5.18285394187669        5.67535842563797       -0.45238840387069
C           -3.85364217487933        5.27809182491566       -0.55789870663998
C           -3.47577648157081        3.96308085329267       -0.35068460747492
C           -4.46328467399039        3.05026518316894       -0.01611991471770
N           -3.32162956035392       -0.38146353936546        0.07467550785217
C           -2.15900756722252       -1.06549532363437        0.06776108722990
N           -2.22725560011409       -2.43362686780767       -0.01317860909989
C           -3.28548034015134       -3.18234489668152       -0.51174291519597
C           -4.46637751880668       -2.76475745777898       -1.10462932440906
C           -5.35769741921772       -3.73700196450912       -1.52277245222059
C           -5.07702566096218       -5.09181176725698       -1.37452780237341
C           -3.88762647637512       -5.51337640579745       -0.80811480790867
C           -2.98253448338191       -4.55587699150646       -0.37608396269904
C           -1.68212865447459       -4.63576846412816        0.23723278337401
C           -0.88039944837980       -5.69697797325278        0.62999287484445
C            0.33072181566990       -5.42092060110218        1.23839728551772
C            0.74016658847328       -4.10954454003334        1.45770206853215
C           -0.03954403481020       -3.03666373561088        1.06447531048776
C           -1.24773071537542       -3.30816131334478        0.44350752587419
N           -0.99152685076754       -0.49752202805684        0.13028299919176
C            1.52337372167418        0.73421548250680        0.12712253003064
C            2.77025637191123        1.31141020463655        0.17292928425626
Si           4.32538327506679        0.29727870089742       -0.23238471627335
C            3.93132962012093       -1.55588440772227       -0.25775131076172
C            4.49165516284819       -2.43280120474858        0.66535709021482
C            4.23189565807372       -3.79066804927222        0.60634221723258
C            3.39362374610602       -4.29468031790025       -0.37372288043946
C            2.82037468795002       -3.43463581536978       -1.29547132301016
C            3.09461967443639       -2.08086919038598       -1.23980488111536
C            4.96687822037213        0.77673214163608       -1.95058875810612
C            5.79564112081199       -0.09924797664136       -2.64800349773841
C            6.30541529603783        0.23637654305211       -3.88862619754072
C            5.99084426044626        1.45888525456850       -4.45881242547117
C            5.16265376994883        2.33858943160277       -3.78256954417133
C            4.65701214031886        1.99787684529641       -2.54076578592970
C            5.62858483150176        0.68163897630731        1.08860513414454
C            6.96653165502786        0.85784975941051        0.75052171793027
C            7.91683832063247        1.11994989620937        1.72103945200305
C            7.54229021671784        1.21246671749425        3.05093255193614
C            6.21383041272031        1.04263784464253        3.40421579551768
C            5.26816522889909        0.78083449381768        2.42990742760208
C            2.89249693839632        2.66896788108500        0.47174554439148
H           -0.40416690143004        3.44973169167175        0.82417617094523
H           -5.33421159005083       -0.87839397479041        0.96455842169126
H           -7.73916046045954       -1.28150604998936        1.32675751507328
H           -9.36957944127496        0.53819211985040        1.11813664258491
H           -8.63200826414538        2.82934627511920        0.54529113449975
H           -7.20778519062574        5.06961479188682       -0.06680452535361
H           -5.44123797571034        6.70946137417763       -0.62388395036482
H           -3.10032016807377        6.00844460194479       -0.81141604988993
H           -2.44863788550657        3.65221787599389       -0.44799063797920
H           -4.68236455157637       -1.71723839961873       -1.23527392769515
H           -6.28809299596882       -3.43501385584194       -1.97970552543806
H           -5.79570726936270       -5.82180309655769       -1.71568544565085
H           -3.66394248733796       -6.56414390783069       -0.70428134950097
H           -1.20241204824469       -6.71463738042539        0.46935907578551
H            0.96518083861199       -6.23337941934062        1.55966950808811
H            1.68255014248510       -3.92124985587060        1.94817785414990
H            0.27769301180163       -2.02217813169462        1.24264734609439
H            1.40661219888920       -0.31459442265019       -0.09949007966179
H            5.14587430720256       -2.04469683162527        1.43352019160592
H            4.68432159273888       -4.45780303254399        1.32667157251527
H            3.18599046075804       -5.35366862742927       -0.42020236697814
H            2.16278544973811       -3.82306431721844       -2.05975400405654
H            2.66134680928951       -1.41744590238856       -1.97524291493959
H            6.03945011140008       -1.05716697509589       -2.20958325415841
H            6.94887444012933       -0.45561860120745       -4.41314685043003
H            6.38761209177698        1.72330126291689       -5.42827025460235
H            4.91062245818277        3.29199636140783       -4.22425963318519
H            4.00732223912264        2.68833611355768       -2.02238944717987
H            7.26319078481769        0.79125134310143       -0.28662569237236
H            8.95161149356416        1.25441751778660        1.44013906340071
H            8.28272595971094        1.41976469605519        3.80981403300281
H            5.91593766298558        1.11707775506278        4.44027499044741
H            4.23149669224800        0.65414466140489        2.70942706978857
H            3.86351802079276        3.13573933350780        0.53810400182861
