 Entering Gaussian System
 *********************************************
 Gaussian 98:
 frequency output generated by the xtb code
 *********************************************
                         Standard orientation:
 --------------------------------------------------------------------
  Center     Atomic     Atomic              Coordinates (Angstroms)
  Number     Number      Type              X           Y           Z
 --------------------------------------------------------------------
    1          7             0        1.900729    5.972999    1.085772
    2          6             0        1.809298    4.846097    0.891109
    3          6             0        1.698920    3.459938    0.640642
    4          6             0        0.446057    2.876415    0.565568
    5          6             0        0.330072    1.496033    0.321131
    6          6             0       -0.925070    0.853956    0.237190
    7          7             0       -2.083877    1.573115    0.259535
    8          6             0       -3.211862    0.936449    0.127570
    9          7             0       -4.379898    1.657789    0.105171
   10          6             0       -5.654858    1.167140    0.359591
   11          6             0       -6.061004   -0.103006    0.737734
   12          6             0       -7.414465   -0.320642    0.926843
   13          6             0       -8.343700    0.702192    0.766713
   14          6             0       -7.940875    1.979117    0.417890
   15          6             0       -6.590226    2.216991    0.216811
   16          6             0       -5.841085    3.396101   -0.132284
   17          6             0       -6.204612    4.708648   -0.390972
   18          6             0       -5.212801    5.619313   -0.710018
   19          6             0       -3.879277    5.229003   -0.781659
   20          6             0       -3.496154    3.922907   -0.532060
   21          6             0       -4.483140    3.012395   -0.189747
   22          7             0       -3.318779   -0.406636    0.018236
   23          6             0       -2.151463   -1.081552    0.054376
   24          7             0       -2.207950   -2.451882    0.009226
   25          6             0       -3.248236   -3.222315   -0.493931
   26          6             0       -4.419563   -2.830302   -1.122199
   27          6             0       -5.292425   -3.820756   -1.536530
   28          6             0       -5.002718   -5.168893   -1.349888
   29          6             0       -3.822531   -5.565409   -0.747257
   30          6             0       -2.936055   -4.589260   -0.318407
   31          6             0       -1.648967   -4.642053    0.325234
   32          6             0       -0.846555   -5.685737    0.761180
   33          6             0        0.348224   -5.383502    1.389162
   34          6             0        0.740737   -4.063374    1.585729
   35          6             0       -0.039811   -3.007834    1.149662
   36          6             0       -1.231210   -3.305793    0.508688
   37          7             0       -0.989573   -0.503233    0.125763
   38          6             0        1.516456    0.745523    0.148063
   39          6             0        2.758183    1.332492    0.207506
   40         14             0        4.331235    0.317261   -0.118112
   41          6             0        3.944443   -1.537701   -0.124210
   42          6             0        4.482444   -2.397921    0.827447
   43          6             0        4.228215   -3.757398    0.783396
   44          6             0        3.417695   -4.279807   -0.210267
   45          6             0        2.867279   -3.436579   -1.160970
   46          6             0        3.136309   -2.081234   -1.120002
   47          6             0        5.043171    0.764856   -1.816857
   48          6             0        5.932733   -0.105992   -2.442199
   49          6             0        6.493908    0.205420   -3.666796
   50          6             0        6.170634    1.397724   -4.293365
   51          6             0        5.282287    2.271328   -3.689513
   52          6             0        4.725505    1.955120   -2.463131
   53          6             0        5.574039    0.732874    1.250893
   54          6             0        6.917697    0.952593    0.965471
   55          6             0        7.821293    1.238668    1.973212
   56          6             0        7.393279    1.311730    3.288053
   57          6             0        6.058144    1.098799    3.589072
   58          6             0        5.159333    0.813657    2.577770
   59          6             0        2.864351    2.699445    0.467364
   60          1             0       -0.444897    3.467357    0.713985
   61          1             0       -5.344502   -0.894707    0.881552
   62          1             0       -7.752558   -1.305127    1.213372
   63          1             0       -9.391302    0.496579    0.927942
   64          1             0       -8.659339    2.776631    0.305622
   65          1             0       -7.240013    5.009577   -0.343082
   66          1             0       -5.475182    6.646451   -0.914186
   67          1             0       -3.126651    5.957648   -1.042075
   68          1             0       -2.465383    3.616974   -0.603074
   69          1             0       -4.642239   -1.788286   -1.282359
   70          1             0       -6.215187   -3.538694   -2.020862
   71          1             0       -5.706841   -5.913682   -1.689413
   72          1             0       -3.591693   -6.611216   -0.613338
   73          1             0       -1.155617   -6.710032    0.618252
   74          1             0        0.982812   -6.181852    1.743807
   75          1             0        1.670221   -3.854342    2.092173
   76          1             0        0.263895   -1.986328    1.310430
   77          1             0        1.411973   -0.310497   -0.049153
   78          1             0        5.114603   -1.995460    1.606616
   79          1             0        4.663148   -4.411402    1.526201
   80          1             0        3.214015   -5.340012   -0.244861
   81          1             0        2.231614   -3.839348   -1.936296
   82          1             0        2.721163   -1.431145   -1.877464
   83          1             0        6.183546   -1.040605   -1.959643
   84          1             0        7.184277   -0.481838   -4.134851
   85          1             0        6.607543    1.643245   -5.250456
   86          1             0        5.023269    3.200957   -4.175620
   87          1             0        4.029508    2.640605   -2.001327
   88          1             0        7.256065    0.901020   -0.059680
   89          1             0        8.861343    1.407035    1.733083
   90          1             0        8.097166    1.537520    4.075884
   91          1             0        5.718502    1.157920    4.613206
   92          1             0        4.117021    0.653604    2.816253
   93          1             0        3.830501    3.174704    0.543622
 --------------------------------------------------------------------
     1 basis functions        1 primitive gaussians
     1 alpha electrons        1 beta electrons
 
 Harmonic frequencies (cm**-1), IR intensities (km*mol⁻¹),
 Raman scattering activities (A**4/amu), Raman depolarization ratios,
 reduced masses (AMU), force constants (mDyne/A) and normal coordinates:
                      1                      2                      3
                        a                      a                      a 
 Frequencies --     4.4699                 9.7369                12.1857
 Red. masses --    11.0272                11.1810                10.9091
 Frc consts  --     0.0000                 0.0000                 0.0000
 IR Inten    --     4.9164                 1.9038                 2.8513
 Raman Activ --     0.0000                 0.0000                 0.0000
 Depolar     --     0.0000                 0.0000                 0.0000
 Atom AN      X      Y      Z        X      Y      Z        X      Y      Z
   1   7     0.01   0.03  -0.17     0.03   0.00   0.16     0.02   0.06  -0.18
   2   6     0.01   0.03  -0.13     0.02   0.01   0.13     0.01   0.05  -0.14
   3   6     0.00   0.02  -0.10     0.01   0.01   0.10     0.01   0.05  -0.11
   4   6     0.00   0.02  -0.08     0.01   0.02   0.09     0.00   0.05  -0.09
   5   6     0.00   0.01  -0.05     0.00   0.03   0.07    -0.01   0.05  -0.06
   6   6     0.00   0.01  -0.03     0.00   0.03   0.06    -0.00   0.04  -0.04
   7   7     0.00   0.01  -0.03    -0.00   0.02   0.04    -0.01   0.03  -0.03
   8   6     0.00   0.00   0.00     0.01   0.01   0.01    -0.01   0.01  -0.02
   9   7    -0.00  -0.00   0.01     0.00  -0.00  -0.03    -0.02  -0.00   0.02
  10   6     0.00   0.00   0.04    -0.00  -0.01  -0.08    -0.01  -0.03   0.00
  11   6     0.01   0.01   0.08    -0.01  -0.01  -0.08     0.01  -0.06  -0.06
  12   6     0.02   0.01   0.12    -0.02  -0.03  -0.14     0.01  -0.09  -0.06
  13   6     0.01   0.01   0.11    -0.02  -0.04  -0.20    -0.00  -0.09   0.00
  14   6     0.00   0.00   0.07    -0.02  -0.04  -0.19    -0.02  -0.06   0.07
  15   6    -0.00  -0.00   0.04    -0.01  -0.02  -0.13    -0.03  -0.04   0.07
  16   6    -0.01  -0.01  -0.00    -0.01  -0.02  -0.10    -0.05  -0.01   0.12
  17   6    -0.02  -0.02  -0.03    -0.01  -0.02  -0.13    -0.07  -0.00   0.20
  18   6    -0.02  -0.02  -0.07    -0.00  -0.02  -0.09    -0.08   0.03   0.24
  19   6    -0.02  -0.02  -0.09     0.00  -0.00  -0.02    -0.08   0.05   0.20
  20   6    -0.02  -0.02  -0.06     0.01   0.00   0.00    -0.06   0.04   0.12
  21   6    -0.01  -0.01  -0.02     0.00  -0.00  -0.04    -0.04   0.01   0.08
  22   7     0.00  -0.00   0.02     0.02   0.00   0.03     0.01   0.01  -0.03
  23   6     0.00   0.00   0.02     0.02   0.01   0.05     0.02   0.03  -0.03
  24   7     0.01   0.00   0.04     0.04   0.01   0.07     0.04   0.03  -0.03
  25   6     0.00  -0.01   0.07     0.06  -0.01   0.06     0.06   0.01  -0.06
  26   6    -0.01  -0.02   0.09     0.07  -0.03   0.03     0.08  -0.01  -0.10
  27   6    -0.02  -0.03   0.11     0.08  -0.05   0.03     0.11  -0.02  -0.13
  28   6    -0.00  -0.03   0.12     0.10  -0.04   0.06     0.12  -0.02  -0.11
  29   6     0.01  -0.01   0.10     0.09  -0.02   0.08     0.10   0.00  -0.06
  30   6     0.01  -0.00   0.07     0.07  -0.00   0.09     0.08   0.02  -0.03
  31   6     0.03   0.01   0.04     0.06   0.02   0.11     0.05   0.04   0.02
  32   6     0.04   0.02   0.04     0.06   0.04   0.14     0.05   0.05   0.06
  33   6     0.05   0.03   0.01     0.05   0.06   0.16     0.02   0.08   0.11
  34   6     0.05   0.03  -0.01     0.03   0.07   0.14    -0.01   0.08   0.11
  35   6     0.03   0.02   0.00     0.03   0.06   0.11    -0.00   0.07   0.07
  36   6     0.02   0.01   0.03     0.04   0.03   0.10     0.03   0.05   0.02
  37   7     0.01   0.01  -0.00     0.02   0.03   0.07     0.01   0.05  -0.03
  38   6    -0.00   0.01  -0.04    -0.00   0.03   0.05    -0.01   0.04  -0.05
  39   6    -0.00   0.01  -0.06     0.00   0.02   0.05    -0.01   0.03  -0.06
  40  14    -0.00  -0.00  -0.05    -0.03   0.01  -0.01    -0.03   0.00  -0.03
  41   6    -0.03   0.01  -0.11    -0.07   0.02  -0.06    -0.06   0.01  -0.00
  42   6    -0.04  -0.04  -0.14    -0.09  -0.02  -0.09    -0.09   0.01   0.02
  43   6    -0.07  -0.04  -0.20    -0.14  -0.01  -0.11    -0.11   0.02   0.03
  44   6    -0.09   0.02  -0.21    -0.17   0.04  -0.12    -0.11   0.02   0.03
  45   6    -0.08   0.07  -0.17    -0.15   0.08  -0.09    -0.08   0.02   0.01
  46   6    -0.05   0.06  -0.12    -0.10   0.07  -0.06    -0.05   0.01  -0.01
  47   6     0.08   0.04   0.01    -0.05   0.05  -0.01     0.04  -0.05  -0.01
  48   6     0.17   0.08   0.07    -0.11   0.04  -0.08    -0.02  -0.11  -0.00
  49   6     0.23   0.11   0.11    -0.14   0.07  -0.09     0.02  -0.15   0.01
  50   6     0.20   0.08   0.08    -0.11   0.11  -0.02     0.12  -0.13   0.01
  51   6     0.11   0.04   0.01    -0.05   0.12   0.05     0.18  -0.06  -0.01
  52   6     0.05   0.01  -0.02    -0.02   0.09   0.05     0.14  -0.02  -0.01
  53   6    -0.06  -0.06   0.04     0.03  -0.07  -0.03    -0.03  -0.02  -0.00
  54   6    -0.07   0.04   0.10     0.04  -0.14  -0.05     0.01  -0.21   0.04
  55   6    -0.12   0.00   0.16     0.07  -0.21  -0.06    -0.00  -0.24   0.05
  56   6    -0.16  -0.14   0.15     0.10  -0.21  -0.05    -0.05  -0.06   0.03
  57   6    -0.16  -0.24   0.09     0.10  -0.14  -0.03    -0.09   0.14  -0.01
  58   6    -0.11  -0.20   0.03     0.06  -0.07  -0.02    -0.08   0.16  -0.03
  59   6     0.00   0.02  -0.09     0.01   0.01   0.08     0.00   0.04  -0.09
  60   1     0.00   0.01  -0.03     0.00   0.01   0.03     0.00   0.02  -0.03
  61   1     0.01   0.00   0.03    -0.00  -0.00  -0.01     0.00  -0.02  -0.03
  62   1     0.01   0.01   0.04    -0.01  -0.01  -0.04     0.01  -0.03  -0.03
  63   1     0.01   0.00   0.04    -0.01  -0.01  -0.07     0.00  -0.03   0.00
  64   1     0.00  -0.00   0.02    -0.01  -0.01  -0.07    -0.01  -0.02   0.03
  65   1    -0.00  -0.00  -0.00    -0.00  -0.01  -0.05    -0.02  -0.01   0.07
  66   1    -0.01  -0.01  -0.03    -0.00  -0.01  -0.03    -0.03   0.01   0.09
  67   1    -0.01  -0.01  -0.03     0.00   0.00   0.00    -0.03   0.02   0.07
  68   1    -0.01  -0.00  -0.02     0.00   0.00   0.02    -0.02   0.02   0.03
  69   1    -0.01  -0.01   0.03     0.02  -0.01   0.00     0.02  -0.00  -0.03
  70   1    -0.01  -0.01   0.04     0.03  -0.02   0.00     0.04  -0.01  -0.05
  71   1    -0.00  -0.01   0.04     0.03  -0.02   0.02     0.04  -0.01  -0.04
  72   1     0.01  -0.00   0.03     0.03  -0.00   0.03     0.03   0.00  -0.01
  73   1     0.01   0.00   0.01     0.02   0.01   0.04     0.02   0.01   0.02
  74   1     0.02   0.01   0.00     0.01   0.02   0.05     0.00   0.03   0.04
  75   1     0.02   0.01  -0.01     0.01   0.03   0.04    -0.01   0.03   0.04
  76   1     0.01   0.01  -0.00     0.00   0.02   0.03    -0.01   0.02   0.02
  77   1    -0.00   0.00  -0.01    -0.00   0.01   0.01    -0.00   0.01  -0.01
  78   1    -0.01  -0.03  -0.04    -0.02  -0.02  -0.02    -0.03   0.00   0.01
  79   1    -0.02  -0.02  -0.07    -0.05  -0.01  -0.04    -0.04   0.01   0.01
  80   1    -0.03   0.01  -0.07    -0.06   0.01  -0.04    -0.04   0.01   0.01
  81   1    -0.03   0.03  -0.05    -0.05   0.04  -0.03    -0.02   0.01   0.00
  82   1    -0.01   0.03  -0.03    -0.02   0.03  -0.01    -0.01   0.00  -0.01
  83   1     0.06   0.03   0.03    -0.04   0.00  -0.04    -0.03  -0.04  -0.00
  84   1     0.09   0.04   0.05    -0.05   0.02  -0.04    -0.01  -0.06   0.00
  85   1     0.07   0.03   0.03    -0.04   0.04  -0.01     0.04  -0.05   0.00
  86   1     0.03   0.00  -0.00    -0.01   0.04   0.03     0.07  -0.01  -0.00
  87   1    -0.01  -0.01  -0.02     0.01   0.03   0.03     0.05   0.01  -0.01
  88   1    -0.01   0.04   0.03     0.00  -0.04  -0.02     0.01  -0.10   0.02
  89   1    -0.03   0.02   0.06     0.02  -0.08  -0.02     0.01  -0.11   0.02
  90   1    -0.06  -0.05   0.06     0.04  -0.08  -0.02    -0.02  -0.02   0.01
  91   1    -0.06  -0.10   0.02     0.04  -0.04  -0.01    -0.04   0.08  -0.01
  92   1    -0.03  -0.08  -0.01     0.02  -0.00   0.00    -0.03   0.09  -0.02
  93   1     0.00   0.00  -0.03     0.00   0.00   0.02     0.00   0.01  -0.03
                      4                      5                      6
                        a                      a                      a 
 Frequencies --    14.3334                20.3526                24.4177
 Red. masses --    10.2499                11.1741                10.2401
 Frc consts  --     0.0000                 0.0000                 0.0000
 IR Inten    --     2.0225                 0.7975                 1.4316
 Raman Activ --     0.0000                 0.0000                 0.0000
 Depolar     --     0.0000                 0.0000                 0.0000
 Atom AN      X      Y      Z        X      Y      Z        X      Y      Z
   1   7    -0.04  -0.02   0.09     0.03   0.06  -0.12    -0.03   0.03  -0.16
   2   6    -0.03  -0.02   0.06     0.02   0.05  -0.06    -0.01   0.02  -0.10
   3   6    -0.02  -0.01   0.03     0.01   0.04  -0.01    -0.00   0.01  -0.04
   4   6    -0.02  -0.02  -0.00    -0.00   0.05   0.01     0.00  -0.01   0.00
   5   6    -0.01  -0.01  -0.03    -0.01   0.04   0.06     0.01  -0.01   0.03
   6   6    -0.01  -0.01  -0.03    -0.01   0.04   0.07     0.01  -0.02   0.05
   7   7    -0.01  -0.01  -0.03    -0.02   0.05   0.05     0.01  -0.01   0.05
   8   6    -0.01  -0.01  -0.01    -0.01   0.03   0.05     0.01  -0.01   0.04
   9   7    -0.01  -0.00  -0.01    -0.02   0.02   0.03     0.01  -0.00   0.03
  10   6    -0.00   0.01   0.03    -0.00   0.02   0.09    -0.00   0.00  -0.03
  11   6     0.00   0.02   0.09     0.02   0.04   0.17    -0.02  -0.00  -0.06
  12   6     0.00   0.03   0.13     0.03   0.04   0.22    -0.03  -0.00  -0.13
  13   6     0.00   0.03   0.11     0.02   0.02   0.19    -0.02   0.00  -0.16
  14   6    -0.00   0.02   0.05    -0.01   0.00   0.10    -0.00   0.01  -0.12
  15   6    -0.00   0.01   0.01    -0.02   0.00   0.05     0.01   0.01  -0.05
  16   6    -0.01  -0.01  -0.04    -0.04  -0.01  -0.05     0.03   0.01  -0.00
  17   6    -0.01  -0.02  -0.09    -0.05  -0.03  -0.13     0.04   0.02   0.01
  18   6    -0.01  -0.03  -0.14    -0.07  -0.05  -0.22     0.06   0.02   0.07
  19   6    -0.02  -0.04  -0.15    -0.07  -0.04  -0.22     0.06   0.02   0.11
  20   6    -0.01  -0.03  -0.11    -0.05  -0.02  -0.13     0.04   0.01   0.10
  21   6    -0.01  -0.01  -0.06    -0.03  -0.00  -0.05     0.03   0.01   0.05
  22   7    -0.02  -0.01   0.01    -0.00   0.03   0.07     0.00  -0.01   0.04
  23   6    -0.02  -0.01  -0.01     0.00   0.03   0.07     0.00  -0.01   0.04
  24   7    -0.02  -0.01  -0.01     0.02   0.04   0.05    -0.01  -0.01   0.03
  25   6    -0.05  -0.01   0.04     0.05   0.03  -0.03    -0.02  -0.00   0.04
  26   6    -0.07  -0.01   0.08     0.04   0.03  -0.01    -0.02   0.01   0.04
  27   6    -0.09  -0.01   0.13     0.09   0.03  -0.10    -0.03   0.02   0.05
  28   6    -0.09  -0.01   0.12     0.15   0.03  -0.21    -0.04   0.01   0.05
  29   6    -0.07  -0.01   0.07     0.16   0.03  -0.23    -0.04   0.00   0.04
  30   6    -0.05  -0.01   0.03     0.11   0.03  -0.13    -0.03  -0.00   0.03
  31   6    -0.02  -0.01  -0.02     0.10   0.03  -0.11    -0.02  -0.02   0.01
  32   6    -0.01  -0.01  -0.05     0.13   0.03  -0.17    -0.01  -0.02  -0.02
  33   6     0.02  -0.02  -0.10     0.10   0.03  -0.12     0.00  -0.04  -0.04
  34   6     0.03  -0.02  -0.12     0.04   0.03  -0.01     0.02  -0.04  -0.04
  35   6     0.02  -0.02  -0.09     0.01   0.03   0.05     0.01  -0.03  -0.01
  36   6    -0.01  -0.01  -0.04     0.04   0.04  -0.00    -0.00  -0.02   0.01
  37   7    -0.02  -0.01  -0.04    -0.00   0.04   0.09     0.00  -0.02   0.05
  38   6    -0.01  -0.00  -0.03    -0.02   0.03   0.08     0.01  -0.01   0.04
  39   6    -0.01   0.00  -0.00    -0.01   0.02   0.06     0.00   0.01   0.00
  40  14     0.00   0.03   0.00    -0.05  -0.01   0.09     0.02   0.03   0.00
  41   6     0.03   0.01  -0.02    -0.04  -0.01   0.05     0.04   0.01  -0.01
  42   6     0.03   0.02  -0.01     0.01  -0.02   0.01     0.05   0.02  -0.01
  43   6     0.07   0.01  -0.03     0.03  -0.02  -0.01     0.07   0.02  -0.01
  44   6     0.11  -0.00  -0.05    -0.00  -0.01   0.01     0.08   0.01  -0.02
  45   6     0.10  -0.01  -0.06    -0.05   0.00   0.05     0.07  -0.00  -0.01
  46   6     0.06   0.00  -0.04    -0.07   0.00   0.07     0.05   0.00  -0.01
  47   6     0.02   0.04   0.02    -0.07  -0.03   0.04    -0.02   0.04  -0.01
  48   6    -0.09  -0.02  -0.06    -0.04  -0.02   0.06     0.20   0.18   0.10
  49   6    -0.07   0.00  -0.04    -0.08  -0.05   0.03     0.16   0.19   0.09
  50   6     0.07   0.09   0.05    -0.15  -0.10  -0.02    -0.10   0.05  -0.04
  51   6     0.18   0.15   0.12    -0.17  -0.11  -0.04    -0.33  -0.10  -0.16
  52   6     0.16   0.13   0.11    -0.13  -0.08  -0.01    -0.28  -0.10  -0.14
  53   6    -0.01   0.00   0.02    -0.00  -0.04   0.04     0.00  -0.00   0.02
  54   6     0.05  -0.30   0.05     0.00  -0.09   0.03     0.05  -0.21   0.06
  55   6     0.06  -0.33   0.06     0.02  -0.13   0.02     0.04  -0.26   0.08
  56   6     0.00  -0.05   0.02     0.04  -0.11   0.02    -0.01  -0.10   0.06
  57   6    -0.06   0.26  -0.01     0.03  -0.05   0.04    -0.05   0.12   0.01
  58   6    -0.06   0.28  -0.02     0.01  -0.01   0.05    -0.05   0.16  -0.01
  59   6    -0.02  -0.00   0.03    -0.00   0.02   0.02    -0.00   0.02  -0.05
  60   1    -0.01  -0.01  -0.00     0.00   0.02  -0.00    -0.00  -0.00   0.00
  61   1     0.00   0.01   0.03     0.01   0.02   0.05    -0.01  -0.00  -0.01
  62   1     0.00   0.01   0.05     0.01   0.01   0.08    -0.01  -0.00  -0.05
  63   1     0.00   0.01   0.04     0.01   0.01   0.07    -0.01   0.00  -0.06
  64   1    -0.00   0.00   0.01    -0.01  -0.00   0.02     0.00   0.00  -0.04
  65   1    -0.00  -0.00  -0.02    -0.02  -0.01  -0.04     0.01   0.01  -0.01
  66   1    -0.00  -0.01  -0.05    -0.02  -0.02  -0.08     0.02   0.01   0.03
  67   1    -0.01  -0.01  -0.06    -0.02  -0.01  -0.08     0.02   0.01   0.05
  68   1    -0.00  -0.01  -0.03    -0.01  -0.00  -0.04     0.01   0.00   0.04
  69   1    -0.02  -0.00   0.03    -0.00   0.01   0.03    -0.00   0.00   0.01
  70   1    -0.03  -0.00   0.05     0.02   0.01  -0.03    -0.01   0.01   0.02
  71   1    -0.03  -0.00   0.04     0.05   0.01  -0.08    -0.02   0.01   0.02
  72   1    -0.02  -0.00   0.02     0.06   0.01  -0.09    -0.01   0.00   0.01
  73   1    -0.00  -0.00  -0.01     0.05   0.01  -0.07    -0.01  -0.01  -0.01
  74   1     0.01  -0.01  -0.04     0.04   0.01  -0.05     0.00  -0.01  -0.02
  75   1     0.02  -0.01  -0.04     0.01   0.01   0.01     0.01  -0.01  -0.02
  76   1     0.01  -0.01  -0.03    -0.01   0.01   0.04     0.01  -0.01  -0.00
  77   1     0.00   0.00  -0.02    -0.01   0.01   0.03     0.01  -0.00   0.02
  78   1     0.00   0.01   0.00     0.01  -0.01   0.00     0.01   0.01  -0.00
  79   1     0.02   0.01  -0.01     0.02  -0.01  -0.01     0.02   0.01  -0.00
  80   1     0.04  -0.00  -0.02     0.00  -0.00  -0.00     0.03   0.00  -0.01
  81   1     0.04  -0.01  -0.02    -0.02   0.00   0.02     0.02  -0.00  -0.00
  82   1     0.02  -0.00  -0.01    -0.03   0.00   0.03     0.01  -0.00  -0.00
  83   1    -0.06  -0.02  -0.04     0.00   0.00   0.03     0.12   0.08   0.06
  84   1    -0.05  -0.01  -0.03    -0.02  -0.01   0.01     0.10   0.09   0.05
  85   1     0.03   0.03   0.02    -0.05  -0.04  -0.01    -0.04   0.02  -0.02
  86   1     0.08   0.06   0.06    -0.07  -0.04  -0.02    -0.16  -0.06  -0.08
  87   1     0.07   0.05   0.05    -0.04  -0.03  -0.01    -0.13  -0.06  -0.06
  88   1     0.03  -0.15   0.02    -0.00  -0.03   0.01     0.03  -0.10   0.02
  89   1     0.03  -0.17   0.02     0.01  -0.05   0.00     0.02  -0.12   0.03
  90   1     0.00  -0.02   0.01     0.02  -0.04   0.00    -0.00  -0.04   0.02
  91   1    -0.03   0.14  -0.01     0.01  -0.01   0.01    -0.03   0.07  -0.00
  92   1    -0.03   0.15  -0.01     0.00   0.01   0.02    -0.02   0.09  -0.01
  93   1    -0.01  -0.00   0.02     0.00   0.01  -0.00    -0.00   0.01  -0.03
                      7                      8                      9
                        a                      a                      a 
 Frequencies --    25.8084                27.4439                28.7973
 Red. masses --    11.0636                11.4339                11.1508
 Frc consts  --     0.0000                 0.0000                 0.0000
 IR Inten    --     0.1779                 0.2682                 1.3351
 Raman Activ --     0.0000                 0.0000                 0.0000
 Depolar     --     0.0000                 0.0000                 0.0000
 Atom AN      X      Y      Z        X      Y      Z        X      Y      Z
   1   7     0.10  -0.00   0.06     0.00  -0.04   0.18    -0.06  -0.05   0.02
   2   6     0.06   0.00   0.04    -0.00  -0.03   0.10    -0.05  -0.05   0.02
   3   6     0.03   0.01   0.02    -0.01  -0.02   0.03    -0.04  -0.05   0.01
   4   6     0.01   0.03   0.05    -0.01   0.01  -0.06    -0.03  -0.06   0.05
   5   6    -0.02   0.04   0.03    -0.02   0.02  -0.12    -0.02  -0.06   0.05
   6   6    -0.03   0.05   0.06    -0.02   0.03  -0.17    -0.02  -0.07   0.07
   7   7    -0.03   0.05   0.09    -0.02   0.02  -0.19    -0.02  -0.07   0.06
   8   6    -0.03   0.04   0.09    -0.02   0.01  -0.17    -0.02  -0.05   0.03
   9   7    -0.04   0.04   0.08    -0.02   0.02  -0.14     0.00  -0.01  -0.02
  10   6    -0.04   0.02  -0.01    -0.01   0.03  -0.06    -0.02   0.06  -0.01
  11   6    -0.05   0.01  -0.02    -0.01   0.02  -0.09    -0.09   0.08  -0.03
  12   6    -0.06  -0.01  -0.13    -0.00   0.05   0.01    -0.11   0.16  -0.02
  13   6    -0.07  -0.04  -0.22     0.01   0.08   0.13    -0.04   0.22   0.01
  14   6    -0.07  -0.03  -0.20     0.01   0.08   0.15     0.03   0.20   0.03
  15   6    -0.05  -0.01  -0.09     0.00   0.06   0.06     0.04   0.12   0.01
  16   6    -0.05   0.01  -0.03     0.00   0.06   0.05     0.11   0.08   0.02
  17   6    -0.06   0.00  -0.06     0.01   0.08   0.14     0.18   0.10   0.04
  18   6    -0.05   0.02   0.02     0.01   0.07   0.11     0.23   0.05   0.03
  19   6    -0.04   0.05   0.12    -0.01   0.05  -0.01     0.21  -0.03   0.00
  20   6    -0.03   0.06   0.14    -0.02   0.03  -0.10     0.13  -0.06  -0.02
  21   6    -0.04   0.04   0.07    -0.01   0.03  -0.07     0.08  -0.00  -0.00
  22   7    -0.03   0.04   0.10    -0.02   0.01  -0.17    -0.04  -0.06   0.05
  23   6    -0.02   0.05   0.07    -0.01   0.02  -0.14    -0.04  -0.06   0.08
  24   7    -0.00   0.05   0.06     0.01   0.01  -0.09    -0.02  -0.06   0.09
  25   6    -0.00   0.03   0.08     0.02  -0.04  -0.03     0.03  -0.08   0.03
  26   6    -0.04   0.01   0.14     0.00  -0.10  -0.03     0.02  -0.11   0.03
  27   6    -0.03  -0.00   0.15     0.02  -0.15   0.04     0.08  -0.13  -0.05
  28   6     0.02   0.00   0.10     0.06  -0.13   0.12     0.14  -0.13  -0.12
  29   6     0.06   0.02   0.04     0.08  -0.07   0.12     0.15  -0.10  -0.10
  30   6     0.05   0.03   0.02     0.06  -0.02   0.05     0.09  -0.08  -0.03
  31   6     0.08   0.05  -0.04     0.07   0.04   0.03     0.07  -0.05  -0.00
  32   6     0.14   0.06  -0.13     0.11   0.09   0.08     0.11  -0.03  -0.04
  33   6     0.16   0.08  -0.18     0.11   0.15   0.04     0.09  -0.01   0.00
  34   6     0.13   0.09  -0.14     0.07   0.17  -0.03     0.02   0.00   0.07
  35   6     0.07   0.08  -0.06     0.04   0.13  -0.07    -0.02  -0.01   0.10
  36   6     0.05   0.06  -0.02     0.04   0.07  -0.05     0.01  -0.04   0.07
  37   7    -0.03   0.06   0.05    -0.02   0.03  -0.18    -0.03  -0.07   0.09
  38   6    -0.03   0.02   0.00    -0.02   0.01  -0.09    -0.02  -0.05   0.02
  39   6    -0.02  -0.01  -0.02    -0.01  -0.02   0.01    -0.03  -0.03  -0.02
  40  14    -0.06  -0.05  -0.02    -0.02  -0.03   0.04    -0.04  -0.03  -0.06
  41   6     0.00  -0.04  -0.01     0.02  -0.03   0.03    -0.03  -0.02  -0.05
  42   6     0.13  -0.05  -0.08     0.03  -0.01   0.05    -0.03  -0.03  -0.06
  43   6     0.22  -0.06  -0.12     0.08  -0.02   0.04    -0.05  -0.03  -0.07
  44   6     0.18  -0.08  -0.08     0.13  -0.05   0.02    -0.07  -0.01  -0.06
  45   6     0.05  -0.08  -0.00     0.12  -0.07   0.01    -0.07   0.00  -0.05
  46   6    -0.04  -0.06   0.03     0.07  -0.06   0.01    -0.05  -0.00  -0.05
  47   6    -0.01  -0.08  -0.01    -0.05  -0.01   0.02    -0.02  -0.00  -0.03
  48   6    -0.07  -0.14  -0.01    -0.04   0.02   0.00    -0.04  -0.01  -0.05
  49   6    -0.06  -0.18  -0.02    -0.10   0.02  -0.03    -0.03   0.01  -0.04
  50   6     0.02  -0.16  -0.02    -0.18  -0.01  -0.04    -0.01   0.03  -0.02
  51   6     0.09  -0.10  -0.02    -0.19  -0.04  -0.02     0.01   0.03   0.00
  52   6     0.07  -0.06  -0.01    -0.13  -0.04   0.01     0.01   0.02  -0.00
  53   6    -0.06  -0.01   0.00    -0.02  -0.04   0.04    -0.06   0.02  -0.02
  54   6    -0.07   0.04   0.02    -0.02  -0.03   0.06    -0.05   0.01   0.02
  55   6    -0.09   0.07   0.03    -0.03  -0.06   0.07    -0.09   0.10   0.03
  56   6    -0.10   0.04   0.02    -0.04  -0.11   0.07    -0.15   0.19   0.01
  57   6    -0.10  -0.01   0.01    -0.04  -0.12   0.06    -0.15   0.20  -0.03
  58   6    -0.08  -0.04  -0.00    -0.03  -0.08   0.04    -0.11   0.11  -0.04
  59   6     0.01  -0.01  -0.01    -0.01  -0.03   0.07    -0.04  -0.03  -0.02
  60   1     0.01   0.01   0.02    -0.00   0.00  -0.03    -0.01  -0.02   0.02
  61   1    -0.01   0.01   0.02    -0.00   0.00  -0.05    -0.04   0.01  -0.02
  62   1    -0.02  -0.01  -0.04    -0.00   0.01  -0.00    -0.05   0.05  -0.01
  63   1    -0.02  -0.02  -0.09     0.01   0.03   0.06    -0.02   0.08   0.01
  64   1    -0.02  -0.01  -0.08     0.01   0.03   0.07     0.02   0.07   0.01
  65   1    -0.02  -0.01  -0.04     0.01   0.03   0.07     0.06   0.05   0.02
  66   1    -0.02   0.00  -0.00     0.00   0.03   0.05     0.09   0.02   0.01
  67   1    -0.01   0.02   0.05    -0.00   0.01  -0.01     0.07  -0.02  -0.00
  68   1    -0.01   0.02   0.06    -0.01   0.00  -0.05     0.03  -0.04  -0.01
  69   1    -0.02   0.00   0.05    -0.01  -0.03  -0.02    -0.01  -0.03   0.02
  70   1    -0.02  -0.01   0.06     0.00  -0.06   0.01     0.02  -0.04  -0.02
  71   1     0.01  -0.00   0.03     0.02  -0.05   0.05     0.06  -0.04  -0.05
  72   1     0.03   0.01  -0.00     0.03  -0.02   0.05     0.06  -0.03  -0.04
  73   1     0.05   0.02  -0.04     0.04   0.02   0.04     0.05  -0.01  -0.03
  74   1     0.06   0.03  -0.07     0.04   0.05   0.02     0.03   0.00  -0.01
  75   1     0.04   0.03  -0.05     0.02   0.07  -0.01     0.00   0.01   0.03
  76   1     0.01   0.02  -0.01     0.00   0.04  -0.04    -0.02  -0.00   0.05
  77   1    -0.02   0.01  -0.00    -0.01   0.00  -0.04    -0.01  -0.02   0.01
  78   1     0.05  -0.01  -0.03     0.00   0.00   0.02    -0.01  -0.01  -0.02
  79   1     0.09  -0.02  -0.05     0.03  -0.00   0.02    -0.02  -0.01  -0.02
  80   1     0.07  -0.03  -0.03     0.05  -0.02   0.01    -0.03  -0.00  -0.02
  81   1     0.01  -0.03   0.01     0.04  -0.03  -0.00    -0.02   0.00  -0.01
  82   1    -0.04  -0.02   0.02     0.02  -0.02   0.00    -0.01   0.00  -0.01
  83   1    -0.04  -0.05  -0.00     0.01   0.01   0.00    -0.02  -0.01  -0.02
  84   1    -0.03  -0.07  -0.00    -0.03   0.01  -0.01    -0.01   0.00  -0.02
  85   1     0.01  -0.06  -0.01    -0.07  -0.00  -0.02    -0.00   0.01  -0.00
  86   1     0.04  -0.02  -0.00    -0.07  -0.02  -0.01     0.01   0.01   0.01
  87   1     0.03  -0.00  -0.00    -0.04  -0.02   0.01     0.01   0.01   0.00
  88   1    -0.02   0.02   0.01    -0.00   0.00   0.02    -0.00  -0.02   0.01
  89   1    -0.03   0.03   0.01    -0.01  -0.02   0.03    -0.03   0.03   0.02
  90   1    -0.04   0.02   0.01    -0.01  -0.04   0.03    -0.05   0.07   0.01
  91   1    -0.03  -0.01   0.00    -0.01  -0.05   0.02    -0.06   0.08  -0.01
  92   1    -0.02  -0.02  -0.00    -0.01  -0.03   0.01    -0.03   0.03  -0.02
  93   1     0.01  -0.01  -0.01    -0.00  -0.01   0.04    -0.01  -0.01  -0.01
                     10                     11                     12
                        a                      a                      a 
 Frequencies --    30.3713                36.0407                39.9853
 Red. masses --    11.6900                11.1160                11.7379
 Frc consts  --     0.0000                 0.0000                 0.0000
 IR Inten    --     2.0147                 1.0445                 0.4912
 Raman Activ --     0.0000                 0.0000                 0.0000
 Depolar     --     0.0000                 0.0000                 0.0000
 Atom AN      X      Y      Z        X      Y      Z        X      Y      Z
   1   7     0.11  -0.08   0.47     0.00  -0.06   0.17    -0.27   0.07   0.05
   2   6     0.08  -0.05   0.29    -0.01  -0.04   0.09    -0.17   0.06   0.04
   3   6     0.05  -0.02   0.13    -0.03  -0.03   0.03    -0.10   0.05   0.03
   4   6     0.04  -0.00   0.11    -0.04  -0.01   0.02    -0.08   0.01   0.03
   5   6     0.03   0.02   0.00    -0.05  -0.00  -0.01    -0.03   0.00   0.03
   6   6     0.03   0.02  -0.01    -0.06   0.01  -0.01    -0.02  -0.02   0.01
   7   7     0.03   0.03   0.02    -0.07   0.01  -0.01    -0.03  -0.03   0.00
   8   6     0.03   0.02   0.01    -0.06   0.01   0.00    -0.02  -0.03  -0.02
   9   7     0.02   0.01   0.02    -0.07   0.02  -0.00    -0.02  -0.03  -0.03
  10   6     0.04  -0.02   0.03    -0.06   0.03   0.00    -0.02   0.00  -0.02
  11   6     0.07  -0.02   0.06    -0.07   0.03   0.01    -0.05   0.00  -0.04
  12   6     0.08  -0.05   0.07    -0.07   0.04   0.02    -0.05   0.03  -0.03
  13   6     0.05  -0.07   0.05    -0.07   0.05   0.02    -0.03   0.06  -0.00
  14   6     0.02  -0.07   0.01    -0.06   0.04   0.01    -0.00   0.05   0.01
  15   6     0.01  -0.04   0.01    -0.06   0.03   0.00    -0.00   0.02   0.00
  16   6    -0.02  -0.03  -0.03    -0.05   0.03  -0.00     0.02   0.01   0.01
  17   6    -0.05  -0.05  -0.07    -0.05   0.03  -0.01     0.05   0.03   0.04
  18   6    -0.07  -0.04  -0.09    -0.04   0.02  -0.01     0.07   0.01   0.04
  19   6    -0.06  -0.00  -0.07    -0.05   0.01  -0.01     0.06  -0.02   0.01
  20   6    -0.03   0.01  -0.03    -0.05   0.01  -0.01     0.03  -0.04  -0.02
  21   6    -0.01  -0.00  -0.01    -0.06   0.02  -0.00     0.01  -0.02  -0.01
  22   7     0.04   0.03  -0.02    -0.08   0.01   0.01    -0.02  -0.04  -0.02
  23   6     0.04   0.02  -0.03    -0.07   0.01   0.01    -0.01  -0.03  -0.02
  24   7     0.03   0.03  -0.04    -0.06   0.01   0.03     0.00  -0.03  -0.02
  25   6     0.02   0.03  -0.02    -0.02  -0.02   0.01    -0.01  -0.03   0.01
  26   6     0.03   0.04  -0.03    -0.04  -0.05   0.02    -0.03  -0.05   0.04
  27   6     0.02   0.04  -0.02     0.01  -0.08  -0.01    -0.04  -0.05   0.08
  28   6    -0.00   0.04   0.00     0.06  -0.07  -0.05    -0.03  -0.05   0.08
  29   6    -0.01   0.04   0.01     0.07  -0.04  -0.04    -0.01  -0.04   0.04
  30   6     0.00   0.03   0.00     0.03  -0.01  -0.01     0.00  -0.03   0.00
  31   6    -0.00   0.02   0.01     0.03   0.03  -0.01     0.02  -0.02  -0.04
  32   6    -0.03   0.02   0.05     0.06   0.05  -0.02     0.04  -0.02  -0.06
  33   6    -0.03   0.01   0.06     0.05   0.08  -0.00     0.05  -0.01  -0.09
  34   6    -0.01   0.01   0.03    -0.01   0.10   0.03     0.05  -0.01  -0.09
  35   6     0.01   0.02  -0.00    -0.04   0.07   0.04     0.03  -0.02  -0.07
  36   6     0.02   0.02  -0.01    -0.03   0.04   0.02     0.02  -0.02  -0.05
  37   7     0.04   0.03  -0.05    -0.07   0.01  -0.01    -0.01  -0.02  -0.00
  38   6     0.02   0.02  -0.06    -0.06  -0.01  -0.03    -0.01   0.05   0.04
  39   6     0.02   0.00  -0.04    -0.05  -0.03  -0.03    -0.02   0.09   0.05
  40  14     0.02  -0.02  -0.07    -0.09  -0.05  -0.06    -0.01   0.17   0.12
  41   6    -0.03  -0.01  -0.05    -0.03  -0.04   0.01    -0.04   0.11   0.03
  42   6    -0.12  -0.02  -0.01     0.04  -0.00   0.01    -0.13   0.07   0.04
  43   6    -0.16  -0.01  -0.02     0.07  -0.01   0.06    -0.13   0.07  -0.05
  44   6    -0.12   0.01  -0.07     0.04  -0.06   0.11    -0.03   0.12  -0.15
  45   6    -0.03   0.03  -0.11    -0.02  -0.10   0.11     0.05   0.17  -0.16
  46   6     0.01   0.02  -0.10    -0.06  -0.09   0.06     0.04   0.16  -0.07
  47   6     0.03  -0.05  -0.05     0.01  -0.02  -0.01     0.03  -0.01   0.06
  48   6     0.13  -0.02   0.04     0.18   0.07   0.11     0.02  -0.09   0.15
  49   6     0.13  -0.06   0.03     0.33   0.13   0.19     0.03  -0.22   0.13
  50   6     0.03  -0.14  -0.07     0.31   0.11   0.16     0.05  -0.28   0.00
  51   6    -0.07  -0.18  -0.16     0.13   0.01   0.03     0.07  -0.21  -0.09
  52   6    -0.07  -0.13  -0.15    -0.02  -0.05  -0.05     0.05  -0.07  -0.06
  53   6    -0.03   0.02  -0.02     0.01  -0.02  -0.10     0.05   0.07   0.04
  54   6    -0.01  -0.01   0.02    -0.01  -0.05  -0.18     0.04   0.05  -0.03
  55   6    -0.06   0.06   0.04     0.06  -0.06  -0.23     0.10  -0.02  -0.06
  56   6    -0.12   0.18   0.02     0.14  -0.04  -0.21     0.18  -0.07  -0.04
  57   6    -0.13   0.20  -0.03     0.15  -0.01  -0.13     0.19  -0.05   0.03
  58   6    -0.09   0.13  -0.05     0.08  -0.00  -0.08     0.12   0.02   0.06
  59   6     0.04  -0.02   0.05    -0.04  -0.04  -0.00    -0.07   0.10   0.03
  60   1     0.02  -0.00   0.05    -0.01  -0.00   0.01    -0.03  -0.01   0.01
  61   1     0.03   0.00   0.02    -0.02   0.01   0.00    -0.02  -0.00  -0.02
  62   1     0.03  -0.01   0.03    -0.02   0.01   0.01    -0.02   0.01  -0.01
  63   1     0.02  -0.03   0.02    -0.02   0.02   0.01    -0.01   0.02   0.00
  64   1    -0.00  -0.03  -0.00    -0.02   0.01   0.00     0.00   0.02   0.01
  65   1    -0.02  -0.02  -0.02    -0.01   0.01  -0.00     0.02   0.01   0.02
  66   1    -0.03  -0.01  -0.04    -0.01   0.01  -0.01     0.03   0.01   0.02
  67   1    -0.02   0.00  -0.02    -0.01   0.00  -0.01     0.02  -0.01   0.00
  68   1    -0.01   0.01  -0.00    -0.02   0.00  -0.00     0.01  -0.02  -0.01
  69   1     0.01   0.01  -0.01    -0.02  -0.02   0.01    -0.01  -0.01   0.01
  70   1     0.01   0.01  -0.01    -0.00  -0.03  -0.00    -0.02  -0.02   0.03
  71   1    -0.00   0.01   0.00     0.03  -0.03  -0.02    -0.01  -0.02   0.03
  72   1    -0.01   0.01   0.01     0.03  -0.01  -0.02     0.00  -0.01   0.01
  73   1    -0.01   0.01   0.02     0.03   0.01  -0.01     0.01  -0.01  -0.02
  74   1    -0.01   0.00   0.02     0.02   0.03  -0.00     0.02  -0.00  -0.03
  75   1    -0.01   0.00   0.01    -0.01   0.04   0.01     0.02  -0.00  -0.03
  76   1     0.01   0.00  -0.01    -0.02   0.02   0.02     0.01  -0.00  -0.02
  77   1     0.00   0.01  -0.04    -0.02  -0.00  -0.02     0.01   0.01   0.01
  78   1    -0.05  -0.01   0.01     0.02   0.01  -0.01    -0.06   0.01   0.03
  79   1    -0.07  -0.01   0.00     0.03   0.01   0.02    -0.06   0.01  -0.01
  80   1    -0.04   0.01  -0.02     0.02  -0.02   0.04    -0.01   0.04  -0.06
  81   1     0.00   0.01  -0.04    -0.01  -0.04   0.04     0.03   0.06  -0.07
  82   1     0.02   0.01  -0.04    -0.03  -0.04   0.02     0.03   0.06  -0.02
  83   1     0.06   0.01   0.03     0.06   0.03   0.04    -0.00  -0.01   0.07
  84   1     0.06  -0.01   0.03     0.13   0.06   0.08     0.01  -0.08   0.06
  85   1     0.01  -0.05  -0.02     0.12   0.05   0.07     0.02  -0.11  -0.01
  86   1    -0.04  -0.07  -0.07     0.03  -0.00   0.00     0.03  -0.07  -0.05
  87   1    -0.04  -0.05  -0.06    -0.04  -0.03  -0.04     0.02  -0.00  -0.04
  88   1     0.01  -0.03   0.01    -0.02  -0.02  -0.06    -0.01   0.02  -0.01
  89   1    -0.01   0.01   0.02     0.01  -0.03  -0.09     0.03  -0.01  -0.03
  90   1    -0.05   0.07   0.01     0.05  -0.01  -0.07     0.07  -0.04  -0.02
  91   1    -0.05   0.08  -0.01     0.06   0.00  -0.03     0.07  -0.03   0.01
  92   1    -0.03   0.04  -0.02     0.03   0.01  -0.00     0.04   0.01   0.03
  93   1     0.01  -0.01   0.02    -0.01  -0.01  -0.00    -0.03   0.04   0.01
                     13                     14                     15
                        a                      a                      a 
 Frequencies --    41.6245                46.0019                61.9784
 Red. masses --    11.9755                10.2324                11.0171
 Frc consts  --     0.0000                 0.0000                 0.0000
 IR Inten    --     1.6118                 2.9294                 5.3565
 Raman Activ --     0.0000                 0.0000                 0.0000
 Depolar     --     0.0000                 0.0000                 0.0000
 Atom AN      X      Y      Z        X      Y      Z        X      Y      Z
   1   7    -0.13   0.00   0.19     0.09  -0.02  -0.13     0.02  -0.00   0.01
   2   6    -0.08   0.01   0.10     0.05  -0.03  -0.07     0.02   0.00  -0.00
   3   6    -0.04   0.03   0.01     0.03  -0.03  -0.04     0.02   0.00  -0.01
   4   6    -0.03  -0.00   0.05     0.02  -0.02  -0.05     0.02  -0.00  -0.02
   5   6    -0.01   0.00  -0.00     0.00  -0.02  -0.04     0.02   0.00  -0.03
   6   6    -0.00  -0.01   0.04    -0.01   0.00  -0.01     0.03  -0.01  -0.04
   7   7    -0.00  -0.02   0.07    -0.00   0.02   0.01     0.03  -0.01  -0.00
   8   6    -0.01  -0.01   0.07    -0.01   0.03   0.05     0.03  -0.01  -0.01
   9   7    -0.00  -0.01   0.06    -0.01   0.03   0.07     0.04  -0.01   0.02
  10   6    -0.01   0.01   0.04    -0.01   0.02   0.04     0.04  -0.01   0.01
  11   6    -0.03   0.02   0.05    -0.01   0.02   0.05     0.05  -0.00   0.03
  12   6    -0.03   0.03   0.02    -0.01   0.01   0.00     0.04  -0.01   0.01
  13   6    -0.02   0.03  -0.01    -0.02  -0.01  -0.06     0.04  -0.03  -0.04
  14   6    -0.01   0.02  -0.03    -0.03  -0.01  -0.07     0.03  -0.03  -0.05
  15   6     0.00   0.01  -0.00    -0.02   0.00  -0.02     0.03  -0.02  -0.02
  16   6     0.01  -0.00  -0.01    -0.03   0.01  -0.01     0.04  -0.01  -0.01
  17   6     0.03  -0.01  -0.05    -0.04  -0.00  -0.04     0.04  -0.01  -0.01
  18   6     0.04  -0.02  -0.05    -0.04   0.01  -0.02     0.04  -0.01   0.02
  19   6     0.04  -0.03  -0.01    -0.03   0.03   0.04     0.05  -0.00   0.05
  20   6     0.03  -0.02   0.03    -0.02   0.04   0.07     0.04  -0.00   0.04
  21   6     0.01  -0.01   0.03    -0.02   0.03   0.04     0.04  -0.01   0.02
  22   7    -0.01  -0.01   0.09    -0.03   0.03   0.08     0.03  -0.01  -0.05
  23   6    -0.00  -0.01   0.05    -0.03   0.01   0.04     0.03  -0.01  -0.07
  24   7    -0.01  -0.01   0.04    -0.04   0.01   0.06     0.04  -0.01  -0.10
  25   6     0.00  -0.00   0.01    -0.02   0.00   0.04     0.01  -0.02  -0.02
  26   6     0.01   0.01   0.00    -0.04  -0.01   0.08    -0.08  -0.04   0.13
  27   6     0.02   0.02  -0.04    -0.01  -0.02   0.05    -0.12  -0.05   0.24
  28   6     0.03   0.02  -0.07     0.03  -0.02  -0.01    -0.07  -0.05   0.18
  29   6     0.02   0.00  -0.06     0.06  -0.01  -0.05     0.03  -0.03   0.01
  30   6     0.00  -0.00  -0.02     0.03   0.00  -0.02     0.06  -0.02  -0.09
  31   6    -0.01  -0.02   0.00     0.04   0.02  -0.03     0.10  -0.01  -0.18
  32   6    -0.01  -0.02   0.00     0.07   0.03  -0.08     0.13  -0.00  -0.22
  33   6    -0.02  -0.03   0.02     0.06   0.04  -0.06     0.10   0.01  -0.17
  34   6    -0.02  -0.03   0.05     0.02   0.05  -0.01     0.05   0.01  -0.10
  35   6    -0.02  -0.03   0.05    -0.02   0.04   0.03     0.04   0.01  -0.10
  36   6    -0.01  -0.02   0.03    -0.00   0.03   0.02     0.07  -0.00  -0.14
  37   7    -0.00  -0.01   0.03    -0.03   0.01   0.00     0.04  -0.01  -0.08
  38   6     0.00   0.04  -0.08    -0.01  -0.03  -0.04     0.03   0.01  -0.03
  39   6    -0.01   0.07  -0.12     0.00  -0.05  -0.01     0.02   0.01  -0.02
  40  14     0.01   0.15  -0.20     0.01  -0.08   0.02     0.02  -0.01  -0.03
  41   6     0.05   0.09  -0.02    -0.00  -0.05   0.01    -0.08   0.01   0.06
  42   6     0.01   0.19   0.09    -0.31  -0.01   0.23    -0.11   0.03   0.09
  43   6     0.04   0.18   0.21    -0.31  -0.01   0.21    -0.22   0.05   0.19
  44   6     0.11   0.07   0.21     0.01  -0.05  -0.03    -0.30   0.05   0.26
  45   6     0.15  -0.04   0.10     0.32  -0.09  -0.24    -0.28   0.04   0.23
  46   6     0.11  -0.03  -0.02     0.30  -0.09  -0.21    -0.17   0.02   0.13
  47   6     0.04   0.05  -0.13    -0.01  -0.02   0.02     0.00   0.00  -0.02
  48   6     0.00   0.01  -0.11    -0.01   0.01  -0.02     0.01   0.02  -0.04
  49   6     0.01  -0.04  -0.12    -0.02   0.06  -0.01     0.01   0.05  -0.03
  50   6     0.05  -0.04  -0.14    -0.03   0.08   0.03    -0.00   0.06  -0.01
  51   6     0.09   0.01  -0.16    -0.03   0.05   0.07    -0.01   0.04   0.01
  52   6     0.08   0.05  -0.15    -0.02   0.01   0.06    -0.01   0.01  -0.00
  53   6    -0.04   0.04  -0.07     0.01  -0.03   0.00     0.00  -0.01  -0.02
  54   6    -0.02   0.03   0.01    -0.00   0.01  -0.02     0.01  -0.01   0.00
  55   6    -0.05  -0.13   0.09     0.00   0.05  -0.03    -0.01  -0.00   0.02
  56   6    -0.11  -0.29   0.08     0.02   0.04  -0.03    -0.03  -0.00   0.01
  57   6    -0.13  -0.27  -0.01     0.03   0.00  -0.01    -0.03  -0.00  -0.01
  58   6    -0.10  -0.10  -0.08     0.03  -0.04   0.01    -0.02  -0.00  -0.02
  59   6    -0.03   0.07  -0.08     0.02  -0.05   0.00     0.02   0.01  -0.02
  60   1    -0.01  -0.01   0.04     0.01  -0.00  -0.02     0.01  -0.00  -0.00
  61   1    -0.01   0.00   0.02    -0.00   0.01   0.03     0.01   0.00   0.02
  62   1    -0.01   0.01   0.01    -0.00   0.00   0.00     0.01  -0.00   0.01
  63   1    -0.01   0.01  -0.01    -0.01  -0.01  -0.03     0.01  -0.01  -0.02
  64   1     0.00   0.01  -0.02    -0.01  -0.01  -0.03     0.01  -0.01  -0.02
  65   1     0.01   0.00  -0.02    -0.01  -0.01  -0.02     0.01  -0.00  -0.01
  66   1     0.01  -0.01  -0.02    -0.01   0.00  -0.01     0.01  -0.00   0.01
  67   1     0.01  -0.01  -0.00    -0.01   0.01   0.02     0.01   0.00   0.02
  68   1     0.01  -0.01   0.02    -0.00   0.01   0.03     0.01  -0.00   0.02
  69   1     0.00   0.00   0.01    -0.02  -0.00   0.04    -0.03  -0.01   0.05
  70   1     0.01   0.01  -0.01    -0.01  -0.01   0.02    -0.06  -0.02   0.11
  71   1     0.01   0.01  -0.03     0.02  -0.01  -0.01    -0.03  -0.02   0.08
  72   1     0.00   0.00  -0.02     0.03  -0.00  -0.03     0.02  -0.01  -0.01
  73   1    -0.00  -0.01  -0.01     0.03   0.01  -0.04     0.05  -0.00  -0.08
  74   1    -0.01  -0.01   0.01     0.03   0.01  -0.03     0.03   0.00  -0.05
  75   1    -0.01  -0.01   0.02     0.00   0.02   0.00     0.00   0.01  -0.01
  76   1    -0.00  -0.01   0.02    -0.01   0.01   0.02     0.00   0.00  -0.01
  77   1     0.01   0.01  -0.03    -0.00  -0.01  -0.02     0.01   0.00  -0.01
  78   1    -0.01   0.08   0.03    -0.16   0.01   0.12    -0.02   0.01   0.01
  79   1     0.00   0.08   0.09    -0.16   0.01   0.11    -0.07   0.02   0.06
  80   1     0.04   0.02   0.09     0.01  -0.02  -0.01    -0.11   0.02   0.09
  81   1     0.06  -0.04   0.03     0.16  -0.04  -0.12    -0.10   0.01   0.08
  82   1     0.04  -0.03  -0.03     0.15  -0.03  -0.10    -0.04  -0.00   0.03
  83   1    -0.01   0.00  -0.03    -0.00  -0.00  -0.02     0.01   0.00  -0.02
  84   1    -0.01  -0.02  -0.03    -0.01   0.02  -0.01     0.01   0.02  -0.01
  85   1     0.02  -0.02  -0.04    -0.01   0.03   0.01    -0.00   0.03  -0.00
  86   1     0.04   0.00  -0.05    -0.01   0.02   0.03    -0.01   0.01   0.01
  87   1     0.03   0.03  -0.05    -0.01  -0.00   0.03    -0.01  -0.00   0.00
  88   1     0.01   0.04   0.01    -0.00   0.00  -0.01     0.01  -0.00   0.00
  89   1    -0.01  -0.04   0.04    -0.00   0.02  -0.01    -0.00  -0.00   0.01
  90   1    -0.04  -0.12   0.04     0.01   0.02  -0.01    -0.01  -0.00   0.01
  91   1    -0.05  -0.11  -0.00     0.01  -0.00  -0.00    -0.01  -0.00  -0.00
  92   1    -0.03  -0.03  -0.04     0.01  -0.02   0.01    -0.01  -0.00  -0.01
  93   1    -0.01   0.03  -0.03     0.01  -0.02   0.01     0.01   0.00  -0.00
                     16                     17                     18
                        a                      a                      a 
 Frequencies --    72.0021                81.1309                85.2712
 Red. masses --    11.9842                11.5472                12.8208
 Frc consts  --     0.0000                 0.0000                 0.0000
 IR Inten    --     1.2858                 0.6786                 4.1438
 Raman Activ --     0.0000                 0.0000                 0.0000
 Depolar     --     0.0000                 0.0000                 0.0000
 Atom AN      X      Y      Z        X      Y      Z        X      Y      Z
   1   7    -0.15  -0.11   0.10     0.13  -0.04   0.16     0.66  -0.07   0.02
   2   6    -0.06  -0.09   0.00     0.05  -0.01   0.03     0.23  -0.03  -0.01
   3   6    -0.00  -0.08  -0.07     0.01   0.01  -0.05     0.01  -0.00  -0.04
   4   6     0.01  -0.09  -0.17     0.00   0.02  -0.10    -0.01   0.03  -0.07
   5   6     0.03  -0.09  -0.18    -0.00   0.02  -0.06    -0.04   0.03  -0.07
   6   6     0.01  -0.06  -0.17    -0.01   0.01  -0.03    -0.04   0.02  -0.04
   7   7     0.04  -0.01  -0.14     0.00   0.03  -0.22    -0.08  -0.04   0.01
   8   6    -0.00   0.04   0.01    -0.00   0.02  -0.14    -0.08  -0.06   0.07
   9   7     0.01   0.07   0.10    -0.01  -0.01  -0.25    -0.09  -0.08   0.09
  10   6     0.01   0.04   0.06     0.00  -0.02  -0.15    -0.11  -0.03   0.05
  11   6     0.03   0.06   0.14     0.02  -0.03  -0.18    -0.19  -0.03  -0.03
  12   6     0.03   0.02   0.07     0.03  -0.04  -0.11    -0.20   0.02  -0.07
  13   6     0.00  -0.02  -0.06     0.02  -0.03   0.01    -0.15   0.08  -0.03
  14   6    -0.02  -0.03  -0.11     0.01  -0.01   0.07    -0.08   0.07   0.04
  15   6    -0.01   0.01  -0.04    -0.01  -0.01  -0.02    -0.07   0.01   0.07
  16   6    -0.03   0.02  -0.03    -0.03   0.01   0.01    -0.03  -0.02   0.06
  17   6    -0.06  -0.00  -0.08    -0.05   0.04   0.18     0.02  -0.02   0.02
  18   6    -0.07   0.03  -0.02    -0.08   0.06   0.16     0.05  -0.07  -0.04
  19   6    -0.05   0.08   0.09    -0.10   0.05  -0.05     0.03  -0.13  -0.07
  20   6    -0.02   0.10   0.13    -0.07   0.03  -0.21    -0.02  -0.13  -0.01
  21   6    -0.01   0.06   0.06    -0.04   0.01  -0.16    -0.04  -0.07   0.05
  22   7    -0.07   0.04   0.09     0.02   0.00   0.05    -0.06  -0.07   0.12
  23   6    -0.09  -0.01   0.01     0.01  -0.01   0.18    -0.02  -0.01  -0.01
  24   7    -0.15  -0.01   0.10    -0.03  -0.01   0.28     0.01  -0.02  -0.06
  25   6    -0.10  -0.04   0.06    -0.01   0.02   0.17     0.00  -0.02  -0.03
  26   6    -0.13  -0.07   0.09    -0.00   0.07   0.18     0.00  -0.02  -0.04
  27   6    -0.05  -0.09  -0.00    -0.00   0.11   0.10    -0.00  -0.03  -0.02
  28   6     0.04  -0.09  -0.12     0.00   0.09  -0.02    -0.01  -0.02   0.01
  29   6     0.05  -0.06  -0.12     0.01   0.04  -0.06    -0.01  -0.02   0.01
  30   6    -0.02  -0.03  -0.02    -0.00   0.01   0.03    -0.01  -0.02  -0.01
  31   6    -0.04   0.00   0.00     0.01  -0.04   0.01    -0.01  -0.02  -0.01
  32   6     0.01   0.02  -0.03     0.04  -0.09  -0.17    -0.02  -0.01   0.02
  33   6    -0.02   0.06   0.01     0.06  -0.15  -0.16    -0.02  -0.01   0.02
  34   6    -0.09   0.07   0.09     0.02  -0.16   0.03    -0.00  -0.00  -0.02
  35   6    -0.14   0.05   0.12    -0.01  -0.12   0.19     0.01  -0.01  -0.05
  36   6    -0.11   0.01   0.07    -0.02  -0.06   0.17     0.01  -0.02  -0.04
  37   7    -0.06  -0.06  -0.13     0.01  -0.01   0.18    -0.03   0.01  -0.07
  38   6     0.05  -0.08  -0.12    -0.01   0.00  -0.01    -0.04   0.01  -0.07
  39   6     0.05  -0.07  -0.04    -0.00  -0.00  -0.02    -0.03  -0.02  -0.04
  40  14     0.20   0.03   0.05     0.01   0.02  -0.01     0.06   0.10   0.04
  41   6     0.12   0.02  -0.01     0.00   0.02   0.00     0.04   0.07   0.02
  42   6     0.14  -0.03  -0.07    -0.01   0.02   0.01     0.03   0.06   0.01
  43   6     0.04  -0.01  -0.08    -0.02   0.02   0.01    -0.01   0.06   0.00
  44   6    -0.08   0.07  -0.02    -0.02   0.02   0.01    -0.04   0.10   0.01
  45   6    -0.07   0.12   0.02    -0.01   0.02   0.01    -0.02   0.11   0.01
  46   6     0.03   0.10   0.02    -0.00   0.02   0.00     0.02   0.10   0.02
  47   6     0.11   0.03   0.03     0.01   0.01  -0.01     0.05   0.06   0.03
  48   6     0.08   0.02  -0.01     0.01   0.01  -0.01     0.03   0.03   0.03
  49   6    -0.02  -0.01  -0.06     0.00   0.00  -0.01    -0.01  -0.02  -0.00
  50   6    -0.07  -0.04  -0.08     0.00  -0.00  -0.01    -0.03  -0.04  -0.04
  51   6    -0.03  -0.02  -0.04     0.00   0.00  -0.01    -0.00  -0.01  -0.04
  52   6     0.07   0.02   0.02     0.01   0.01  -0.01     0.04   0.04  -0.00
  53   6     0.10   0.03   0.06     0.01   0.01  -0.00     0.03   0.08   0.03
  54   6     0.11   0.03   0.08     0.01   0.01   0.00     0.04   0.06   0.04
  55   6     0.10   0.02   0.10     0.01  -0.00   0.01     0.05  -0.00   0.04
  56   6     0.08   0.02   0.09     0.00  -0.01   0.01     0.07  -0.04   0.05
  57   6     0.07   0.02   0.07     0.00  -0.01   0.00     0.06  -0.00   0.04
  58   6     0.09   0.03   0.05     0.00   0.01  -0.00     0.05   0.05   0.04
  59   6     0.02  -0.07  -0.02     0.00  -0.00  -0.03    -0.01  -0.03  -0.02
  60   1     0.00  -0.03  -0.06    -0.00   0.01  -0.04     0.00   0.02  -0.02
  61   1     0.01   0.03   0.07     0.01  -0.01  -0.07    -0.07  -0.02  -0.02
  62   1     0.01   0.01   0.04     0.01  -0.02  -0.04    -0.07   0.01  -0.04
  63   1     0.00  -0.01  -0.03     0.01  -0.01   0.02    -0.05   0.03  -0.02
  64   1    -0.01  -0.02  -0.06     0.00   0.00   0.05    -0.01   0.03   0.02
  65   1    -0.02  -0.01  -0.05    -0.01   0.01   0.10     0.01   0.01   0.01
  66   1    -0.03   0.01  -0.01    -0.03   0.03   0.09     0.02  -0.02  -0.02
  67   1    -0.02   0.03   0.04    -0.03   0.02  -0.02     0.01  -0.05  -0.04
  68   1    -0.00   0.04   0.06    -0.02   0.01  -0.10    -0.01  -0.05  -0.01
  69   1    -0.06  -0.02   0.05     0.00   0.02   0.07     0.00  -0.01  -0.02
  70   1    -0.02  -0.03   0.00     0.00   0.04   0.03    -0.00  -0.01  -0.01
  71   1     0.03  -0.03  -0.06     0.00   0.03  -0.03    -0.01  -0.01   0.01
  72   1     0.03  -0.02  -0.06     0.01   0.01  -0.05    -0.01  -0.01   0.01
  73   1     0.02   0.00  -0.02     0.02  -0.02  -0.09    -0.01  -0.00   0.01
  74   1     0.00   0.02  -0.00     0.03  -0.05  -0.09    -0.01  -0.00   0.01
  75   1    -0.03   0.03   0.03     0.01  -0.06   0.01    -0.00   0.00  -0.01
  76   1    -0.06   0.02   0.05    -0.01  -0.04   0.09     0.01  -0.00  -0.02
  77   1     0.02  -0.02  -0.03    -0.00  -0.00   0.01    -0.02   0.00  -0.02
  78   1     0.06  -0.02  -0.03    -0.00   0.00   0.00     0.01   0.01   0.00
  79   1     0.01  -0.02  -0.03    -0.01   0.01   0.01    -0.01   0.01  -0.00
  80   1    -0.05   0.02  -0.00    -0.01   0.01   0.00    -0.02   0.03   0.00
  81   1    -0.05   0.05   0.02    -0.00   0.01   0.00    -0.01   0.04   0.01
  82   1     0.01   0.04   0.02     0.00   0.01   0.00     0.01   0.04   0.01
  83   1     0.03   0.01  -0.00     0.00   0.00  -0.00     0.01   0.01   0.02
  84   1    -0.01  -0.01  -0.03     0.00  -0.00  -0.00    -0.01  -0.01  -0.00
  85   1    -0.05  -0.02  -0.04    -0.00  -0.00  -0.01    -0.02  -0.02  -0.02
  86   1    -0.02  -0.01  -0.01     0.00  -0.00  -0.01    -0.00  -0.01  -0.02
  87   1     0.03   0.01   0.01     0.00   0.00  -0.00     0.02   0.02  -0.00
  88   1     0.04   0.01   0.03     0.00   0.01   0.00     0.01   0.02   0.01
  89   1     0.03   0.00   0.03     0.00  -0.00   0.00     0.02  -0.01   0.01
  90   1     0.02   0.00   0.03     0.00  -0.01   0.00     0.02  -0.03   0.01
  91   1     0.02   0.01   0.02    -0.00  -0.00   0.00     0.02  -0.01   0.01
  92   1     0.02   0.01   0.01     0.00   0.00  -0.00     0.01   0.02   0.01
  93   1     0.00  -0.02   0.02     0.00  -0.00  -0.00    -0.00  -0.01   0.00
                     19                     20                     21
                        a                      a                      a 
 Frequencies --    86.3206               100.5085               115.4392
 Red. masses --    12.1877                10.9563                10.6863
 Frc consts  --     0.0000                 0.0000                 0.0000
 IR Inten    --     5.5314                 4.7239                 5.3158
 Raman Activ --     0.0000                 0.0000                 0.0000
 Depolar     --     0.0000                 0.0000                 0.0000
 Atom AN      X      Y      Z        X      Y      Z        X      Y      Z
   1   7     0.24  -0.03  -0.22    -0.25  -0.01  -0.04     0.09   0.04   0.03
   2   6     0.08  -0.04  -0.01    -0.05  -0.03  -0.00     0.01   0.05   0.00
   3   6     0.01  -0.07   0.14     0.04  -0.04   0.02    -0.03   0.06  -0.02
   4   6     0.01  -0.08   0.27     0.04  -0.05   0.04    -0.02   0.05  -0.02
   5   6     0.00  -0.09   0.27     0.03  -0.04   0.03    -0.01   0.04  -0.02
   6   6    -0.02  -0.05   0.21     0.01  -0.00   0.04     0.01   0.01  -0.03
   7   7     0.00  -0.00   0.14     0.02   0.02   0.10     0.02  -0.00   0.00
   8   6     0.01   0.04  -0.08     0.01   0.04   0.10     0.03  -0.01  -0.01
   9   7     0.01   0.05  -0.12     0.01   0.04   0.16     0.03  -0.01   0.03
  10   6     0.03   0.02  -0.08     0.01   0.02   0.12     0.04  -0.01   0.05
  11   6     0.08   0.01  -0.06    -0.02  -0.05  -0.16     0.05  -0.02   0.04
  12   6     0.09  -0.02   0.01    -0.04  -0.10  -0.35     0.05  -0.05  -0.04
  13   6     0.06  -0.04   0.07    -0.03  -0.06  -0.18     0.04  -0.07  -0.10
  14   6     0.02  -0.03   0.04     0.01   0.02   0.15     0.03  -0.05  -0.03
  15   6     0.00   0.00  -0.03     0.02   0.05   0.26     0.04  -0.01   0.04
  16   6    -0.03   0.02  -0.03     0.01   0.05   0.26     0.04  -0.01   0.06
  17   6    -0.07   0.02   0.01    -0.01   0.03   0.18     0.07   0.00   0.08
  18   6    -0.09   0.05   0.02    -0.05  -0.04  -0.15     0.07  -0.02   0.02
  19   6    -0.08   0.08  -0.01    -0.07  -0.08  -0.35     0.06  -0.05  -0.07
  20   6    -0.05   0.09  -0.05    -0.05  -0.04  -0.18     0.04  -0.05  -0.06
  21   6    -0.02   0.05  -0.07    -0.00   0.03   0.12     0.04  -0.02   0.02
  22   7    -0.03   0.05  -0.27    -0.01   0.04   0.08     0.03  -0.01  -0.06
  23   6    -0.08  -0.01  -0.04    -0.02   0.02   0.02     0.03   0.00  -0.07
  24   7    -0.11  -0.01  -0.04    -0.03   0.03  -0.00     0.03   0.00  -0.10
  25   6    -0.08  -0.05  -0.03    -0.02   0.02  -0.01     0.02   0.00  -0.09
  26   6    -0.12  -0.11  -0.01    -0.01   0.02  -0.02    -0.12   0.01   0.16
  27   6    -0.08  -0.16   0.02    -0.02   0.01   0.00    -0.17   0.01   0.28
  28   6    -0.02  -0.14   0.02    -0.02   0.02   0.03    -0.06   0.00   0.06
  29   6     0.01  -0.08  -0.01    -0.01   0.02   0.02     0.08   0.00  -0.21
  30   6    -0.03  -0.04  -0.03    -0.01   0.03  -0.00     0.09   0.00  -0.23
  31   6    -0.03   0.01  -0.03     0.00   0.04  -0.01     0.06  -0.00  -0.18
  32   6     0.01   0.04  -0.04     0.03   0.06  -0.03    -0.00   0.00  -0.05
  33   6    -0.01   0.07  -0.02     0.03   0.08  -0.04    -0.15   0.01   0.23
  34   6    -0.07   0.09   0.02    -0.00   0.08  -0.01    -0.21   0.01   0.34
  35   6    -0.11   0.06   0.02    -0.03   0.07   0.00    -0.13   0.00   0.19
  36   6    -0.08   0.02  -0.01    -0.02   0.04  -0.01     0.01  -0.00  -0.06
  37   7    -0.08  -0.04   0.17    -0.01   0.01  -0.01     0.03   0.01  -0.08
  38   6     0.00  -0.08   0.21     0.04  -0.04   0.01    -0.01   0.05   0.00
  39   6     0.00  -0.06   0.09     0.04  -0.04   0.01    -0.02   0.06   0.01
  40  14     0.07   0.07  -0.06     0.09  -0.05  -0.02    -0.09   0.02   0.02
  41   6     0.07   0.04  -0.04     0.05  -0.03  -0.02    -0.01   0.01  -0.02
  42   6     0.04   0.06  -0.02     0.03  -0.04  -0.01     0.04   0.01  -0.04
  43   6     0.01   0.06   0.01    -0.03  -0.03   0.01     0.11  -0.00  -0.07
  44   6    -0.00   0.06   0.02    -0.06  -0.01   0.03     0.13  -0.02  -0.08
  45   6     0.03   0.05  -0.01    -0.03  -0.01   0.02     0.09  -0.03  -0.07
  46   6     0.06   0.05  -0.04     0.03  -0.02  -0.01     0.02  -0.01  -0.03
  47   6     0.05   0.04  -0.05     0.06  -0.01  -0.01    -0.07   0.01   0.01
  48   6     0.03   0.02  -0.03     0.05   0.00  -0.04    -0.06  -0.01   0.04
  49   6     0.02  -0.03  -0.05     0.02   0.01  -0.05    -0.02  -0.02   0.06
  50   6     0.04  -0.04  -0.08    -0.01   0.01  -0.04     0.01  -0.01   0.05
  51   6     0.06  -0.01  -0.09     0.00   0.00  -0.01    -0.00  -0.00   0.02
  52   6     0.06   0.03  -0.07     0.04  -0.01   0.00    -0.04   0.01   0.00
  53   6     0.03   0.05  -0.03     0.05  -0.03  -0.00    -0.06   0.01   0.01
  54   6     0.05   0.04   0.01     0.06  -0.02   0.02    -0.06   0.00  -0.03
  55   6     0.02  -0.01   0.05     0.03   0.02   0.04    -0.04  -0.01  -0.04
  56   6    -0.01  -0.03   0.04     0.00   0.03   0.03    -0.01  -0.02  -0.03
  57   6    -0.02  -0.01  -0.01    -0.00   0.01   0.01    -0.00  -0.01  -0.01
  58   6     0.00   0.03  -0.04     0.03  -0.02  -0.01    -0.03   0.01   0.01
  59   6     0.00  -0.06   0.05     0.04  -0.04   0.02    -0.02   0.06  -0.01
  60   1     0.00  -0.03   0.09     0.01  -0.01   0.01    -0.01   0.01  -0.01
  61   1     0.03   0.01  -0.02    -0.01  -0.02  -0.08     0.02   0.00   0.02
  62   1     0.04  -0.01   0.01    -0.02  -0.05  -0.18     0.01  -0.02  -0.02
  63   1     0.02  -0.02   0.04    -0.01  -0.03  -0.09     0.01  -0.03  -0.05
  64   1    -0.00  -0.01   0.03     0.00   0.01   0.08     0.01  -0.02  -0.01
  65   1    -0.02  -0.00   0.01     0.00   0.02   0.09     0.02   0.01   0.04
  66   1    -0.03   0.02   0.02    -0.02  -0.02  -0.08     0.02  -0.00   0.01
  67   1    -0.03   0.03   0.00    -0.03  -0.04  -0.19     0.02  -0.02  -0.04
  68   1    -0.01   0.03  -0.02    -0.02  -0.02  -0.09     0.01  -0.02  -0.03
  69   1    -0.05  -0.04  -0.00    -0.00   0.00  -0.01    -0.06   0.00   0.08
  70   1    -0.03  -0.06   0.01    -0.01   0.00  -0.00    -0.09   0.00   0.15
  71   1     0.00  -0.05   0.01    -0.01   0.00   0.02    -0.03  -0.00   0.04
  72   1     0.02  -0.02  -0.00    -0.00   0.01   0.01     0.04  -0.00  -0.10
  73   1     0.02   0.01  -0.02     0.02   0.01  -0.01     0.01  -0.00  -0.04
  74   1     0.01   0.03  -0.01     0.02   0.03  -0.02    -0.07   0.00   0.11
  75   1    -0.03   0.03   0.01    -0.00   0.03  -0.00    -0.09   0.00   0.16
  76   1    -0.05   0.02   0.02    -0.02   0.02   0.01    -0.05   0.00   0.08
  77   1     0.00  -0.02   0.06     0.01  -0.01  -0.00    -0.00   0.01   0.01
  78   1     0.01   0.02  -0.01     0.01  -0.01  -0.01     0.01   0.01  -0.01
  79   1    -0.01   0.02   0.01    -0.01  -0.01   0.01     0.04   0.00  -0.03
  80   1    -0.01   0.02   0.01    -0.03  -0.00   0.01     0.05  -0.01  -0.03
  81   1     0.01   0.01  -0.00    -0.01   0.00   0.01     0.03  -0.01  -0.02
  82   1     0.02   0.01  -0.01     0.01  -0.00  -0.00    -0.00  -0.00  -0.00
  83   1     0.01   0.01  -0.00     0.02  -0.00  -0.02    -0.03  -0.00   0.02
  84   1     0.00  -0.01  -0.01     0.00   0.01  -0.02    -0.00  -0.01   0.02
  85   1     0.01  -0.02  -0.03    -0.01   0.00  -0.02     0.01  -0.00   0.02
  86   1     0.02  -0.00  -0.03    -0.01   0.00   0.00     0.01  -0.00   0.00
  87   1     0.02   0.02  -0.02     0.01  -0.01   0.01    -0.01   0.00  -0.01
  88   1     0.02   0.02   0.01     0.02  -0.01   0.01    -0.03   0.00  -0.01
  89   1     0.01  -0.01   0.02     0.01   0.01   0.02    -0.01  -0.01  -0.02
  90   1    -0.01  -0.02   0.02    -0.01   0.02   0.01     0.00  -0.01  -0.01
  91   1    -0.01  -0.01  -0.00    -0.01   0.01  -0.00     0.01  -0.00   0.00
  92   1    -0.00   0.01  -0.02     0.01  -0.01  -0.01    -0.01   0.01   0.01
  93   1    -0.00  -0.01  -0.02     0.01  -0.01   0.00    -0.01   0.02  -0.00
                     22                     23                     24
                        a                      a                      a 
 Frequencies --   118.8729               128.3552               137.3986
 Red. masses --    11.6709                11.9586                10.3341
 Frc consts  --     0.0000                 0.0000                 0.0000
 IR Inten    --    10.0253                 2.2175                 8.3489
 Raman Activ --     0.0000                 0.0000                 0.0000
 Depolar     --     0.0000                 0.0000                 0.0000
 Atom AN      X      Y      Z        X      Y      Z        X      Y      Z
   1   7    -0.24  -0.00  -0.13    -0.06  -0.06   0.36     0.04   0.01  -0.06
   2   6    -0.01  -0.04   0.02     0.00   0.02  -0.10    -0.00   0.00   0.02
   3   6     0.08  -0.07   0.11     0.02   0.06  -0.34    -0.02  -0.00   0.05
   4   6     0.06  -0.03   0.09     0.02   0.03  -0.13    -0.01  -0.01  -0.00
   5   6     0.01  -0.01   0.05     0.00   0.01   0.04    -0.00  -0.00  -0.04
   6   6    -0.01   0.04   0.02    -0.01   0.00   0.20     0.01  -0.02  -0.08
   7   7    -0.07  -0.01  -0.03    -0.02  -0.01   0.20     0.03   0.01  -0.04
   8   6    -0.06  -0.03  -0.02    -0.01  -0.00  -0.00     0.01   0.02  -0.01
   9   7    -0.11  -0.10  -0.11    -0.02  -0.01  -0.01     0.03   0.07   0.05
  10   6    -0.13  -0.07  -0.11    -0.02  -0.02  -0.05     0.01   0.05  -0.03
  11   6    -0.20  -0.03  -0.07    -0.03  -0.03  -0.09    -0.02   0.00  -0.24
  12   6    -0.20   0.07   0.08    -0.03  -0.01  -0.01    -0.01   0.03  -0.17
  13   6    -0.16   0.12   0.14    -0.01   0.02   0.10     0.02   0.10   0.14
  14   6    -0.10   0.07   0.03    -0.01   0.02   0.08     0.04   0.12   0.24
  15   6    -0.10  -0.04  -0.10    -0.02  -0.01  -0.01     0.02   0.07   0.08
  16   6    -0.08  -0.06  -0.10    -0.01  -0.01  -0.02     0.00   0.06   0.04
  17   6    -0.05  -0.04  -0.04    -0.01  -0.02  -0.08    -0.10  -0.02  -0.24
  18   6    -0.03  -0.03   0.07     0.00  -0.03  -0.06    -0.16   0.01  -0.29
  19   6    -0.03  -0.05   0.10     0.01  -0.01   0.04    -0.10   0.14   0.07
  20   6    -0.06  -0.07   0.01     0.00  -0.01   0.08    -0.01   0.20   0.29
  21   6    -0.09  -0.08  -0.08    -0.01  -0.01   0.02     0.02   0.11   0.15
  22   7    -0.01  -0.04   0.04    -0.00   0.02  -0.23     0.04   0.01  -0.00
  23   6     0.04   0.03  -0.00    -0.01   0.01  -0.01     0.03  -0.03  -0.02
  24   7     0.11   0.03  -0.08    -0.00   0.02  -0.06     0.06  -0.04   0.01
  25   6     0.10   0.06  -0.08     0.01   0.01  -0.07     0.07  -0.04  -0.04
  26   6     0.07   0.12   0.01     0.01  -0.01  -0.09     0.08  -0.05  -0.04
  27   6    -0.03   0.16   0.13    -0.02  -0.02  -0.00     0.03  -0.04   0.04
  28   6    -0.06   0.15   0.12    -0.05  -0.01   0.09    -0.01  -0.04   0.11
  29   6     0.00   0.10  -0.03    -0.03   0.00   0.05     0.01  -0.05   0.05
  30   6     0.09   0.05  -0.11     0.01   0.01  -0.04     0.06  -0.05  -0.04
  31   6     0.09   0.03  -0.11     0.01   0.02  -0.04     0.05  -0.06  -0.04
  32   6     0.06   0.03  -0.05     0.03   0.03  -0.06     0.02  -0.10  -0.09
  33   6    -0.01   0.03   0.09     0.00   0.04  -0.02    -0.01  -0.16  -0.01
  34   6    -0.03   0.03   0.15    -0.04   0.04   0.05    -0.03  -0.17   0.11
  35   6     0.02   0.03   0.07    -0.05   0.03   0.05     0.01  -0.13   0.12
  36   6     0.08   0.03  -0.05    -0.02   0.02  -0.01     0.04  -0.07   0.02
  37   7     0.02   0.05   0.01    -0.02   0.00   0.27     0.03  -0.02  -0.10
  38   6     0.01  -0.03   0.02     0.00  -0.01   0.05    -0.00   0.01  -0.04
  39   6     0.04  -0.08   0.05     0.01   0.02  -0.20    -0.01   0.01   0.03
  40  14     0.13  -0.05  -0.04     0.05  -0.05   0.05    -0.04   0.02   0.00
  41   6     0.12  -0.05  -0.06     0.02  -0.03   0.04    -0.01   0.01  -0.00
  42   6     0.08  -0.05  -0.05     0.01  -0.06   0.03     0.00   0.02  -0.01
  43   6    -0.01  -0.04   0.00    -0.01  -0.06  -0.01     0.02   0.01  -0.01
  44   6    -0.06  -0.02   0.04     0.00  -0.03  -0.03     0.02   0.01  -0.01
  45   6     0.01  -0.02  -0.00     0.02  -0.00  -0.02     0.01   0.00  -0.01
  46   6     0.09  -0.03  -0.05     0.03  -0.01   0.02    -0.01   0.01  -0.00
  47   6     0.10  -0.00  -0.02     0.06  -0.02   0.04    -0.04   0.01  -0.00
  48   6     0.10   0.01  -0.05     0.04  -0.00  -0.01    -0.04  -0.00   0.02
  49   6     0.04   0.01  -0.08    -0.02   0.02  -0.04    -0.01  -0.01   0.03
  50   6    -0.01  -0.01  -0.08    -0.06   0.03  -0.00     0.02  -0.01   0.02
  51   6     0.01  -0.01  -0.04    -0.03   0.02   0.06     0.00  -0.00  -0.00
  52   6     0.08  -0.01  -0.01     0.03  -0.01   0.07    -0.03   0.00  -0.01
  53   6     0.08  -0.04  -0.01     0.02  -0.02   0.05    -0.03   0.02  -0.01
  54   6     0.09  -0.02   0.03     0.01  -0.01   0.03    -0.03   0.02  -0.01
  55   6     0.05   0.02   0.06     0.03   0.01   0.02    -0.02  -0.01  -0.02
  56   6     0.00   0.05   0.04     0.05   0.02   0.02    -0.01  -0.02  -0.01
  57   6     0.00   0.02   0.00     0.06   0.01   0.04    -0.01  -0.01  -0.01
  58   6     0.04  -0.03  -0.02     0.04  -0.01   0.06    -0.02   0.02  -0.00
  59   6     0.06  -0.09   0.12     0.01   0.07  -0.46    -0.01  -0.00   0.08
  60   1     0.02   0.00   0.02     0.01   0.01  -0.01    -0.00  -0.00  -0.00
  61   1    -0.07  -0.02  -0.03    -0.01  -0.02  -0.05    -0.01  -0.01  -0.12
  62   1    -0.07   0.03   0.04    -0.01  -0.00  -0.01    -0.01  -0.00  -0.09
  63   1    -0.04   0.06   0.08    -0.00   0.01   0.05     0.01   0.04   0.08
  64   1    -0.01   0.04   0.02     0.00   0.01   0.04     0.02   0.05   0.12
  65   1    -0.01  -0.01  -0.01    -0.00  -0.01  -0.04    -0.04  -0.04  -0.13
  66   1     0.00  -0.00   0.04     0.00  -0.01  -0.03    -0.07  -0.02  -0.16
  67   1    -0.00  -0.01   0.06     0.01  -0.00   0.02    -0.03   0.05   0.04
  68   1    -0.02  -0.02   0.01     0.00  -0.00   0.04     0.01   0.09   0.14
  69   1     0.03   0.04   0.01     0.01  -0.00  -0.04     0.03  -0.01  -0.03
  70   1    -0.02   0.06   0.07    -0.01  -0.01   0.00     0.01  -0.01   0.02
  71   1    -0.04   0.05   0.06    -0.02  -0.01   0.05    -0.02  -0.01   0.06
  72   1    -0.01   0.02  -0.01    -0.01   0.00   0.03    -0.00  -0.01   0.03
  73   1     0.02   0.01  -0.02     0.02   0.01  -0.03     0.00  -0.03  -0.05
  74   1    -0.02   0.01   0.05     0.01   0.01  -0.01    -0.01  -0.05  -0.01
  75   1    -0.03   0.01   0.08    -0.02   0.01   0.03    -0.02  -0.06   0.05
  76   1    -0.00   0.01   0.03    -0.03   0.01   0.03     0.01  -0.04   0.06
  77   1    -0.00  -0.01  -0.01     0.00  -0.01   0.08     0.00   0.00  -0.02
  78   1     0.03  -0.02  -0.02     0.00  -0.03   0.01     0.00   0.01  -0.00
  79   1    -0.01  -0.01   0.01    -0.01  -0.02  -0.01     0.01   0.01  -0.01
  80   1    -0.04  -0.00   0.02    -0.00  -0.01  -0.02     0.01   0.00  -0.00
  81   1    -0.01  -0.00   0.00     0.01   0.01  -0.01     0.00  -0.00  -0.00
  82   1     0.04  -0.01  -0.02     0.01   0.01   0.01    -0.01   0.00  -0.00
  83   1     0.04   0.01  -0.02     0.02  -0.00  -0.01    -0.02  -0.00   0.01
  84   1     0.01   0.00  -0.03    -0.01   0.01  -0.02     0.00  -0.00   0.01
  85   1    -0.02  -0.00  -0.03    -0.03   0.01  -0.01     0.01  -0.00   0.01
  86   1    -0.01  -0.00  -0.01    -0.02   0.01   0.02     0.01  -0.00  -0.00
  87   1     0.03  -0.00   0.00     0.01  -0.01   0.03    -0.01   0.00  -0.01
  88   1     0.04  -0.01   0.01     0.00  -0.00   0.01    -0.01   0.01  -0.01
  89   1     0.02   0.01   0.03     0.01   0.00  -0.00    -0.01  -0.00  -0.01
  90   1    -0.01   0.03   0.02     0.02   0.01   0.00    -0.00  -0.01  -0.00
  91   1    -0.01   0.01  -0.00     0.02   0.01   0.01    -0.00  -0.00  -0.00
  92   1     0.01  -0.02  -0.01     0.01  -0.00   0.02    -0.01   0.01  -0.00
  93   1     0.02  -0.03   0.04     0.00   0.03  -0.18    -0.00  -0.00   0.04
                     25                     26                     27
                        a                      a                      a 
 Frequencies --   139.8285               151.8423               155.4330
 Red. masses --    10.4975                10.3899                10.4512
 Frc consts  --     0.0000                 0.0000                 0.0000
 IR Inten    --     5.1311                 5.9058                 2.9285
 Raman Activ --     0.0000                 0.0000                 0.0000
 Depolar     --     0.0000                 0.0000                 0.0000
 Atom AN      X      Y      Z        X      Y      Z        X      Y      Z
   1   7    -0.05   0.00   0.05    -0.01   0.06  -0.02    -0.05  -0.06   0.02
   2   6     0.01   0.01  -0.02     0.02   0.04   0.02     0.01  -0.05  -0.02
   3   6     0.03   0.01  -0.05     0.03   0.04   0.03     0.03  -0.05  -0.04
   4   6     0.02   0.01   0.02     0.03   0.04  -0.00     0.02  -0.04  -0.03
   5   6     0.00   0.01   0.04     0.02   0.04  -0.02     0.01  -0.04   0.01
   6   6    -0.01   0.02   0.08     0.03   0.02  -0.02     0.00  -0.01   0.00
   7   7    -0.01   0.03   0.07     0.01  -0.00  -0.05     0.01  -0.00  -0.02
   8   6    -0.01   0.03   0.02     0.01  -0.02  -0.05     0.00  -0.00   0.00
   9   7    -0.01   0.07  -0.03    -0.01  -0.07  -0.03     0.00  -0.01  -0.02
  10   6    -0.02   0.08   0.01    -0.01  -0.09  -0.10    -0.00  -0.01  -0.02
  11   6    -0.03   0.09   0.03    -0.03  -0.13  -0.23    -0.01  -0.02  -0.04
  12   6    -0.04   0.09  -0.01    -0.02  -0.10  -0.12    -0.00  -0.01  -0.02
  13   6    -0.05   0.07  -0.07     0.01  -0.02   0.16     0.00   0.00   0.03
  14   6    -0.04   0.07  -0.05     0.03  -0.01   0.21     0.01   0.00   0.03
  15   6    -0.03   0.06   0.01     0.01  -0.06   0.01     0.00  -0.01  -0.01
  16   6    -0.04   0.07   0.02     0.02  -0.06  -0.01     0.00  -0.01  -0.01
  17   6    -0.11   0.06   0.07     0.06  -0.08  -0.14     0.00  -0.01  -0.01
  18   6    -0.16   0.10   0.03     0.10  -0.11  -0.11     0.00  -0.01  -0.00
  19   6    -0.16   0.11  -0.06     0.12  -0.09   0.10     0.01  -0.01   0.01
  20   6    -0.10   0.12  -0.08     0.07  -0.09   0.16     0.00  -0.01   0.01
  21   6    -0.04   0.08  -0.03     0.01  -0.07   0.04     0.00  -0.01  -0.01
  22   7     0.02   0.02   0.03    -0.00   0.01  -0.10    -0.00  -0.00   0.04
  23   6     0.02  -0.01   0.02    -0.00   0.02   0.00    -0.00   0.00   0.01
  24   7     0.08  -0.02  -0.06    -0.09   0.04   0.09     0.01   0.01  -0.01
  25   6     0.04  -0.04   0.02    -0.13   0.04   0.16     0.00   0.02   0.01
  26   6    -0.05  -0.07   0.17    -0.20   0.03   0.27    -0.01   0.04   0.04
  27   6    -0.01  -0.09   0.13    -0.10   0.02   0.09    -0.01   0.05   0.03
  28   6     0.11  -0.09  -0.09     0.07   0.02  -0.22     0.00   0.05  -0.03
  29   6     0.15  -0.07  -0.16     0.07   0.03  -0.22     0.01   0.03  -0.05
  30   6     0.07  -0.04  -0.06    -0.07   0.04   0.05     0.01   0.02  -0.01
  31   6     0.05  -0.04  -0.04    -0.07   0.05   0.06     0.01   0.01  -0.00
  32   6    -0.14  -0.09   0.20    -0.08   0.07   0.14    -0.00   0.03   0.05
  33   6    -0.14  -0.16   0.23    -0.04   0.10   0.05    -0.00   0.04   0.05
  34   6     0.07  -0.18  -0.10     0.04   0.10  -0.13     0.03   0.04  -0.02
  35   6     0.23  -0.14  -0.29     0.02   0.08  -0.15     0.03   0.03  -0.06
  36   6     0.13  -0.05  -0.15    -0.05   0.04   0.01     0.02   0.01  -0.03
  37   7     0.00   0.02   0.07     0.00   0.02   0.05    -0.00  -0.01   0.01
  38   6     0.00   0.01   0.01     0.03   0.05  -0.02     0.00  -0.07   0.06
  39   6     0.01   0.00  -0.05     0.04   0.05   0.02     0.00  -0.07   0.03
  40  14     0.04  -0.03   0.01     0.01  -0.00  -0.01     0.04  -0.02   0.02
  41   6     0.02  -0.02   0.01    -0.06   0.01   0.01     0.10  -0.02   0.15
  42   6     0.00  -0.03   0.01    -0.05   0.03   0.01     0.04  -0.11   0.09
  43   6    -0.02  -0.02   0.01    -0.00   0.02   0.01    -0.03  -0.10  -0.03
  44   6    -0.03  -0.01   0.01     0.02  -0.01   0.00    -0.05   0.02  -0.08
  45   6    -0.01  -0.01   0.01    -0.01  -0.02   0.01     0.00   0.12  -0.02
  46   6     0.01  -0.01   0.01    -0.05  -0.01   0.01     0.08   0.09   0.10
  47   6     0.04  -0.01   0.01     0.02  -0.00  -0.00    -0.22  -0.19  -0.13
  48   6     0.04   0.00  -0.02     0.02   0.00  -0.01    -0.19  -0.15  -0.14
  49   6     0.00   0.01  -0.03     0.01   0.01  -0.02     0.01   0.01  -0.01
  50   6    -0.02   0.01  -0.02    -0.00   0.00  -0.02     0.17   0.12   0.13
  51   6    -0.01   0.00   0.01    -0.00  -0.00  -0.01    -0.00   0.00   0.05
  52   6     0.03  -0.01   0.02     0.01  -0.00  -0.00    -0.20  -0.16  -0.08
  53   6     0.02  -0.03   0.01     0.03  -0.07  -0.00     0.02   0.32  -0.08
  54   6     0.02  -0.02   0.02     0.03  -0.06   0.01     0.04   0.28  -0.02
  55   6     0.02   0.01   0.02     0.01   0.01   0.01     0.04  -0.01   0.07
  56   6     0.02   0.02   0.01    -0.01   0.06  -0.00     0.01  -0.24   0.08
  57   6     0.02   0.01   0.01    -0.01   0.00  -0.01    -0.04  -0.03  -0.02
  58   6     0.02  -0.02   0.02     0.02  -0.06  -0.01    -0.04   0.26  -0.10
  59   6     0.02   0.01  -0.10     0.04   0.04   0.06     0.02  -0.06  -0.02
  60   1     0.01   0.00   0.02     0.01   0.01  -0.00     0.01  -0.01  -0.02
  61   1    -0.01   0.03   0.02    -0.02  -0.05  -0.10    -0.00  -0.01  -0.02
  62   1    -0.01   0.03  -0.00    -0.01  -0.04  -0.06    -0.00  -0.00  -0.01
  63   1    -0.02   0.02  -0.03     0.01   0.01   0.09     0.00   0.00   0.02
  64   1    -0.01   0.02  -0.02     0.01   0.01   0.12     0.00   0.00   0.02
  65   1    -0.03   0.00   0.04     0.02  -0.02  -0.08     0.00  -0.00  -0.01
  66   1    -0.06   0.03   0.02     0.03  -0.04  -0.06     0.00  -0.00  -0.00
  67   1    -0.06   0.04  -0.03     0.04  -0.03   0.05     0.00  -0.00   0.01
  68   1    -0.02   0.05  -0.04     0.02  -0.03   0.08     0.00  -0.00   0.01
  69   1    -0.04  -0.02   0.08    -0.08   0.01   0.12    -0.00   0.01   0.02
  70   1    -0.02  -0.03   0.07    -0.04   0.01   0.04    -0.01   0.02   0.01
  71   1     0.05  -0.03  -0.05     0.06   0.00  -0.13     0.00   0.02  -0.01
  72   1     0.07  -0.02  -0.08     0.05   0.01  -0.12     0.00   0.01  -0.03
  73   1    -0.09  -0.02   0.11    -0.03   0.02   0.07    -0.00   0.01   0.03
  74   1    -0.09  -0.05   0.13    -0.02   0.03   0.03    -0.01   0.01   0.03
  75   1     0.03  -0.06  -0.04     0.03   0.03  -0.07     0.01   0.02  -0.01
  76   1     0.11  -0.05  -0.13     0.01   0.03  -0.07     0.01   0.01  -0.03
  77   1    -0.00   0.00   0.01     0.01   0.02  -0.01    -0.00  -0.02   0.03
  78   1     0.00  -0.01   0.00    -0.02   0.01   0.00     0.02  -0.06   0.04
  79   1    -0.01  -0.01   0.00     0.00   0.01   0.00    -0.02  -0.05  -0.02
  80   1    -0.01  -0.00   0.01     0.02  -0.00  -0.00    -0.03   0.01  -0.05
  81   1    -0.01   0.00   0.00     0.00  -0.01   0.00    -0.00   0.06  -0.02
  82   1     0.01  -0.00   0.00    -0.02  -0.01   0.00     0.04   0.05   0.04
  83   1     0.02   0.00  -0.01     0.01   0.00  -0.00    -0.07  -0.06  -0.06
  84   1    -0.00   0.00  -0.01     0.00   0.00  -0.01     0.03   0.02   0.00
  85   1    -0.02   0.00  -0.01    -0.01  -0.00  -0.01     0.12   0.08   0.08
  86   1    -0.01   0.00   0.01    -0.00  -0.00  -0.00     0.02   0.02   0.04
  87   1     0.01  -0.00   0.01     0.01  -0.00   0.00    -0.08  -0.07  -0.03
  88   1     0.01  -0.01   0.01     0.01  -0.02   0.00     0.02   0.11  -0.00
  89   1     0.00   0.00   0.00     0.00   0.01   0.00     0.02  -0.03   0.04
  90   1     0.00   0.01   0.00    -0.01   0.04  -0.00     0.01  -0.16   0.04
  91   1     0.00   0.00   0.00    -0.01   0.01  -0.00    -0.02  -0.04  -0.01
  92   1     0.01  -0.01   0.01     0.01  -0.03  -0.00    -0.02   0.11  -0.05
  93   1     0.01   0.00  -0.04     0.01   0.01   0.03     0.01  -0.02  -0.01
                     28                     29                     30
                        a                      a                      a 
 Frequencies --   162.1584               163.2424               169.5374
 Red. masses --    10.8522                12.5641                10.6572
 Frc consts  --     0.0000                 0.0000                 0.0000
 IR Inten    --     1.5200                 8.8944                 1.7735
 Raman Activ --     0.0000                 0.0000                 0.0000
 Depolar     --     0.0000                 0.0000                 0.0000
 Atom AN      X      Y      Z        X      Y      Z        X      Y      Z
   1   7     0.01   0.06   0.13     0.04  -0.03   0.03    -0.01  -0.04   0.13
   2   6     0.02   0.08  -0.04    -0.02  -0.01  -0.02    -0.00  -0.01  -0.07
   3   6     0.05   0.08  -0.08    -0.03  -0.01  -0.04    -0.01   0.00  -0.13
   4   6     0.05   0.07  -0.17    -0.02  -0.05   0.06    -0.01   0.03  -0.25
   5   6     0.05   0.03   0.04     0.00  -0.05   0.06    -0.01  -0.01  -0.00
   6   6     0.05   0.02  -0.02     0.01  -0.04   0.05    -0.01   0.00   0.02
   7   7     0.03   0.01  -0.16     0.04   0.02  -0.05    -0.00   0.01  -0.07
   8   6     0.01  -0.00   0.01     0.03   0.00   0.18    -0.00  -0.00  -0.02
[...]
  41   6    -0.00  -0.00  -0.00     0.00  -0.00  -0.00     0.00  -0.00  -0.00
  42   6    -0.00  -0.00  -0.00    -0.00  -0.00  -0.00    -0.00  -0.00  -0.00
  43   6    -0.00   0.00  -0.00    -0.00   0.00  -0.00    -0.00   0.00  -0.00
  44   6     0.00   0.00   0.00    -0.00  -0.00  -0.00    -0.00  -0.00  -0.00
  45   6     0.00   0.00   0.00     0.00   0.00   0.00     0.00   0.00   0.00
  46   6    -0.00   0.00  -0.00     0.00  -0.00   0.00     0.00  -0.00   0.00
  47   6     0.00   0.00  -0.00     0.00  -0.00  -0.00     0.00   0.00  -0.00
  48   6    -0.00   0.00  -0.00     0.00  -0.00   0.00    -0.00   0.00  -0.00
  49   6    -0.00   0.00   0.00    -0.00   0.00   0.00    -0.00   0.00   0.00
  50   6    -0.00  -0.00   0.00    -0.00  -0.00   0.00    -0.00  -0.00   0.00
  51   6     0.00  -0.00   0.00    -0.00   0.00  -0.00     0.00  -0.00   0.00
  52   6    -0.00   0.00   0.00    -0.00   0.00   0.00     0.00  -0.00  -0.00
  53   6     0.00   0.00   0.00    -0.00  -0.00  -0.00     0.00  -0.00  -0.00
  54   6    -0.00   0.00   0.00     0.00  -0.00  -0.00    -0.00   0.00   0.00
  55   6    -0.00  -0.00   0.00     0.00   0.00  -0.00    -0.00  -0.00   0.00
  56   6    -0.00  -0.00  -0.00     0.00   0.00   0.00    -0.00  -0.00  -0.00
  57   6     0.00  -0.00  -0.00    -0.00   0.00   0.00     0.00  -0.00  -0.00
  58   6    -0.00  -0.00   0.00    -0.00  -0.00   0.00     0.00   0.00  -0.00
  59   6    -0.02  -0.01  -0.00     0.00   0.00   0.00    -0.00  -0.00  -0.00
  60   1    -0.79   0.52   0.13    -0.00   0.00   0.00     0.02  -0.01  -0.00
  61   1    -0.01   0.01  -0.00     0.04  -0.05   0.01    -0.08   0.09  -0.02
  62   1    -0.00  -0.00   0.00     0.07   0.20  -0.06    -0.10  -0.29   0.08
  63   1    -0.01  -0.00   0.00     0.31   0.06  -0.05    -0.43  -0.09   0.07
  64   1    -0.00   0.00  -0.00     0.20  -0.23   0.03    -0.27   0.30  -0.04
  65   1     0.02  -0.01  -0.00    -0.04   0.01   0.00     0.13  -0.04  -0.01
  66   1     0.00  -0.01   0.00    -0.03   0.11  -0.02     0.06  -0.25   0.05
  67   1     0.00   0.00  -0.00     0.08   0.08  -0.03    -0.18  -0.17   0.06
  68   1     0.05  -0.01  -0.00    -0.05   0.01   0.00     0.10  -0.03  -0.01
  69   1     0.00  -0.01   0.00     0.02  -0.10   0.02     0.02  -0.07   0.01
  70   1     0.00  -0.00   0.00    -0.29   0.09  -0.15    -0.19   0.06  -0.10
  71   1    -0.00  -0.00  -0.00    -0.32  -0.33  -0.15    -0.20  -0.21  -0.10
  72   1     0.00  -0.01   0.00     0.11  -0.49   0.06     0.06  -0.29   0.04
  73   1    -0.00  -0.01  -0.00    -0.02  -0.08  -0.01    -0.01  -0.02  -0.00
  74   1     0.00  -0.00   0.00    -0.02   0.02  -0.01    -0.03   0.04  -0.02
  75   1     0.00   0.00   0.00    -0.13  -0.03  -0.07    -0.13  -0.03  -0.07
  76   1    -0.00  -0.00  -0.00     0.02   0.06   0.01     0.02   0.08   0.01
  77   1    -0.01  -0.09  -0.02     0.00   0.01   0.00    -0.00   0.00   0.00
  78   1     0.00   0.00   0.00     0.00   0.00   0.00     0.00   0.00   0.00
  79   1     0.00  -0.00   0.00     0.00  -0.00   0.00     0.00  -0.00   0.00
  80   1    -0.00  -0.01  -0.00     0.00   0.00   0.00     0.00   0.00   0.00
  81   1    -0.00  -0.00  -0.00    -0.00  -0.00  -0.00    -0.00  -0.00  -0.00
  82   1     0.00  -0.00   0.00    -0.00   0.00  -0.00    -0.00   0.00  -0.00
  83   1     0.00  -0.00   0.00    -0.00   0.00  -0.00     0.00  -0.00   0.00
  84   1     0.00  -0.00  -0.00     0.00  -0.00  -0.00     0.00  -0.00  -0.00
  85   1     0.00   0.00  -0.00     0.00   0.00  -0.00     0.00   0.00  -0.00
  86   1    -0.00   0.00  -0.00     0.00  -0.00   0.00    -0.00   0.00  -0.00
  87   1     0.00  -0.00  -0.00     0.00  -0.00  -0.00    -0.00   0.00   0.00
  88   1     0.00  -0.00  -0.00    -0.00   0.00   0.00     0.00  -0.00  -0.00
  89   1     0.00   0.00  -0.00    -0.00  -0.00   0.00     0.00   0.00  -0.00
  90   1     0.00   0.00   0.00    -0.00  -0.00  -0.00     0.00   0.00   0.01
  91   1    -0.00   0.00   0.00     0.00  -0.00  -0.00    -0.00   0.00   0.00
  92   1     0.00   0.00  -0.00     0.00   0.00  -0.00    -0.00  -0.00   0.00
  93   1     0.07   0.03   0.01    -0.00  -0.00  -0.00     0.01   0.00   0.00
                    268                    269                    270
                        a                      a                      a 
 Frequencies --  3099.9312              3100.3180              3110.8496
 Red. masses --     1.8684                 1.8699                 1.8788
 Frc consts  --     0.0000                 0.0000                 0.0000
 IR Inten    --   242.9597                59.4709                28.4866
 Raman Activ --     0.0000                 0.0000                 0.0000
 Depolar     --     0.0000                 0.0000                 0.0000
 Atom AN      X      Y      Z        X      Y      Z        X      Y      Z
   1   7    -0.00   0.00   0.00    -0.00  -0.00  -0.00    -0.00  -0.00  -0.00
   2   6     0.00  -0.00  -0.00     0.00   0.00   0.00     0.00   0.00   0.00
   3   6     0.00  -0.00  -0.00    -0.00   0.00   0.00    -0.00   0.00  -0.00
   4   6     0.01  -0.00  -0.00    -0.00   0.00   0.00    -0.00   0.00   0.00
   5   6     0.00   0.00  -0.00    -0.00   0.00   0.00    -0.00   0.00   0.00
   6   6    -0.00  -0.00  -0.00    -0.00  -0.00  -0.00     0.00   0.00   0.00
   7   7    -0.00   0.00   0.00    -0.00   0.00   0.00     0.00   0.00  -0.00
   8   6    -0.00   0.00  -0.00     0.00  -0.00  -0.00     0.00  -0.00   0.00
   9   7    -0.00   0.00   0.00    -0.00   0.00  -0.00    -0.00  -0.00  -0.00
  10   6     0.00   0.00  -0.00    -0.00  -0.00   0.00    -0.00  -0.00   0.00
  11   6     0.00  -0.01   0.00    -0.01   0.01  -0.00    -0.00   0.00  -0.00
  12   6     0.01   0.03  -0.01    -0.01  -0.03   0.01     0.00   0.00  -0.00
  13   6     0.04   0.01  -0.01    -0.06  -0.01   0.01     0.00   0.00  -0.00
  14   6     0.04  -0.04   0.01    -0.05   0.05  -0.01     0.00  -0.00   0.00
  15   6    -0.00  -0.00   0.00     0.00   0.00  -0.00    -0.00  -0.00   0.00
  16   6     0.00   0.00  -0.00    -0.00  -0.00   0.00     0.00  -0.00   0.00
  17   6     0.10  -0.03  -0.00    -0.09   0.03   0.00     0.00  -0.00  -0.00
  18   6     0.03  -0.12   0.02    -0.02   0.10  -0.02     0.00  -0.00   0.00
  19   6    -0.07  -0.06   0.02     0.06   0.05  -0.02    -0.01  -0.01   0.00
  20   6     0.03  -0.01  -0.00    -0.03   0.01   0.00    -0.03   0.01   0.00
  21   6     0.00  -0.00   0.00    -0.00   0.00  -0.00    -0.00   0.00  -0.00
  22   7    -0.00   0.00  -0.00    -0.00   0.00   0.00     0.00  -0.00  -0.00
  23   6     0.00   0.00   0.00     0.00   0.00  -0.00    -0.00  -0.00   0.00
  24   7     0.00   0.00   0.00     0.00  -0.00   0.00     0.00   0.00  -0.00
  25   6    -0.00  -0.00  -0.00    -0.00  -0.00  -0.00    -0.00  -0.00  -0.00
  26   6     0.00  -0.00   0.00     0.00  -0.00   0.00     0.00  -0.02   0.00
  27   6    -0.00   0.00  -0.00    -0.02   0.01  -0.01     0.00  -0.00   0.00
  28   6    -0.01  -0.01  -0.00    -0.02  -0.02  -0.01     0.00   0.00   0.00
  29   6     0.00  -0.02   0.00     0.01  -0.04   0.00    -0.00  -0.00  -0.00
  30   6     0.00  -0.00   0.00     0.00  -0.00   0.00     0.00   0.00   0.00
  31   6    -0.00   0.00  -0.00    -0.00   0.00  -0.00    -0.00  -0.00  -0.00
  32   6    -0.02  -0.06  -0.01    -0.02  -0.07  -0.01    -0.00  -0.01  -0.00
  33   6     0.05  -0.06   0.03     0.05  -0.07   0.03     0.02  -0.03   0.01
  34   6     0.11   0.03   0.06     0.12   0.03   0.06     0.11   0.02   0.06
  35   6    -0.02  -0.08  -0.01    -0.02  -0.07  -0.01     0.07   0.23   0.04
  36   6     0.00  -0.00   0.00     0.00  -0.00   0.00    -0.01   0.01  -0.00
  37   7     0.00  -0.00   0.00     0.00  -0.00   0.00    -0.00   0.00  -0.00
  38   6     0.00   0.00   0.00     0.00   0.00   0.00     0.00   0.01   0.00
  39   6    -0.00   0.00   0.00    -0.00   0.00   0.00    -0.00   0.00   0.00
  40  14     0.00  -0.00  -0.00     0.00  -0.00  -0.00     0.00  -0.00  -0.00
  41   6    -0.00  -0.00  -0.00    -0.00   0.00  -0.00    -0.00  -0.00  -0.00
  42   6    -0.00  -0.00  -0.00     0.00   0.00   0.00    -0.00  -0.00  -0.00
  43   6     0.00   0.00  -0.00     0.00  -0.00   0.00    -0.00   0.00  -0.00
  44   6    -0.00  -0.01  -0.00    -0.00  -0.01  -0.00     0.00   0.00  -0.00
  45   6    -0.00  -0.00  -0.00    -0.00  -0.00  -0.00     0.00   0.00   0.00
  46   6     0.00  -0.00   0.00     0.00  -0.00   0.00     0.00  -0.00   0.00
  47   6    -0.00   0.00  -0.00    -0.00   0.00   0.00    -0.00   0.00  -0.00
  48   6    -0.00   0.00  -0.00     0.00  -0.00   0.00    -0.00   0.00  -0.00
  49   6    -0.00   0.00   0.00     0.00  -0.00  -0.00    -0.00   0.00   0.00
  50   6    -0.00  -0.00   0.00     0.00   0.00  -0.00    -0.00  -0.00   0.00
  51   6     0.00  -0.00   0.00    -0.00   0.00  -0.00     0.00  -0.00   0.00
  52   6     0.00  -0.00  -0.00    -0.00   0.00   0.00     0.00  -0.00  -0.00
  53   6     0.00   0.00   0.00    -0.00   0.00   0.00     0.00   0.00   0.00
  54   6    -0.00   0.00   0.00     0.00  -0.00  -0.00    -0.00   0.00   0.00
  55   6    -0.00  -0.00   0.00     0.00   0.00  -0.00    -0.00  -0.00   0.00
  56   6    -0.00  -0.00  -0.00     0.00   0.00   0.00    -0.00  -0.00  -0.00
  57   6     0.00  -0.00  -0.00    -0.00   0.00   0.00     0.00  -0.00  -0.00
  58   6     0.00   0.00  -0.00    -0.00  -0.00   0.00     0.00   0.00  -0.00
  59   6    -0.00  -0.00  -0.00     0.00   0.00   0.00    -0.00  -0.00  -0.00
  60   1    -0.02   0.01   0.00     0.00  -0.00  -0.00     0.00  -0.00  -0.00
  61   1    -0.02   0.02  -0.00     0.03  -0.03   0.01     0.00  -0.00   0.00
  62   1    -0.03  -0.08   0.02     0.04   0.11  -0.03    -0.00  -0.00   0.00
  63   1    -0.15  -0.03   0.02     0.19   0.04  -0.03    -0.00  -0.00   0.00
  64   1    -0.13   0.15  -0.02     0.16  -0.17   0.02    -0.00   0.00  -0.00
  65   1    -0.34   0.10   0.02     0.31  -0.09  -0.01    -0.01   0.00   0.00
  66   1    -0.10   0.38  -0.08     0.08  -0.33   0.07    -0.00   0.01  -0.00
  67   1     0.23   0.22  -0.08    -0.19  -0.18   0.07     0.02   0.02  -0.01
  68   1    -0.13   0.04   0.01     0.12  -0.03  -0.01     0.10  -0.03  -0.01
  69   1    -0.00   0.00  -0.00    -0.00   0.02  -0.00    -0.02   0.08  -0.01
  70   1     0.01  -0.00   0.01     0.07  -0.02   0.03    -0.01   0.00  -0.01
  71   1     0.02   0.02   0.01     0.08   0.08   0.04    -0.00  -0.00  -0.00
  72   1    -0.01   0.06  -0.01    -0.03   0.13  -0.02    -0.00   0.00  -0.00
  73   1     0.06   0.20   0.03     0.07   0.22   0.03     0.01   0.04   0.01
  74   1    -0.16   0.21  -0.09    -0.18   0.22  -0.10    -0.07   0.09  -0.04
  75   1    -0.40  -0.09  -0.22    -0.41  -0.09  -0.22    -0.36  -0.08  -0.20
  76   1     0.09   0.28   0.04     0.08   0.28   0.04    -0.24  -0.79  -0.13
  77   1    -0.00  -0.00   0.00    -0.00  -0.01  -0.00    -0.00  -0.03  -0.01
  78   1     0.01   0.00   0.01    -0.00  -0.00  -0.00     0.01   0.00   0.01
  79   1     0.00  -0.00   0.00    -0.00   0.01  -0.01     0.00  -0.01   0.01
  80   1     0.01   0.03   0.00     0.01   0.04   0.00     0.00   0.00   0.00
  81   1     0.00   0.00   0.00     0.01   0.00   0.01    -0.00  -0.00  -0.00
  82   1    -0.00   0.00  -0.00    -0.00   0.00  -0.00    -0.00   0.00  -0.00
  83   1     0.00  -0.00   0.00    -0.00   0.00  -0.00     0.00  -0.00   0.00
  84   1     0.00  -0.00  -0.00    -0.01   0.01   0.00     0.00  -0.00  -0.00
  85   1     0.00   0.00  -0.01    -0.01  -0.00   0.01     0.00   0.00  -0.00
  86   1    -0.00   0.00  -0.00     0.00  -0.01   0.01    -0.00   0.00  -0.00
  87   1    -0.00   0.00   0.00     0.00  -0.00  -0.00    -0.00   0.00   0.00
  88   1     0.00  -0.00  -0.00    -0.00   0.00   0.01     0.00  -0.00  -0.00
  89   1     0.01   0.00  -0.00    -0.01  -0.00   0.00     0.01   0.00  -0.00
  90   1     0.01   0.00   0.01    -0.01  -0.00  -0.01     0.00   0.00   0.00
  91   1    -0.00   0.00   0.00     0.00  -0.00  -0.01    -0.00   0.00   0.00
  92   1    -0.00  -0.00   0.00     0.00   0.00  -0.00    -0.00  -0.00   0.00
  93   1     0.01   0.00   0.00    -0.01  -0.00  -0.00     0.00   0.00   0.00
                    271                    272                    273
                        a                      a                      a 
 Frequencies --  3112.2013              3115.0774              3115.5991
 Red. masses --     1.8639                 1.8564                 1.8587
 Frc consts  --     0.0000                 0.0000                 0.0000
 IR Inten    --    23.5265                28.1366                20.8871
 Raman Activ --     0.0000                 0.0000                 0.0000
 Depolar     --     0.0000                 0.0000                 0.0000
 Atom AN      X      Y      Z        X      Y      Z        X      Y      Z
   1   7    -0.00  -0.00  -0.00    -0.00  -0.00  -0.00    -0.00   0.00   0.00
   2   6     0.00   0.00   0.00    -0.00   0.00   0.00     0.00  -0.00  -0.00
   3   6     0.00  -0.00  -0.00     0.00   0.00  -0.00    -0.00   0.00  -0.00
   4   6     0.01  -0.01  -0.00    -0.00   0.00   0.00     0.00  -0.00  -0.00
   5   6     0.00  -0.00  -0.00     0.00   0.00   0.00    -0.00  -0.00   0.00
   6   6     0.00   0.00  -0.00    -0.00  -0.00   0.00     0.00   0.00   0.00
   7   7     0.00  -0.00   0.00    -0.00  -0.00  -0.00     0.00   0.00  -0.00
   8   6    -0.00   0.00  -0.00    -0.00   0.00   0.00     0.00  -0.00   0.00
   9   7     0.00  -0.00   0.00     0.00  -0.00  -0.00    -0.00   0.00   0.00
  10   6    -0.00  -0.00   0.00     0.01   0.00  -0.00    -0.00  -0.00   0.00
  11   6    -0.03   0.03  -0.01     0.17  -0.19   0.04    -0.03   0.03  -0.01
  12   6     0.00   0.01  -0.00    -0.02  -0.06   0.02     0.00   0.01  -0.00
  13   6     0.00   0.00  -0.00    -0.02  -0.00   0.00     0.00   0.00  -0.00
  14   6     0.00  -0.00   0.00    -0.00   0.00  -0.00    -0.00   0.00  -0.00
  15   6     0.00  -0.00  -0.00    -0.00   0.00   0.00     0.00  -0.00   0.00
  16   6    -0.00   0.00  -0.00     0.00  -0.00  -0.00     0.00   0.00   0.00
  17   6    -0.01   0.00   0.00    -0.00   0.00  -0.00    -0.00   0.00   0.00
  18   6    -0.01   0.02  -0.00    -0.00   0.00  -0.00     0.00  -0.00   0.00
  19   6     0.06   0.06  -0.02     0.01   0.01  -0.00    -0.00  -0.00   0.00
  20   6     0.25  -0.07  -0.02     0.03  -0.01  -0.00    -0.02   0.00   0.00
  21   6     0.00  -0.01   0.00     0.00  -0.00   0.00    -0.00   0.00  -0.00
  22   7    -0.00   0.00   0.00     0.00   0.00  -0.00    -0.00  -0.00  -0.00
  23   6     0.00   0.00  -0.00     0.00  -0.00   0.00     0.00   0.00   0.00
  24   7    -0.00   0.00  -0.00     0.00   0.00   0.00    -0.00  -0.00  -0.00
  25   6    -0.00  -0.00  -0.00    -0.00  -0.00  -0.00    -0.01  -0.01  -0.00
  26   6     0.00  -0.01   0.00     0.01  -0.04   0.01     0.06  -0.25   0.04
  27   6     0.00  -0.00   0.00     0.01  -0.00   0.00     0.06  -0.02   0.03
  28   6    -0.00  -0.00  -0.00     0.00   0.00   0.00     0.01   0.01   0.00
  29   6     0.00  -0.00   0.00    -0.00  -0.00  -0.00    -0.00   0.00  -0.00
  30   6     0.00   0.00   0.00     0.00   0.00   0.00    -0.00   0.00   0.00
  31   6    -0.00  -0.00  -0.00    -0.00   0.00  -0.00     0.00  -0.00   0.00
  32   6    -0.00  -0.00  -0.00    -0.00  -0.00  -0.00     0.00   0.00   0.00
  33   6     0.00  -0.00   0.00     0.00  -0.00   0.00    -0.00   0.00  -0.00
  34   6     0.01   0.00   0.01     0.00   0.00   0.00    -0.01  -0.00  -0.00
  35   6     0.01   0.02   0.00    -0.00   0.00  -0.00    -0.01  -0.02  -0.00
  36   6    -0.00   0.00  -0.00     0.00  -0.00   0.00     0.00  -0.00   0.00
  37   7     0.00   0.00   0.00    -0.00   0.00  -0.00    -0.00   0.00   0.00
  38   6    -0.00  -0.00  -0.00    -0.00  -0.00  -0.00     0.00   0.00   0.00
  39   6     0.00  -0.00  -0.00     0.00  -0.00  -0.00    -0.00  -0.00  -0.00
  40  14    -0.00  -0.00   0.00    -0.00  -0.00   0.00     0.00   0.00   0.00
  41   6     0.00  -0.00  -0.00     0.00   0.00   0.00    -0.00   0.00   0.00
  42   6    -0.00  -0.00  -0.00     0.00   0.00   0.00     0.00   0.00   0.00
  43   6    -0.00   0.00  -0.00     0.00  -0.00   0.00     0.00  -0.00   0.00
  44   6     0.00   0.00  -0.00    -0.00  -0.00  -0.00    -0.00  -0.00  -0.00
  45   6     0.00   0.00   0.00    -0.00  -0.00  -0.00    -0.00  -0.00  -0.00
  46   6     0.00  -0.00   0.00     0.00  -0.00   0.00     0.00  -0.00   0.00
  47   6     0.00  -0.00   0.00     0.00  -0.00  -0.00    -0.00  -0.00   0.00
  48   6    -0.00   0.00  -0.00    -0.00   0.00   0.00     0.00  -0.00   0.00
  49   6    -0.00   0.00   0.00     0.00  -0.00  -0.00     0.00  -0.00  -0.00
  50   6    -0.00  -0.00   0.00     0.00   0.00  -0.00     0.00   0.00  -0.00
  51   6    -0.00   0.00  -0.00    -0.00   0.00  -0.00    -0.00   0.00  -0.00
  52   6    -0.00   0.00   0.00     0.00  -0.00  -0.00    -0.00   0.00   0.00
  53   6     0.00  -0.00  -0.00     0.00  -0.00  -0.00    -0.00  -0.00  -0.00
  54   6    -0.00   0.00   0.00     0.00  -0.00  -0.00     0.00  -0.00  -0.00
  55   6    -0.00  -0.00   0.00     0.00   0.00  -0.00     0.00   0.00  -0.00
  56   6    -0.00  -0.00  -0.00     0.00   0.00   0.00     0.00   0.00   0.00
  57   6    -0.00   0.00   0.00    -0.00   0.00   0.00    -0.00   0.00   0.00
  58   6    -0.00  -0.00   0.00    -0.00  -0.00   0.00    -0.00  -0.00   0.00
  59   6     0.00   0.00   0.00     0.00   0.00   0.00     0.00   0.00   0.00
  60   1    -0.04   0.03   0.01     0.00  -0.00   0.00    -0.00   0.00   0.00
  61   1     0.09  -0.10   0.02    -0.61   0.68  -0.12     0.10  -0.11   0.02
  62   1    -0.01  -0.03   0.01     0.06   0.18  -0.05    -0.01  -0.04   0.01
  63   1    -0.01  -0.00   0.00     0.06   0.01  -0.01    -0.01  -0.00   0.00
  64   1    -0.01   0.01  -0.00     0.01  -0.02   0.00     0.00  -0.00   0.00
  65   1     0.02  -0.01  -0.00     0.00  -0.00  -0.00     0.00  -0.00  -0.00
  66   1     0.02  -0.08   0.02     0.00  -0.01   0.00    -0.00   0.00  -0.00
  67   1    -0.18  -0.18   0.06    -0.02  -0.02   0.01     0.01   0.01  -0.00
  68   1    -0.86   0.25   0.06    -0.12   0.03   0.01     0.06  -0.02  -0.00
  69   1    -0.01   0.04  -0.01    -0.03   0.16  -0.03    -0.19   0.89  -0.14
  70   1    -0.01   0.00  -0.00    -0.02   0.01  -0.01    -0.17   0.05  -0.09
  71   1     0.00   0.00   0.00    -0.00  -0.00   0.00    -0.03  -0.04  -0.02
  72   1    -0.00   0.00  -0.00    -0.00   0.00  -0.00     0.00  -0.01   0.00
  73   1     0.00   0.01   0.00     0.00   0.00   0.00    -0.00  -0.00  -0.00
  74   1    -0.01   0.01  -0.01    -0.00   0.00  -0.00     0.01  -0.01   0.00
  75   1    -0.04  -0.01  -0.02    -0.00  -0.00  -0.00     0.03   0.01   0.02
  76   1    -0.03  -0.08  -0.01    -0.00  -0.00  -0.00     0.02   0.08   0.01
  77   1     0.00   0.01   0.00     0.00   0.00   0.00    -0.00  -0.00  -0.00
  78   1     0.00   0.00   0.00    -0.00  -0.00  -0.00    -0.00  -0.00  -0.00
  79   1     0.00  -0.00   0.00    -0.00   0.00  -0.00    -0.00   0.00  -0.00
  80   1    -0.00  -0.00  -0.00     0.00   0.00   0.00     0.00   0.00   0.00
  81   1    -0.00  -0.00  -0.00     0.00   0.00   0.00     0.00   0.00   0.00
  82   1     0.00  -0.00   0.00    -0.00   0.00  -0.00    -0.00   0.00  -0.00
  83   1     0.00  -0.00   0.00     0.00  -0.00  -0.00    -0.00   0.00  -0.00
  84   1     0.00  -0.00  -0.00    -0.00   0.00   0.00    -0.00   0.00   0.00
  85   1     0.00   0.00  -0.00    -0.00  -0.00   0.00    -0.00  -0.00   0.00
  86   1     0.00  -0.00   0.00     0.00  -0.00   0.00     0.00  -0.00   0.00
  87   1     0.00  -0.00  -0.00    -0.00   0.00   0.00     0.00  -0.00  -0.00
  88   1     0.00   0.00  -0.00    -0.00   0.00   0.00    -0.00   0.00   0.00
  89   1     0.00   0.00  -0.00    -0.00  -0.00   0.00    -0.00  -0.00   0.00
  90   1     0.00   0.00   0.00    -0.00  -0.00  -0.00    -0.00  -0.00  -0.00
  91   1     0.00  -0.00  -0.00     0.00  -0.00  -0.00     0.00  -0.00  -0.00
  92   1     0.00   0.00  -0.00     0.00   0.00  -0.00     0.00   0.00  -0.00
  93   1    -0.00  -0.00  -0.00    -0.00  -0.00  -0.00    -0.00  -0.00  -0.00
