      -----------------------------------------------------------      
     |                   =====================                   |     
     |                           x T B                           |     
     |                   =====================                   |     
     |                         S. Grimme                         |     
     |          Mulliken Center for Theoretical Chemistry        |     
     |                    University of Bonn                     |     
      -----------------------------------------------------------      

   * xtb version 6.7.1 (edcfbbe) compiled by 'albert@albert-system' on 2024-07-22

   xtb is free software: you can redistribute it and/or modify it under
   the terms of the GNU Lesser General Public License as published by
   the Free Software Foundation, either version 3 of the License, or
   (at your option) any later version.
   
   xtb is distributed in the hope that it will be useful,
   but WITHOUT ANY WARRANTY; without even the implied warranty of
   MERCHANTABILITY or FITNESS FOR A PARTICULAR PURPOSE.  See the
   GNU Lesser General Public License for more details.
   
   Cite this work as:
   * C. Bannwarth, E. Caldeweyher, S. Ehlert, A. Hansen, P. Pracht,
     J. Seibert, S. Spicher, S. Grimme, WIREs Comput. Mol. Sci., 2020, 11,
     e01493. DOI: 10.1002/wcms.1493
   
   for GFN2-xTB:
   * C. Bannwarth, S. Ehlert and S. Grimme., J. Chem. Theory Comput., 2019,
     15, 1652-1671. DOI: 10.1021/acs.jctc.8b01176
   for GFN1-xTB:
   * S. Grimme, C. Bannwarth, P. Shushkov, J. Chem. Theory Comput., 2017,
     13, 1989-2009. DOI: 10.1021/acs.jctc.7b00118
   for GFN0-xTB:
   * P. Pracht, E. Caldeweyher, S. Ehlert, S. Grimme, ChemRxiv, 2019, preprint.
     DOI: 10.26434/chemrxiv.8326202.v1
   for GFN-FF:
   * S. Spicher and S. Grimme, Angew. Chem. Int. Ed., 2020, 59, 15665-15673.
     DOI: 10.1002/anie.202004239
   
   for ALPB and GBSA implicit solvation:
   * S. Ehlert, M. Stahn, S. Spicher, S. Grimme, J. Chem. Theory Comput.,
     2021, 17, 4250-4261. DOI: 10.1021/acs.jctc.1c00471
   
   for ddCOSMO and CPCM-X implicit solvation:
   * M. Stahn, S. Ehlert, S. Grimme, J. Phys. Chem. A,
     2023, XX, XXXX-XXXX. DOI: 10.1021/acs.jpca.3c04382
   
   for DFT-D4:
   * E. Caldeweyher, C. Bannwarth and S. Grimme, J. Chem. Phys., 2017,
     147, 034112. DOI: 10.1063/1.4993215
   * E. Caldeweyher, S. Ehlert, A. Hansen, H. Neugebauer, S. Spicher,
     C. Bannwarth and S. Grimme, J. Chem. Phys., 2019, 150, 154122.
     DOI: 10.1063/1.5090222
   * E. Caldeweyher, J.-M. Mewes, S. Ehlert and S. Grimme, Phys. Chem. Chem. Phys.
     2020, 22, 8499-8512. DOI: 10.1039/D0CP00502A
   
   for sTDA-xTB:
   * S. Grimme and C. Bannwarth, J. Chem. Phys., 2016, 145, 054103.
     DOI: 10.1063/1.4959605
   
   in the mass-spec context:
   * V. Asgeirsson, C. Bauer and S. Grimme, Chem. Sci., 2017, 8, 4879.
     DOI: 10.1039/c7sc00601b
   * J. Koopman and S. Grimme, ACS Omega 2019, 4, 12, 15120-15133.
     DOI: 10.1021/acsomega.9b02011
   
   for metadynamics refer to:
   * S. Grimme, J. Chem. Theory Comput., 2019, 155, 2847-2862
     DOI: 10.1021/acs.jctc.9b00143
   
   for SPH calculations refer to:
   * S. Spicher and S. Grimme, J. Chem. Theory Comput., 2021, 17, 1701-1714
     DOI: 10.1021/acs.jctc.0c01306
   
   for ONIOM refer to:
   * C. Plett, A. Katbashev, S. Ehlert, S. Grimme, M. Bursch,
     Phys. Chem. Chem. Phys., 2023, 25, 17860-17868. DOI: 10.1039/D3CP02178E
   
   for DIPRO refer to:
   * J. Kohn, N. Gildemeister, S. Grimme, D. Fazzi, A. Hansen,
     J. Chem. Phys., 2023, just accepted.
   
   for PTB refer to:
   * S. Grimme, M. Mueller, A. Hansen, J. Chem. Phys., 2023, 158, 124111.
     DOI: 10.1063/5.0137838
   
   with help from (in alphabetical order)
   P. Atkinson, C. Bannwarth, F. Bohle, G. Brandenburg, E. Caldeweyher
   M. Checinski, S. Dohm, S. Ehlert, S. Ehrlich, I. Gerasimov, C. Hölzer
   A. Katbashev, J. Kohn, J. Koopman, C. Lavigne, S. Lehtola, F. März, M. Müller,
   F. Musil, H. Neugebauer, J. Pisarek, C. Plett, P. Pracht, F. Pultar,
   J. Seibert, P. Shushkov, S. Spicher, M. Stahn, M. Steiner, T. Strunk,
   J. Stückrath, T. Rose, and J. Unsleber
   
 * started run on 2025/08/24 at 08:15:41.165     
   ID    Z sym.   atoms
    1    6 C      1-4, 6-20, 22-25, 27-40, 42-51, 53-61
    2    7 N      5, 21, 26, 41, 52
    3    1 H      62-94

           -------------------------------------------------
          |                Calculation Setup                |
           -------------------------------------------------

          program call               : xtb data2507/gas/β-DI-DBP/β-DI-DBP_gas_S0_crest.xyz --gfn 2 --ohess vtight --parallel 40 --molden --ceasefiles --namespace data2507/gas/β-DI-DBP/β-DI-DBP_gas_S0_finalOpt
          calculation namespace      : data2507/gas/β-DI-DBP/β-DI-DBP_gas_S0_finalOpt
          coordinate file            : data2507/gas/β-DI-DBP/β-DI-DBP_gas_S0_crest.xyz
          omp threads                :                    40


           -------------------------------------------------
          |                 G F N 2 - x T B                 |
           -------------------------------------------------

        Reference                      10.1021/acs.jctc.8b01176
      * Hamiltonian:
        H0-scaling (s, p, d)           1.850000    2.230000    2.230000
        zeta-weighting                 0.500000
      * Dispersion:
        s8                             2.700000
        a1                             0.520000
        a2                             5.000000
        s9                             5.000000
      * Repulsion:
        kExp                           1.500000    1.000000
        rExp                           1.000000
      * Coulomb:
        alpha                          2.000000
        third order                    shell-resolved
        anisotropic                    true
        a3                             3.000000
        a5                             4.000000
        cn-shift                       1.200000
        cn-exp                         4.000000
        max-rad                        5.000000


          ...................................................
          :                      SETUP                      :
          :.................................................:
          :  # basis functions                 277          :
          :  # atomic orbitals                 277          :
          :  # shells                          155          :
          :  # electrons                       282          :
          :  max. iterations                   250          :
          :  Hamiltonian                  GFN2-xTB          :
          :  restarted?                      false          :
          :  GBSA solvation                  false          :
          :  PC potential                    false          :
          :  electronic temp.          300.0000000     K    :
          :  accuracy                    1.0000000          :
          :  -> integral cutoff          0.2500000E+02      :
          :  -> integral neglect         0.1000000E-07      :
          :  -> SCF convergence          0.1000000E-05 Eh   :
          :  -> wf. convergence          0.1000000E-03 e    :
          :  Broyden damping             0.4000000          :
          :  net charge                          0          :
          :  unpaired electrons                  0          :
          ...................................................

 iter      E             dE          RMSdq      gap      omega  full diag
   1   -154.1511784 -0.154151E+03  0.407E+00    1.71       0.0  T
   2   -154.2952504 -0.144072E+00  0.258E+00    1.47       1.0  T
   3   -154.2557875  0.394628E-01  0.125E+00    1.34       1.0  T
   4   -154.3226974 -0.669098E-01  0.361E-01    1.26       1.0  T
   5   -154.3365843 -0.138869E-01  0.132E-01    1.30       1.0  T
   6   -154.3383244 -0.174010E-02  0.514E-02    1.31       1.0  T
   7   -154.3385553 -0.230834E-03  0.193E-02    1.31       1.0  T
   8   -154.3385621 -0.687106E-05  0.109E-02    1.31       1.0  T
   9   -154.3385675 -0.534857E-05  0.258E-03    1.32       4.0  T
  10   -154.3385681 -0.575197E-06  0.933E-04    1.32      11.1  T
  11   -154.3385681 -0.567809E-07  0.327E-04    1.32      31.5  T

   *** convergence criteria satisfied after 11 iterations ***

         #    Occupation            Energy/Eh            Energy/eV
      -------------------------------------------------------------
         1        2.0000           -0.6745097             -18.3543
       ...           ...                  ...                  ...
       135        2.0000           -0.3877628             -10.5516
       136        2.0000           -0.3866664             -10.5217
       137        2.0000           -0.3857747             -10.4975
       138        2.0000           -0.3680304             -10.0146
       139        2.0000           -0.3491349              -9.5004
       140        2.0000           -0.3485312              -9.4840
       141        2.0000           -0.3468269              -9.4376 (HOMO)
       142                         -0.2984893              -8.1223 (LUMO)
       143                         -0.2638427              -7.1795
       144                         -0.2516348              -6.8473
       145                         -0.2434923              -6.6258
       146                         -0.2414507              -6.5702
       ...                                ...                  ...
       277                          0.7796349              21.2149
      -------------------------------------------------------------
                  HL-Gap            0.0483376 Eh            1.3153 eV
             Fermi-level           -0.3225510 Eh           -8.7771 eV

 SCC (total)                   0 d,  0 h,  0 min,  0.170 sec
 SCC setup                      ...        0 min,  0.001 sec (  0.451%)
 Dispersion                     ...        0 min,  0.005 sec (  2.687%)
 classical contributions        ...        0 min,  0.000 sec (  0.070%)
 integral evaluation            ...        0 min,  0.011 sec (  6.540%)
 iterations                     ...        0 min,  0.136 sec ( 80.190%)
 molecular gradient             ...        0 min,  0.015 sec (  8.625%)
 printout                       ...        0 min,  0.002 sec (  1.380%)

         :::::::::::::::::::::::::::::::::::::::::::::::::::::
         ::                     SUMMARY                     ::
         :::::::::::::::::::::::::::::::::::::::::::::::::::::
         :: total energy            -151.509626656812 Eh    ::
         :: gradient norm              0.000400166266 Eh/a0 ::
         :: HOMO-LUMO gap              1.315334207169 eV    ::
         ::.................................................::
         :: SCC energy              -154.338425782821 Eh    ::
         :: -> isotropic ES            0.025957002999 Eh    ::
         :: -> anisotropic ES          0.012164147924 Eh    ::
         :: -> anisotropic XC          0.089201095148 Eh    ::
         :: -> dispersion             -0.152908476587 Eh    ::
         :: repulsion energy           2.828799126009 Eh    ::
         :: add. restraining           0.000000000000 Eh    ::
         :: total charge               0.000000000005 e     ::
         :::::::::::::::::::::::::::::::::::::::::::::::::::::

      ----------------------------------------------------------- 
     |                   =====================                   |
     |                        A N C O P T                        |
     |                   =====================                   |
     |               Approximate Normal Coordinate               |
     |                Rational Function Optimizer                |
      ----------------------------------------------------------- 

Optimization log is written to '/dev/null'
      ----------------------------------------------------------- 
     |                   =====================                   |
     |                        A N C O P T                        |
     |                   =====================                   |
     |               Approximate Normal Coordinate               |
     |                Rational Function Optimizer                |
      ----------------------------------------------------------- 

          ...................................................
          :                      SETUP                      :
          :.................................................:
          :   optimization level         verytight          :
          :   max. optcycles                  1880          :
          :   ANC micro-cycles                  20          :
          :   degrees of freedom               276          :
          :.................................................:
          :   RF solver                   davidson          :
          :   write xtbopt.log                true          :
          :   linear?                        false          :
          :   energy convergence         0.1000000E-06 Eh   :
          :   grad. convergence          0.2000000E-03 Eh/α :
          :   maxmium RF displ.          1.0000000          :
          :   Hlow (freq-cutoff)         0.1000000E-01      :
          :   Hmax (freq-cutoff)         5.0000000          :
          :   S6 in model hess.         20.0000000          :
          ...................................................

generating ANC from exact Hessian ...
Using Lindh-Hessian (1995)
 Shifting diagonal of input Hessian by   9.920046807755647E-003
 Lowest  eigenvalues of input Hessian
    0.000000    0.000000    0.000000    0.000000    0.000000    0.000000
    0.010000    0.010030    0.010069    0.010198    0.010219    0.010819
    0.010864    0.011155    0.011178    0.011610    0.011778    0.011833
 Highest eigenvalues
    2.177986    2.179831    2.190045    2.206957    2.216724    2.262465
 

........................................................................
.............................. CYCLE    1 ..............................
........................................................................

 iter      E             dE          RMSdq      gap      omega  full diag
   1   -154.3385681 -0.154339E+03  0.158E-04    1.32       0.0  T
   2   -154.3385681 -0.602000E-09  0.102E-04    1.32     101.2  T
   3   -154.3385681 -0.688686E-09  0.524E-05    1.32     196.7  T
     SCC iter.                  ...        0 min,  0.038 sec
     gradient                   ...        0 min,  0.014 sec
 * total energy  :  -151.5096267 Eh     change       -0.4822709E-08 Eh
   gradient norm :     0.0003980 Eh/α   predicted     0.0000000E+00 (-100.00%)
   displ. norm   :     0.0091706 α      lambda       -0.8313201E-06
   maximum displ.:     0.0045285 α      in ANC's #5, #19, #2, ...

........................................................................
.............................. CYCLE    2 ..............................
........................................................................

 iter      E             dE          RMSdq      gap      omega  full diag
   1   -154.3385525 -0.154339E+03  0.266E-03    1.32       0.0  T
   2   -154.3385525 -0.263151E-08  0.157E-03    1.32       6.6  T
   3   -154.3385525  0.100088E-07  0.286E-04    1.32      36.1  T
   4   -154.3385525 -0.112837E-07  0.537E-05    1.32     191.9  T
     SCC iter.                  ...        0 min,  0.045 sec
     gradient                   ...        0 min,  0.015 sec
 * total energy  :  -151.5096274 Eh     change       -0.7678700E-06 Eh
   gradient norm :     0.0001860 Eh/α   predicted    -0.4223912E-06 ( -44.99%)
   displ. norm   :     0.0149315 α      lambda       -0.6498240E-06
   maximum displ.:     0.0080374 α      in ANC's #5, #9, #2, ...

........................................................................
.............................. CYCLE    3 ..............................
........................................................................

 iter      E             dE          RMSdq      gap      omega  full diag
   1   -154.3385370 -0.154339E+03  0.329E-03    1.32       0.0  T
   2   -154.3385370 -0.412604E-08  0.192E-03    1.32       5.4  T
   3   -154.3385369  0.164735E-07  0.359E-04    1.32      28.7  T
   4   -154.3385370 -0.185545E-07  0.658E-05    1.32     156.7  T
     SCC iter.                  ...        0 min,  0.045 sec
     gradient                   ...        0 min,  0.014 sec
 * total energy  :  -151.5096282 Eh     change       -0.7695527E-06 Eh
   gradient norm :     0.0002012 Eh/α   predicted    -0.3254620E-06 ( -57.71%)
   displ. norm   :     0.0274179 α      lambda       -0.8456126E-06
   maximum displ.:     0.0148386 α      in ANC's #5, #9, #2, ...

........................................................................
.............................. CYCLE    4 ..............................
........................................................................

 iter      E             dE          RMSdq      gap      omega  full diag
   1   -154.3385251 -0.154339E+03  0.589E-03    1.32       0.0  T
   2   -154.3385251 -0.974907E-08  0.345E-03    1.32       3.0  T
   3   -154.3385251  0.284917E-07  0.496E-04    1.32      20.8  T
   4   -154.3385251 -0.329494E-07  0.967E-05    1.32     106.6  T
     SCC iter.                  ...        0 min,  0.045 sec
     gradient                   ...        0 min,  0.014 sec
 * total energy  :  -151.5096291 Eh     change       -0.9101902E-06 Eh
   gradient norm :     0.0002764 Eh/α   predicted    -0.4255748E-06 ( -53.24%)
   displ. norm   :     0.0247351 α      lambda       -0.5264230E-06
   maximum displ.:     0.0140457 α      in ANC's #5, #2, #9, ...

........................................................................
.............................. CYCLE    5 ..............................
........................................................................

 iter      E             dE          RMSdq      gap      omega  full diag
   1   -154.3385133 -0.154339E+03  0.500E-03    1.32       0.0  T
   2   -154.3385133 -0.523067E-08  0.293E-03    1.32       3.5  T
   3   -154.3385133  0.129867E-07  0.353E-04    1.32      29.3  T
   4   -154.3385133 -0.153917E-07  0.667E-05    1.32     154.7  T
     SCC iter.                  ...        0 min,  0.045 sec
     gradient                   ...        0 min,  0.015 sec
 * total energy  :  -151.5096298 Eh     change       -0.6420868E-06 Eh
   gradient norm :     0.0002612 Eh/α   predicted    -0.2666575E-06 ( -58.47%)
   displ. norm   :     0.0276258 α      lambda       -0.5872835E-06
   maximum displ.:     0.0160041 α      in ANC's #5, #2, #9, ...

........................................................................
.............................. CYCLE    6 ..............................
........................................................................

 iter      E             dE          RMSdq      gap      omega  full diag
   1   -154.3385020 -0.154339E+03  0.524E-03    1.32       0.0  T
   2   -154.3385020 -0.566990E-08  0.308E-03    1.32       3.4  T
   3   -154.3385020  0.197655E-07  0.418E-04    1.32      24.7  T
   4   -154.3385020 -0.226223E-07  0.687E-05    1.32     150.2  T
     SCC iter.                  ...        0 min,  0.046 sec
     gradient                   ...        0 min,  0.015 sec
 * total energy  :  -151.5096305 Eh     change       -0.7203424E-06 Eh
   gradient norm :     0.0001468 Eh/α   predicted    -0.2945500E-06 ( -59.11%)
   displ. norm   :     0.0337458 α      lambda       -0.6309988E-06
   maximum displ.:     0.0197524 α      in ANC's #5, #2, #9, ...

........................................................................
.............................. CYCLE    7 ..............................
........................................................................

 iter      E             dE          RMSdq      gap      omega  full diag
   1   -154.3384933 -0.154338E+03  0.597E-03    1.32       0.0  T
   2   -154.3384933 -0.688391E-08  0.350E-03    1.32       2.9  T
   3   -154.3384933  0.374460E-07  0.538E-04    1.32      19.2  T
   4   -154.3384933 -0.419494E-07  0.777E-05    1.32     132.7  T
     SCC iter.                  ...        0 min,  0.045 sec
     gradient                   ...        0 min,  0.015 sec
 * total energy  :  -151.5096312 Eh     change       -0.7204561E-06 Eh
   gradient norm :     0.0001096 Eh/α   predicted    -0.3162072E-06 ( -56.11%)
   displ. norm   :     0.0300829 α      lambda       -0.4290781E-06
   maximum displ.:     0.0177458 α      in ANC's #5, #2, #9, ...

........................................................................
.............................. CYCLE    8 ..............................
........................................................................

 iter      E             dE          RMSdq      gap      omega  full diag
   1   -154.3384882 -0.154338E+03  0.491E-03    1.32       0.0  T
   2   -154.3384882 -0.425936E-08  0.288E-03    1.32       3.6  T
   3   -154.3384882  0.272852E-07  0.451E-04    1.32      22.9  T
   4   -154.3384882 -0.306038E-07  0.630E-05    1.32     163.8  T
     SCC iter.                  ...        0 min,  0.044 sec
     gradient                   ...        0 min,  0.014 sec
 * total energy  :  -151.5096317 Eh     change       -0.4967771E-06 Eh
   gradient norm :     0.0001683 Eh/α   predicted    -0.2150363E-06 ( -56.71%)
   displ. norm   :     0.0267784 α      lambda       -0.3423529E-06
   maximum displ.:     0.0158372 α      in ANC's #5, #2, #9, ...

........................................................................
.............................. CYCLE    9 ..............................
........................................................................

 iter      E             dE          RMSdq      gap      omega  full diag
   1   -154.3384913 -0.154338E+03  0.401E-03    1.32       0.0  T
   2   -154.3384913 -0.354427E-08  0.235E-03    1.32       4.4  T
   3   -154.3384913  0.174287E-07  0.376E-04    1.32      27.4  T
   4   -154.3384913 -0.197997E-07  0.577E-05    1.32     178.7  T
     SCC iter.                  ...        0 min,  0.045 sec
     gradient                   ...        0 min,  0.014 sec
 * total energy  :  -151.5096321 Eh     change       -0.4198277E-06 Eh
   gradient norm :     0.0001653 Eh/α   predicted    -0.1729083E-06 ( -58.81%)
   displ. norm   :     0.0275076 α      lambda       -0.3438857E-06
   maximum displ.:     0.0161851 α      in ANC's #5, #2, #3, ...

........................................................................
.............................. CYCLE   10 ..............................
........................................................................

 iter      E             dE          RMSdq      gap      omega  full diag
   1   -154.3384981 -0.154338E+03  0.379E-03    1.32       0.0  T
   2   -154.3384981 -0.486884E-08  0.222E-03    1.32       4.6  T
   3   -154.3384981  0.191723E-07  0.412E-04    1.32      25.0  T
   4   -154.3384981 -0.219408E-07  0.695E-05    1.32     148.4  T
     SCC iter.                  ...        0 min,  0.045 sec
     gradient                   ...        0 min,  0.015 sec
 * total energy  :  -151.5096325 Eh     change       -0.4139490E-06 Eh
   gradient norm :     0.0000983 Eh/α   predicted    -0.1739036E-06 ( -57.99%)
   displ. norm   :     0.0257748 α      lambda       -0.2800673E-06
   maximum displ.:     0.0150508 α      in ANC's #5, #2, #3, ...

........................................................................
.............................. CYCLE   11 ..............................
........................................................................

 iter      E             dE          RMSdq      gap      omega  full diag
   1   -154.3385022 -0.154339E+03  0.325E-03    1.32       0.0  T
   2   -154.3385022 -0.457138E-08  0.190E-03    1.32       5.4  T
   3   -154.3385022  0.152874E-07  0.379E-04    1.32      27.2  T
   4   -154.3385022 -0.175690E-07  0.683E-05    1.32     151.1  T
     SCC iter.                  ...        0 min,  0.046 sec
     gradient                   ...        0 min,  0.015 sec
 * total energy  :  -151.5096329 Eh     change       -0.3295120E-06 Eh
   gradient norm :     0.0000591 Eh/α   predicted    -0.1414673E-06 ( -57.07%)
   displ. norm   :     0.0216511 α      lambda       -0.2168574E-06
   maximum displ.:     0.0126097 α      in ANC's #2, #5, #3, ...

........................................................................
.............................. CYCLE   12 ..............................
........................................................................

 iter      E             dE          RMSdq      gap      omega  full diag
   1   -154.3385081 -0.154339E+03  0.255E-03    1.32       0.0  T
   2   -154.3385081 -0.288236E-08  0.149E-03    1.32       6.9  T
   3   -154.3385081  0.790990E-08  0.278E-04    1.31      37.1  T
   4   -154.3385081 -0.918732E-08  0.583E-05    1.32     176.9  T
     SCC iter.                  ...        0 min,  0.047 sec
     gradient                   ...        0 min,  0.014 sec
 * total energy  :  -151.5096331 Eh     change       -0.2663784E-06 Eh
   gradient norm :     0.0001023 Eh/α   predicted    -0.1101354E-06 ( -58.65%)
   displ. norm   :     0.0262095 α      lambda       -0.2659289E-06
   maximum displ.:     0.0152107 α      in ANC's #2, #5, #3, ...

........................................................................
.............................. CYCLE   13 ..............................
........................................................................

 iter      E             dE          RMSdq      gap      omega  full diag
   1   -154.3385080 -0.154339E+03  0.304E-03    1.31       0.0  T
   2   -154.3385080 -0.336868E-08  0.178E-03    1.31       5.8  T
   3   -154.3385080  0.660873E-08  0.262E-04    1.31      39.4  T
   4   -154.3385080 -0.787253E-08  0.661E-05    1.31     156.0  T
     SCC iter.                  ...        0 min,  0.045 sec
     gradient                   ...        0 min,  0.014 sec
 * total energy  :  -151.5096334 Eh     change       -0.3274052E-06 Eh
   gradient norm :     0.0001412 Eh/α   predicted    -0.1341401E-06 ( -59.03%)
   displ. norm   :     0.0312630 α      lambda       -0.3004188E-06
   maximum displ.:     0.0180591 α      in ANC's #2, #5, #3, ...

........................................................................
.............................. CYCLE   14 ..............................
........................................................................

 iter      E             dE          RMSdq      gap      omega  full diag
   1   -154.3384987 -0.154338E+03  0.364E-03    1.31       0.0  T
   2   -154.3384987 -0.410128E-08  0.213E-03    1.31       4.8  T
   3   -154.3384987  0.853288E-08  0.287E-04    1.31      36.0  T
   4   -154.3384987 -0.101609E-07  0.732E-05    1.31     140.9  T
     SCC iter.                  ...        0 min,  0.045 sec
     gradient                   ...        0 min,  0.014 sec
 * total energy  :  -151.5096338 Eh     change       -0.3536624E-06 Eh
   gradient norm :     0.0001315 Eh/α   predicted    -0.1512161E-06 ( -57.24%)
   displ. norm   :     0.0290897 α      lambda       -0.2273985E-06
   maximum displ.:     0.0170478 α      in ANC's #2, #5, #3, ...

........................................................................
.............................. CYCLE   15 ..............................
........................................................................

 iter      E             dE          RMSdq      gap      omega  full diag
   1   -154.3384892 -0.154338E+03  0.334E-03    1.31       0.0  T
   2   -154.3384892 -0.341413E-08  0.196E-03    1.31       5.3  T
   3   -154.3384892  0.931857E-08  0.283E-04    1.31      36.5  T
   4   -154.3384892 -0.108854E-07  0.629E-05    1.31     164.1  T
     SCC iter.                  ...        0 min,  0.045 sec
     gradient                   ...        0 min,  0.015 sec
 * total energy  :  -151.5096341 Eh     change       -0.2521290E-06 Eh
   gradient norm :     0.0000736 Eh/α   predicted    -0.1181987E-06 ( -53.12%)
   displ. norm   :     0.0168024 α      lambda       -0.1054744E-06
   maximum displ.:     0.0101360 α      in ANC's #2, #5, #3, ...

........................................................................
.............................. CYCLE   16 ..............................
........................................................................

 iter      E             dE          RMSdq      gap      omega  full diag
   1   -154.3384780 -0.154338E+03  0.197E-03    1.31       0.0  T
   2   -154.3384780 -0.117714E-08  0.116E-03    1.31       8.9  T
   3   -154.3384780  0.521143E-08  0.200E-04    1.31      51.5  T
   4   -154.3384780 -0.592078E-08  0.327E-05    1.31     315.6  T
     SCC iter.                  ...        0 min,  0.045 sec
     gradient                   ...        0 min,  0.014 sec
 * total energy  :  -151.5096342 Eh     change       -0.1146041E-06 Eh
   gradient norm :     0.0000354 Eh/α   predicted    -0.5437295E-07 ( -52.56%)
   displ. norm   :     0.0168024 α      lambda        0.0000000E+00
   maximum displ.:     0.0101360 α      in ANC's #2, #5, #3, ...

........................................................................
.............................. CYCLE   17 ..............................
........................................................................

 iter      E             dE          RMSdq      gap      omega  full diag
   1   -154.3384650 -0.154338E+03  0.197E-03    1.32       0.0  T
   2   -154.3384650 -0.119829E-08  0.116E-03    1.32       8.9  T
   3   -154.3384650  0.453861E-08  0.190E-04    1.32      54.2  T
   4   -154.3384650 -0.519191E-08  0.331E-05    1.32     312.0  T
     SCC iter.                  ...        0 min,  0.045 sec
     gradient                   ...        0 min,  0.014 sec
 * total energy  :  -151.5096342 Eh     change       -0.1560858E-07 Eh
   gradient norm :     0.0000755 Eh/α   predicted     0.2674886E-09 (-101.71%)
   displ. norm   :     0.0047645 α      lambda       -0.4287050E-07
   maximum displ.:     0.0025870 α      in ANC's #5, #11, #2, ...

   *** GEOMETRY OPTIMIZATION CONVERGED AFTER 17 ITERATIONS ***

------------------------------------------------------------------------
 total energy gain   :        -0.0000075 Eh       -0.0047 kcal/mol
 total RMSD          :         0.0347513 a0        0.0184 Å
 total power (kW/mol):        -0.0011622 (step)   -0.0161 (real)
------------------------------------------------------------------------

 ANCopt (total)                0 d,  0 h,  0 min,  1.224 sec
 optimizer setup                ...        0 min,  0.000 sec (  0.037%)
 model hessian                  ...        0 min,  0.050 sec (  4.122%)
 ANC generation                 ...        0 min,  0.008 sec (  0.623%)
 coordinate transformation      ...        0 min,  0.001 sec (  0.101%)
 single point calculation       ...        0 min,  1.152 sec ( 94.084%)
 optimization log               ...        0 min,  0.005 sec (  0.448%)
 hessian update                 ...        0 min,  0.002 sec (  0.197%)
 rational function              ...        0 min,  0.003 sec (  0.219%)

================
 final structure:
================
94
 xtb: 6.7.1 (edcfbbe)
C           -5.88092639800125       -5.36014712915902        0.86311012592067
C           -5.07779536100625       -4.56345635503607        1.66277199449740
C           -4.76377034324952       -3.27624939060147        1.27052128596827
C           -5.24534176798607       -2.78205447649342        0.06111269217589
N           -4.94538460896914       -1.46565152430128       -0.32036004191775
C           -5.90991007493305       -0.49683406103518       -0.52017980375663
C           -7.28080588218514       -0.64653330927692       -0.66281170898180
C           -8.03162281598448        0.48212960800360       -0.92663339766307
C           -7.42485883173495        1.72632189672770       -1.06986973176030
C           -6.06663365289295        1.88618518205412       -0.88530536023997
C           -5.29462063593823        0.77665130462245       -0.55177483571774
C           -3.90020767022862        0.55713307389543       -0.27786114275018
C           -3.71689885444879       -0.84541408077208       -0.22642856479521
C           -2.42904461167772       -1.40599451450706       -0.22017977803218
C           -1.88529227809211       -2.72474648379834       -0.42252072737114
C           -2.42029075663011       -3.97391516505860       -0.72553588986312
C           -1.57015081700487       -5.04429747435342       -0.91749979167940
C           -0.18925104938823       -4.89382584243732       -0.84795203529038
C            0.37368252940423       -3.65821850137593       -0.59723678349059
C           -0.47799088534503       -2.58648833763608       -0.38093720307236
N           -0.15453549847144       -1.25596095864944       -0.18406411073197
C            1.11744328696617       -0.73428818526479       -0.44418789464220
C            1.25227568183808        0.25580657676848       -1.44974524191642
C            2.47197273880694        0.77611959880071       -1.75802678177257
C            3.62538291955670        0.32662854991394       -1.07705967513752
N            4.82292535835004        0.84369529967404       -1.37474771239274
C            5.87475163189456        0.39692726588868       -0.71256232545151
C            7.17869828300693        0.94313333884032       -1.01601738931419
C            7.29383659036877        1.93234441191832       -1.99677539445148
C            8.51919185711516        2.47206520858552       -2.30984090542693
C            9.65259788302397        2.02513604988989       -1.64004918678123
C            9.55263063958831        1.05100769190590       -0.67082527643718
C            8.31976885528746        0.48230714956247       -0.32982780685807
C            8.18705853614366       -0.54811307016879        0.69114334867337
C            9.28308606901603       -1.04745907093052        1.40466927087846
C            9.13232733707986       -2.02181855301739        2.36708832057146
C            7.87446394947159       -2.53836281919197        2.65644284971230
C            6.77862081700641       -2.06810238277011        1.97166754677843
C            6.91785123134675       -1.08036136808772        0.99268488786592
C            5.74393542086395       -0.61098202711690        0.29001332106051
N            4.56825590825987       -1.13030695861993        0.59018633268616
C            3.49377188764597       -0.68126075332036       -0.07476051285675
C            2.22001559428554       -1.20022462663750        0.22798307486791
C           -1.32477744529209       -0.53297433882295       -0.09107170281709
C           -1.49856902889603        0.83975990815824        0.14231753915211
C           -0.63861559187760        1.92774037338773        0.52449271645124
C            0.68393614453411        2.03635478074348        0.94719622225613
C            1.17911977039946        3.27615346124108        1.29584438519831
C            0.37478165481330        4.41157027058392        1.26631036499984
C           -0.95669606926376        4.32551055371472        0.91211327278284
C           -1.45205264065780        3.08414613890514        0.54356442437026
N           -2.75102629151243        2.73775177384252        0.22369372647913
C           -3.83661558664099        3.58867264054524        0.49492537541288
C           -3.95429932003564        4.80179397336997       -0.17486786937774
C           -5.00607947955209        5.65050302286659        0.12025486862598
C           -5.94084894244361        5.29584698760328        1.07869058157884
C           -5.82081153740086        4.08947368299347        1.74861254372680
C           -4.76990999122075        3.23785414055225        1.46541282846323
C           -2.79902958628488        1.37899588354101        0.00671100877686
C           -6.04787992375576       -3.58428824350304       -0.74452761759240
C           -6.36356714531162       -4.86841785206272       -0.33839778245523
H           -6.12738642480142       -6.36423506460910        1.17359306034194
H           -4.69836761030418       -4.94469146580264        2.59890068927686
H           -4.13929461807933       -2.64827783839054        1.88802221887799
H           -7.75032385880657       -1.61418537947669       -0.57364404259525
H           -9.10111932194879        0.39298454328158       -1.04638837273286
H           -8.02832893282973        2.58402571677462       -1.32751152685816
H           -5.61887176615994        2.85521822665385       -1.02665880112391
H           -3.48054623239595       -4.11698535824857       -0.83503392818762
H           -1.98711553328494       -6.01477154430440       -1.14256416493264
H            0.45120190555702       -5.74727806983590       -1.01301185178641
H            1.44509270093362       -3.53061875835580       -0.59132235917639
H            0.36425827386813        0.58486321320543       -1.96783599996721
H            2.59076744315736        1.53011717758091       -2.51997698910475
H            6.39259415361595        2.25396440275325       -2.49457656549424
H            8.60327181167278        3.23605915440642       -3.06821808467061
H           10.61961997879615        2.44319573614633       -1.87926434310287
H           10.45392822108596        0.73069761139871       -0.17312635237555
H           10.27453206855573       -0.67167810688307        1.20865496808730
H            9.99938017363227       -2.38524316790804        2.89934304005975
H            7.76200543875162       -3.30162979586033        3.41185357182706
H            5.78727409013459       -2.44490606886673        2.16833451536265
H            2.13531267589089       -1.93814177061640        1.01040383575162
H            1.31516531591118        1.16879056795656        1.03677924035136
H            2.20751363616918        3.36367859729849        1.61373086675658
H            0.78992800523081        5.36696991561405        1.55054190314224
H           -1.59683699517973        5.19416697613600        0.94227336299977
H           -3.23188536864651        5.06302369549306       -0.93411907962161
H           -5.09887139144213        6.58955702423045       -0.40521240879783
H           -6.76215200567202        5.95962017654189        1.30299147709480
H           -6.54659865770504        3.81185670224038        2.49807540804188
H           -4.66623828206125        2.29802137341331        1.98626293438346
H           -6.39612698621959       -3.20727067028409       -1.69444542818360
H           -6.98229051248443       -5.49046560808167       -0.96827033108021
 
 Bond Distances (Angstroems)
 ---------------------------
C1-C2=1.3854         C1-C61=1.3850        C1-H62=1.0795        C2-C1=1.3854         C2-C3=1.3818         C2-H63=1.0796        
C3-C2=1.3818         C3-C4=1.3924         C3-H64=1.0796        C4-C3=1.3924         C4-N5=1.4030         C4-C60=1.3917        
N5-C4=1.4030         N5-C6=1.3816         N5-C13=1.3794        C6-N5=1.3816         C6-C7=1.3864         C6-C11=1.4147        
C7-C6=1.3864         C7-C8=1.3810         C7-H65=1.0792        C8-C7=1.3810         C8-C9=1.3917         C8-H66=1.0799        
C9-C8=1.3917         C9-C10=1.3800        C9-H67=1.0799        C10-C9=1.3800        C10-C11=1.3922       C10-H68=1.0768       
C11-C6=1.4147        C11-C10=1.3922       C11-C12=1.4379       C12-C11=1.4379       C12-C13=1.4154       C12-C59=1.4032       
C13-N5=1.3794        C13-C12=1.4154       C13-C14=1.4046       C14-C13=1.4046       C14-C15=1.4407       C14-C44=1.4136       
C15-C14=1.4407       C15-C16=1.3923       C15-C20=1.4147       C16-C15=1.3923       C16-C17=1.3803       C16-H69=1.0755       
C17-C16=1.3803       C17-C18=1.3908       C17-H70=1.0800       C18-C17=1.3908       C18-C19=1.3808       C18-H71=1.0797       
C19-C18=1.3808       C19-C20=1.3859       C19-H72=1.0790       C20-C15=1.4147       C20-C19=1.3859       C20-N21=1.3834       
N21-C20=1.3834       N21-C22=1.3992       N21-C44=1.3787       C22-N21=1.3992       C22-C23=1.4176       C22-C43=1.3728       
C23-C22=1.4176       C23-C24=1.3614       C23-H73=1.0795       C24-C23=1.3614       C24-C25=1.4128       C24-H74=1.0785       
C25-C24=1.4128       C25-N26=1.3379       C25-C42=1.4275       N26-C25=1.3379       N26-C27=1.3208       C27-N26=1.3208       
C27-C28=1.4459       C27-C40=1.4276       C28-C27=1.4459       C28-C29=1.3977       C28-C33=1.4090       C29-C28=1.3977       
C29-C30=1.3751       C29-H75=1.0786       C30-C29=1.3751       C30-C31=1.3903       C30-H76=1.0798       C31-C30=1.3903       
C31-C32=1.3778       C31-H77=1.0803       C32-C31=1.3778       C32-C33=1.3999       C32-H78=1.0783       C33-C28=1.4090       
C33-C32=1.3999       C33-C34=1.4566       C34-C33=1.4566       C34-C35=1.3999       C34-C39=1.4089       C35-C34=1.3999       
C35-C36=1.3778       C35-H79=1.0782       C36-C35=1.3778       C36-C37=1.3902       C36-H80=1.0803       C37-C36=1.3902       
C37-C38=1.3751       C37-H81=1.0798       C38-C37=1.3751       C38-C39=1.3976       C38-H82=1.0786       C39-C34=1.4089       
C39-C38=1.3976       C39-C40=1.4464       C40-C27=1.4276       C40-C39=1.4464       C40-N41=1.3199       N41-C40=1.3199       
N41-C42=1.3410       C42-C25=1.4275       C42-N41=1.3410       C42-C43=1.4083       C43-C22=1.3728       C43-C42=1.4083       
C43-H83=1.0788       C44-C14=1.4136       C44-N21=1.3787       C44-C45=1.4032       C45-C44=1.4032       C45-C46=1.4385       
C45-C59=1.4143       C46-C45=1.4385       C46-C47=1.3927       C46-C51=1.4140       C47-C46=1.3927       C47-C48=1.3798       
C47-H84=1.0766       C48-C47=1.3798       C48-C49=1.3918       C48-H85=1.0800       C49-C48=1.3918       C49-C50=1.3805       
C49-H86=1.0798       C50-C49=1.3805       C50-C51=1.3864       C50-H87=1.0795       C51-C46=1.4140       C51-C50=1.3864       
C51-N52=1.3819       N52-C51=1.3819       N52-C53=1.4058       N52-C59=1.3768       C53-N52=1.4058       C53-C54=1.3907       
C53-C58=1.3914       C54-C53=1.3907       C54-C55=1.3833       C54-H88=1.0801       C55-C54=1.3833       C55-C56=1.3850       
C55-H89=1.0801       C56-C55=1.3850       C56-C57=1.3851       C56-H90=1.0796       C57-C56=1.3851       C57-C58=1.3820       
C57-H91=1.0796       C58-C53=1.3914       C58-C57=1.3820       C58-H92=1.0795       C59-C12=1.4032       C59-C45=1.4143       
C59-N52=1.3768       C60-C4=1.3917        C60-C61=1.3833       C60-H93=1.0797       C61-C1=1.3850        C61-C60=1.3833       
C61-H94=1.0800       H62-C1=1.0795        H63-C2=1.0796        H64-C3=1.0796        H65-C7=1.0792        H66-C8=1.0799        
H67-C9=1.0799        H68-C10=1.0768       H69-C16=1.0755       H70-C17=1.0800       H71-C18=1.0797       H72-C19=1.0790       
H73-C23=1.0795       H74-C24=1.0785       H75-C29=1.0786       H76-C30=1.0798       H77-C31=1.0803       H78-C32=1.0783       
H79-C35=1.0782       H80-C36=1.0803       H81-C37=1.0798       H82-C38=1.0786       H83-C43=1.0788       H84-C47=1.0766       
H85-C48=1.0800       H86-C49=1.0798       H87-C50=1.0795       H88-C54=1.0801       H89-C55=1.0801       H90-C56=1.0796       
H91-C57=1.0796       H92-C58=1.0795       H93-C60=1.0797       H94-C61=1.0800       
 C  H  Rav=1.0792 sigma=0.0011  Rmin=1.0755  Rmax=1.0803    33
 C  C  Rav=1.3987 sigma=0.0206  Rmin=1.3614  Rmax=1.4566    61
 N  C  Rav=1.3699 sigma=0.0287  Rmin=1.3199  Rmax=1.4058    13
 
 selected bond angles (degree)
 --------------------
C61-C1-C2=119.91               H62-C1-C2=120.08               H62-C1-C61=120.01              C3-C2-C1=120.24                
H63-C2-C1=120.08               H63-C2-C3=119.68               C4-C3-C2=119.91                H64-C3-C2=120.73               
H64-C3-C4=119.37               N5-C4-C3=119.69                C60-C4-C3=119.85               C60-C4-N5=120.45               
C6-N5-C4=123.23                C13-N5-C4=126.43               C13-N5-C6=108.44               C7-C6-N5=129.01                
C11-C6-N5=109.32               C11-C6-C7=121.67               C8-C7-C6=117.97                H65-C7-C6=121.23               
H65-C7-C8=120.80               C9-C8-C7=120.88                H66-C8-C7=119.48               H66-C8-C9=119.62               
C10-C9-C8=121.26               H67-C9-C8=119.41               H67-C9-C10=119.33              C11-C10-C9=119.04              
H68-C10-C9=119.73              H68-C10-C11=121.20             
 
 selected dihedral angles (degree)
 ---------------------------------
C3-C2-C1-C61=  0.45           C3-C2-C1-H62=180.21           H63-C2-C1-C61=180.13          H63-C2-C1-H62=359.89          
C4-C3-C2-C1=359.38            C4-C3-C2-H63=179.69           H64-C3-C2-C1=179.95           H64-C3-C2-H63=  0.26          
N5-C4-C3-C2=178.76            N5-C4-C3-H64=358.19           C60-C4-C3-C2=  0.37           C60-C4-C3-H64=179.81          
C6-N5-C4-C3=241.70            C6-N5-C4-C60= 60.07           C13-N5-C4-C3= 44.14           C13-N5-C4-C60=222.51          
C7-C6-N5-C4=345.66            C7-C6-N5-C13=180.48           C11-C6-N5-C4=164.98           C11-C6-N5-C13=359.80          
C8-C7-C6-N5=183.42            C8-C7-C6-C11=  4.18           H65-C7-C6-N5=  3.27           H65-C7-C6-C11=184.02          
C9-C8-C7-C6=  1.21            C9-C8-C7-H65=181.36           H66-C8-C7-C6=179.75           H66-C8-C7-H65=359.90          
C10-C9-C8-C7=356.60           C10-C9-C8-H66=178.07          H67-C9-C8-C7=176.78           H67-C9-C8-H66=358.25          
C11-C10-C9-C8=  0.11          C11-C10-C9-H67=179.93         H68-C10-C9-C8=178.46          H68-C10-C9-H67=358.28         
           -------------------------------------------------
          |                Final Singlepoint                |
           -------------------------------------------------

          ...................................................
          :                      SETUP                      :
          :.................................................:
          :  # basis functions                 277          :
          :  # atomic orbitals                 277          :
          :  # shells                          155          :
          :  # electrons                       282          :
          :  max. iterations                   250          :
          :  Hamiltonian                  GFN2-xTB          :
          :  restarted?                      false          :
          :  GBSA solvation                  false          :
          :  PC potential                    false          :
          :  electronic temp.          300.0000000     K    :
          :  accuracy                    1.0000000          :
          :  -> integral cutoff          0.2500000E+02      :
          :  -> integral neglect         0.1000000E-07      :
          :  -> SCF convergence          0.1000000E-05 Eh   :
          :  -> wf. convergence          0.1000000E-03 e    :
          :  Broyden damping             0.4000000          :
          :  net charge                          0          :
          :  unpaired electrons                  0          :
          ...................................................

 iter      E             dE          RMSdq      gap      omega  full diag
   1   -154.3384650 -0.154338E+03  0.158E-05    1.32       0.0  T
   2   -154.3384650 -0.284217E-11  0.980E-06    1.32    1052.4  T
   3   -154.3384650 -0.218847E-11  0.611E-06    1.32    1688.6  T

   *** convergence criteria satisfied after 3 iterations ***

         #    Occupation            Energy/Eh            Energy/eV
      -------------------------------------------------------------
         1        2.0000           -0.6744403             -18.3525
       ...           ...                  ...                  ...
       135        2.0000           -0.3877505             -10.5512
       136        2.0000           -0.3866620             -10.5216
       137        2.0000           -0.3857544             -10.4969
       138        2.0000           -0.3680066             -10.0140
       139        2.0000           -0.3490843              -9.4991
       140        2.0000           -0.3484758              -9.4825
       141        2.0000           -0.3468183              -9.4374 (HOMO)
       142                         -0.2984923              -8.1224 (LUMO)
       143                         -0.2638377              -7.1794
       144                         -0.2516359              -6.8474
       145                         -0.2433855              -6.6229
       146                         -0.2414056              -6.5690
       ...                                ...                  ...
       277                          0.7796884              21.2164
      -------------------------------------------------------------
                  HL-Gap            0.0483260 Eh            1.3150 eV
             Fermi-level           -0.3225442 Eh           -8.7769 eV

 SCC (total)                   0 d,  0 h,  0 min,  0.057 sec
 SCC setup                      ...        0 min,  0.000 sec (  0.344%)
 Dispersion                     ...        0 min,  0.001 sec (  2.123%)
 classical contributions        ...        0 min,  0.000 sec (  0.060%)
 integral evaluation            ...        0 min,  0.006 sec ( 10.310%)
 iterations                     ...        0 min,  0.034 sec ( 60.098%)
 molecular gradient             ...        0 min,  0.015 sec ( 25.706%)
 printout                       ...        0 min,  0.001 sec (  1.215%)

         :::::::::::::::::::::::::::::::::::::::::::::::::::::
         ::                     SUMMARY                     ::
         :::::::::::::::::::::::::::::::::::::::::::::::::::::
         :: total energy            -151.509634182053 Eh    ::
         :: gradient norm              0.000075425042 Eh/a0 ::
         :: HOMO-LUMO gap              1.315017856262 eV    ::
         ::.................................................::
         :: SCC energy              -154.338336367522 Eh    ::
         :: -> isotropic ES            0.025972406925 Eh    ::
         :: -> anisotropic ES          0.012147761218 Eh    ::
         :: -> anisotropic XC          0.089209512884 Eh    ::
         :: -> dispersion             -0.152881163197 Eh    ::
         :: repulsion energy           2.828702185469 Eh    ::
         :: add. restraining           0.000000000000 Eh    ::
         :: total charge               0.000000000005 e     ::
         :::::::::::::::::::::::::::::::::::::::::::::::::::::

           ------------------------------------------------- 
          |                Numerical Hessian                |
           ------------------------------------------------- 
step length          :   0.00500
SCC accuracy         :   0.30000
Hessian scale factor :   1.00000
frozen atoms in %    :   0.00000    0
RMS gradient         :   0.00008
estimated CPU  time     10.32 min
estimated wall time      0.26 min

writing file <hessian>.

 projected vibrational frequencies (cm⁻¹)
eigval :       -0.00    -0.00     0.00     0.00     0.00     0.00
eigval :       11.26    12.38    13.40    24.44    27.23    44.90
eigval :       46.70    50.42    52.72    61.91    64.64    71.21
eigval :       78.60    79.86    83.47    94.34   103.46   114.55
eigval :      120.48   128.89   143.36   152.59   163.05   165.99
eigval :      195.69   201.49   206.58   220.19   224.99   226.75
eigval :      234.25   243.70   254.24   258.80   273.75   286.72
eigval :      293.18   306.64   340.57   347.64   352.06   362.85
eigval :      376.79   378.81   379.91   382.93   389.53   392.68
eigval :      399.46   400.18   403.60   407.46   413.04   428.66
eigval :      438.46   444.55   444.90   451.45   457.85   470.29
eigval :      481.60   519.75   529.47   534.26   537.56   543.33
eigval :      545.28   554.15   557.13   564.05   571.97   575.98
eigval :      581.72   586.90   590.26   593.15   593.87   600.15
eigval :      607.58   622.20   624.05   628.00   648.60   651.64
eigval :      666.02   669.89   670.79   674.95   681.69   683.62
eigval :      698.21   698.45   702.35   703.22   730.22   730.44
eigval :      734.65   750.97   762.57   764.75   767.44   768.33
eigval :      769.25   773.07   774.80   776.74   789.61   819.41
eigval :      835.63   844.45   845.11   852.99   865.12   868.88
eigval :      869.67   869.77   878.00   879.71   879.77   880.47
eigval :      885.54   899.48   901.04   903.24   905.11   908.11
eigval :      912.93   917.19   917.51   920.84   921.63   922.71
eigval :      923.12   924.16   928.60   928.91   929.00   929.54
eigval :      933.15   934.90   941.27   974.76   986.68   996.72
eigval :     1013.48  1023.70  1060.84  1075.04  1078.76  1079.14
eigval :     1080.05  1084.83  1084.94  1088.90  1092.44  1101.70
eigval :     1116.46  1117.22  1140.80  1143.18  1145.97  1148.33
eigval :     1149.32  1152.66  1177.44  1179.14  1180.93  1181.06
eigval :     1181.24  1181.54  1183.74  1184.67  1190.99  1193.89
eigval :     1212.06  1215.69  1216.00  1234.68  1244.09  1247.67
eigval :     1250.55  1252.87  1257.91  1273.77  1274.83  1286.22
eigval :     1289.23  1293.48  1295.56  1298.83  1306.89  1315.55
eigval :     1316.12  1318.51  1325.61  1331.87  1337.15  1339.92
eigval :     1347.89  1361.80  1366.37  1367.40  1369.76  1386.51
eigval :     1393.33  1396.52  1418.05  1426.71  1427.43  1429.73
eigval :     1432.41  1434.34  1436.43  1438.66  1440.37  1450.35
eigval :     1463.33  1474.93  1476.32  1479.68  1481.42  1481.58
eigval :     1484.90  1486.96  1504.18  1534.56  1556.50  1567.09
eigval :     1569.24  1569.70  1580.82  1582.10  1584.68  1587.56
eigval :     1590.03  1592.09  1594.54  1595.35  1597.51  1599.61
eigval :     1602.88  1604.91  1605.75  3076.05  3076.75  3077.23
eigval :     3077.60  3078.28  3078.79  3079.58  3083.07  3083.21
eigval :     3084.83  3085.65  3087.42  3087.49  3088.51  3090.03
eigval :     3091.78  3092.58  3094.54  3094.81  3095.13  3096.04
eigval :     3097.89  3099.34  3100.45  3100.58  3103.20  3106.08
eigval :     3109.30  3109.51  3110.24  3127.04  3130.44  3150.22
           -------------------------------------------------
          |                Property Printout                |
           -------------------------------------------------

    * Orbital Energies and Occupations

         #    Occupation            Energy/Eh            Energy/eV
      -------------------------------------------------------------
         1        2.0000           -0.6744402             -18.3525
       ...           ...                  ...                  ...
       129        2.0000           -0.4073418             -11.0843
       130        2.0000           -0.4049176             -11.0184
       131        2.0000           -0.4024969             -10.9525
       132        2.0000           -0.3991799             -10.8622
       133        2.0000           -0.3915521             -10.6547
       134        2.0000           -0.3900483             -10.6138
       135        2.0000           -0.3877505             -10.5512
       136        2.0000           -0.3866621             -10.5216
       137        2.0000           -0.3857544             -10.4969
       138        2.0000           -0.3680066             -10.0140
       139        2.0000           -0.3490843              -9.4991
       140        2.0000           -0.3484758              -9.4825
       141        2.0000           -0.3468183              -9.4374 (HOMO)
       142                         -0.2984923              -8.1224 (LUMO)
       143                         -0.2638377              -7.1794
       144                         -0.2516358              -6.8474
       145                         -0.2433855              -6.6229
       146                         -0.2414057              -6.5690
       147                         -0.2320207              -6.3136
       148                         -0.2314641              -6.2985
       149                         -0.2303921              -6.2693
       150                         -0.2281267              -6.2076
       151                         -0.2227404              -6.0611
       152                         -0.2204964              -6.0000
       ...                                ...                  ...
       277                          0.7796883              21.2164
      -------------------------------------------------------------
                  HL-Gap            0.0483260 Eh            1.3150 eV
             Fermi-level           -0.3225442 Eh           -8.7769 eV

     #   Z          covCN         q      C6AA      α(0)
     1   6 C        2.919    -0.032    28.800     8.800
     2   6 C        2.920    -0.026    28.652     8.778
     3   6 C        2.922    -0.037    28.931     8.821
     4   6 C        2.916     0.070    26.445     8.433
     5   7 N        2.803    -0.043    22.074     6.978
     6   6 C        3.081     0.044    26.930     8.507
     7   6 C        2.911    -0.052    29.298     8.876
     8   6 C        2.924    -0.036    28.895     8.815
     9   6 C        2.920    -0.042    29.035     8.836
    10   6 C        2.914    -0.039    28.974     8.827
    11   6 C        3.063    -0.015    28.331     8.728
    12   6 C        3.055    -0.047    29.114     8.849
    13   6 C        3.065     0.041    27.009     8.522
    14   6 C        3.051    -0.047    29.107     8.848
    15   6 C        3.060    -0.014    28.300     8.724
    16   6 C        2.915    -0.041    29.019     8.834
    17   6 C        2.919    -0.041    29.013     8.833
    18   6 C        2.923    -0.035    28.874     8.812
    19   6 C        2.911    -0.052    29.282     8.873
    20   6 C        3.080     0.044    26.939     8.509
    21   7 N        2.802    -0.040    22.006     6.967
    22   6 C        2.913     0.072    26.399     8.425
    23   6 C        2.919    -0.035    28.860     8.809
    24   6 C        2.916    -0.038    28.933     8.820
    25   6 C        2.967     0.080    26.211     8.398
    26   7 N        1.848    -0.238    27.077     7.712
    27   6 C        2.962     0.082    26.171     8.391
    28   6 C        2.988    -0.001    28.045     8.687
    29   6 C        2.924    -0.027    28.679     8.782
    30   6 C        2.917    -0.029    28.713     8.787
    31   6 C        2.918    -0.027    28.686     8.783
    32   6 C        2.922    -0.034    28.842     8.807
    33   6 C        2.976     0.006    27.871     8.660
    34   6 C        2.976     0.007    27.861     8.658
    35   6 C        2.922    -0.034    28.841     8.807
    36   6 C        2.918    -0.027    28.679     8.782
    37   6 C        2.917    -0.029    28.715     8.787
    38   6 C        2.924    -0.027    28.672     8.781
    39   6 C        2.988    -0.001    28.050     8.688
    40   6 C        2.961     0.084    26.125     8.384
    41   7 N        1.849    -0.243    27.185     7.727
    42   6 C        2.967     0.082    26.173     8.392
    43   6 C        2.920    -0.058    29.432     8.897
    44   6 C        3.065     0.041    27.023     8.524
    45   6 C        3.057    -0.048    29.142     8.853
    46   6 C        3.060    -0.016    28.345     8.731
    47   6 C        2.914    -0.039    28.979     8.827
    48   6 C        2.919    -0.040    29.005     8.832
    49   6 C        2.924    -0.035    28.878     8.813
    50   6 C        2.911    -0.052    29.285     8.874
    51   6 C        3.086     0.044    26.922     8.505
    52   7 N        2.803    -0.045    22.102     6.982
    53   6 C        2.917     0.070    26.445     8.433
    54   6 C        2.922    -0.041    29.017     8.834
    55   6 C        2.920    -0.028    28.704     8.786
    56   6 C        2.920    -0.031    28.784     8.798
    57   6 C        2.920    -0.026    28.644     8.777
    58   6 C        2.922    -0.036    28.888     8.814
    59   6 C        3.064     0.042    26.998     8.520
    60   6 C        2.921    -0.042    29.038     8.837
    61   6 C        2.920    -0.028    28.704     8.786
    62   1 H        0.926     0.035     2.514     2.480
    63   1 H        0.926     0.037     2.492     2.468
    64   1 H        0.926     0.039     2.458     2.452
    65   1 H        0.926     0.027     2.629     2.535
    66   1 H        0.926     0.027     2.634     2.538
    67   1 H        0.926     0.024     2.672     2.556
    68   1 H        0.926     0.026     2.638     2.540
    69   1 H        0.926     0.029     2.605     2.524
    70   1 H        0.926     0.025     2.658     2.549
    71   1 H        0.926     0.028     2.612     2.527
    72   1 H        0.926     0.030     2.588     2.516
    73   1 H        0.926     0.048     2.347     2.396
    74   1 H        0.926     0.056     2.243     2.342
    75   1 H        0.926     0.059     2.210     2.325
    76   1 H        0.926     0.035     2.511     2.478
    77   1 H        0.926     0.034     2.534     2.490
    78   1 H        0.926     0.036     2.509     2.477
    79   1 H        0.926     0.036     2.507     2.476
    80   1 H        0.926     0.034     2.532     2.488
    81   1 H        0.926     0.036     2.509     2.477
    82   1 H        0.926     0.059     2.207     2.323
    83   1 H        0.926     0.059     2.213     2.326
    84   1 H        0.926     0.024     2.678     2.559
    85   1 H        0.926     0.025     2.663     2.552
    86   1 H        0.926     0.027     2.625     2.533
    87   1 H        0.926     0.026     2.640     2.541
    88   1 H        0.926     0.041     2.435     2.440
    89   1 H        0.926     0.036     2.502     2.473
    90   1 H        0.926     0.036     2.509     2.477
    91   1 H        0.926     0.037     2.493     2.469
    92   1 H        0.926     0.039     2.466     2.456
    93   1 H        0.926     0.042     2.427     2.436
    94   1 H        0.926     0.036     2.507     2.476

 Mol. C6AA /au·bohr⁶  :     140137.861668
 Mol. C8AA /au·bohr⁸  :    3600051.041731
 Mol. α(0) /au        :        606.356042


MOs/occ written to file <molden.input>


molecular dipole:
                 x           y           z       tot (Debye)
 q only:       -0.086       0.027       0.186
   full:       -0.084       0.034       0.208       0.577
molecular quadrupole (traceless):
                xx          xy          yy          xz          yz          zz
 q only:       15.932       1.538      -2.640      -1.748      -5.876     -13.292
  q+dip:       26.146       2.749       0.145       2.101     -12.113     -26.290
   full:       19.711       1.437      -2.763      -0.812      -4.256     -16.948

           -------------------------------------------------
          |                Geometry Summary                 |
           -------------------------------------------------

      molecular mass/u    :      775.8967712
   center of mass at/Å    :       -0.0000404       0.0004409       0.0001017
  moments of inertia/u·Å² :        0.6843377E+04   0.2246770E+05   0.2746648E+05
rotational constants/cm⁻¹ :        0.2463350E-02   0.7503052E-03   0.6137530E-03

 * 104 selected distances

     #   Z          #   Z                                           value/Å
     1   6 C        2   6 C                                       1.3853502
     2   6 C        3   6 C                                       1.3818012
     3   6 C        4   6 C                                       1.3924113
     4   6 C        5   7 N                                       1.4030014
     5   7 N        6   6 C                                       1.3816095
     6   6 C        7   6 C                                       1.3864016
     7   6 C        8   6 C                                       1.3810171
     8   6 C        9   6 C                                       1.3916515
     9   6 C       10   6 C                                       1.3799986
     6   6 C       11   6 C                                       1.4146889
    10   6 C       11   6 C                                       1.3922329
    11   6 C       12   6 C                                       1.4379168
     5   7 N       13   6 C                                       1.3793822
    12   6 C       13   6 C                                       1.4154103
    13   6 C       14   6 C                                       1.4045848
    14   6 C       15   6 C                                       1.4407344 (max)
    15   6 C       16   6 C                                       1.3922874
    16   6 C       17   6 C                                       1.3803285
    17   6 C       18   6 C                                       1.3908138
    18   6 C       19   6 C                                       1.3807528
    15   6 C       20   6 C                                       1.4146880
    19   6 C       20   6 C                                       1.3859073
    20   6 C       21   7 N                                       1.3833604
    21   7 N       22   6 C                                       1.3991916
    22   6 C       23   6 C                                       1.4176083
    23   6 C       24   6 C                                       1.3614053
    24   6 C       25   6 C                                       1.4128389
    25   6 C       26   7 N                                       1.3379404
    26   7 N       27   6 C                                       1.3207687
    28   6 C       29   6 C                                       1.3977418
    29   6 C       30   6 C                                       1.3750652
    30   6 C       31   6 C                                       1.3903151
    31   6 C       32   6 C                                       1.3777935
    28   6 C       33   6 C                                       1.4089923
    32   6 C       33   6 C                                       1.3998743
    34   6 C       35   6 C                                       1.3999080
    35   6 C       36   6 C                                       1.3778082
    36   6 C       37   6 C                                       1.3902391
    37   6 C       38   6 C                                       1.3751126
    34   6 C       39   6 C                                       1.4089369
    38   6 C       39   6 C                                       1.3976498
    27   6 C       40   6 C                                       1.4276387
    40   6 C       41   7 N                                       1.3198579
    25   6 C       42   6 C                                       1.4275035
    41   7 N       42   6 C                                       1.3410119
    22   6 C       43   6 C                                       1.3727988
    42   6 C       43   6 C                                       1.4083439
    14   6 C       44   6 C                                       1.4135910
    21   7 N       44   6 C                                       1.3787037
    44   6 C       45   6 C                                       1.4032369
    45   6 C       46   6 C                                       1.4384991
    46   6 C       47   6 C                                       1.3927020
    47   6 C       48   6 C                                       1.3798056
    48   6 C       49   6 C                                       1.3917628
    49   6 C       50   6 C                                       1.3804692
    46   6 C       51   6 C                                       1.4139725
    50   6 C       51   6 C                                       1.3864315
    51   6 C       52   7 N                                       1.3818970
    52   7 N       53   6 C                                       1.4057515
    53   6 C       54   6 C                                       1.3907322
    54   6 C       55   6 C                                       1.3833461
    55   6 C       56   6 C                                       1.3849817
    56   6 C       57   6 C                                       1.3851142
    53   6 C       58   6 C                                       1.3913872
    57   6 C       58   6 C                                       1.3819741
    12   6 C       59   6 C                                       1.4032225
    45   6 C       59   6 C                                       1.4143418
    52   7 N       59   6 C                                       1.3768093
     4   6 C       60   6 C                                       1.3916548
     1   6 C       61   6 C                                       1.3850492
    60   6 C       61   6 C                                       1.3833254
     1   6 C       62   1 H                                       1.0795068
     2   6 C       63   1 H                                       1.0796494
     3   6 C       64   1 H                                       1.0796415
     7   6 C       65   1 H                                       1.0792353
     8   6 C       66   1 H                                       1.0798662
     9   6 C       67   1 H                                       1.0799127
    10   6 C       68   1 H                                       1.0767993
    16   6 C       69   1 H                                       1.0754538 (min)
    17   6 C       70   1 H                                       1.0799693
    18   6 C       71   1 H                                       1.0797248
    19   6 C       72   1 H                                       1.0789980
    23   6 C       73   1 H                                       1.0794774
    24   6 C       74   1 H                                       1.0785142
    29   6 C       75   1 H                                       1.0786490
    30   6 C       76   1 H                                       1.0797650
    31   6 C       77   1 H                                       1.0803378
    32   6 C       78   1 H                                       1.0782580
    35   6 C       79   1 H                                       1.0782385
    36   6 C       80   1 H                                       1.0803487
    37   6 C       81   1 H                                       1.0797541
    38   6 C       82   1 H                                       1.0786229
    43   6 C       83   1 H                                       1.0788321
    47   6 C       84   1 H                                       1.0766352
    48   6 C       85   1 H                                       1.0799568
    49   6 C       86   1 H                                       1.0797790
    50   6 C       87   1 H                                       1.0794694
    54   6 C       88   1 H                                       1.0800859
    55   6 C       89   1 H                                       1.0800689
    56   6 C       90   1 H                                       1.0795576
    57   6 C       91   1 H                                       1.0795985
    58   6 C       92   1 H                                       1.0794992
    60   6 C       93   1 H                                       1.0797047
    61   6 C       94   1 H                                       1.0800471

 * 3 distinct bonds (by element types)

   Z      Z             #   av. dist./Å        max./Å        min./Å
   1 H    6 C          33     1.0792108     1.0803487     1.0754538
   6 C    6 C          58     1.3960716     1.4407344     1.3614053
   6 C    7 N          13     1.3699450     1.4057515     1.3198579

           -------------------------------------------------
          |               Frequency Printout                |
           -------------------------------------------------
 projected vibrational frequencies (cm⁻¹)
eigval :       -0.00    -0.00     0.00     0.00     0.00     0.00
eigval :       11.26    12.38    13.40    24.44    27.23    44.90
eigval :       46.70    50.42    52.72    61.91    64.64    71.21
eigval :       78.60    79.86    83.47    94.34   103.46   114.55
eigval :      120.48   128.89   143.36   152.59   163.05   165.99
eigval :      195.69   201.49   206.58   220.19   224.99   226.75
eigval :      234.25   243.70   254.24   258.80   273.75   286.72
eigval :      293.18   306.64   340.57   347.64   352.06   362.85
eigval :      376.79   378.81   379.91   382.93   389.53   392.68
eigval :      399.46   400.18   403.60   407.46   413.04   428.66
eigval :      438.46   444.55   444.90   451.45   457.85   470.29
eigval :      481.60   519.75   529.47   534.26   537.56   543.33
eigval :      545.28   554.15   557.13   564.05   571.97   575.98
eigval :      581.72   586.90   590.26   593.15   593.87   600.15
eigval :      607.58   622.20   624.05   628.00   648.60   651.64
eigval :      666.02   669.89   670.79   674.95   681.69   683.62
eigval :      698.21   698.45   702.35   703.22   730.22   730.44
eigval :      734.65   750.97   762.57   764.75   767.44   768.33
eigval :      769.25   773.07   774.80   776.74   789.61   819.41
eigval :      835.63   844.45   845.11   852.99   865.12   868.88
eigval :      869.67   869.77   878.00   879.71   879.77   880.47
eigval :      885.54   899.48   901.04   903.24   905.11   908.11
eigval :      912.93   917.19   917.51   920.84   921.63   922.71
eigval :      923.12   924.16   928.60   928.91   929.00   929.54
eigval :      933.15   934.90   941.27   974.76   986.68   996.72
eigval :     1013.48  1023.70  1060.84  1075.04  1078.76  1079.14
eigval :     1080.05  1084.83  1084.94  1088.90  1092.44  1101.70
eigval :     1116.46  1117.22  1140.80  1143.18  1145.97  1148.33
eigval :     1149.32  1152.66  1177.44  1179.14  1180.93  1181.06
eigval :     1181.24  1181.54  1183.74  1184.67  1190.99  1193.89
eigval :     1212.06  1215.69  1216.00  1234.68  1244.09  1247.67
eigval :     1250.55  1252.87  1257.91  1273.77  1274.83  1286.22
eigval :     1289.23  1293.48  1295.56  1298.83  1306.89  1315.55
eigval :     1316.12  1318.51  1325.61  1331.87  1337.15  1339.92
eigval :     1347.89  1361.80  1366.37  1367.40  1369.76  1386.51
eigval :     1393.33  1396.52  1418.05  1426.71  1427.43  1429.73
eigval :     1432.41  1434.34  1436.43  1438.66  1440.37  1450.35
eigval :     1463.33  1474.93  1476.32  1479.68  1481.42  1481.58
eigval :     1484.90  1486.96  1504.18  1534.56  1556.50  1567.09
eigval :     1569.24  1569.70  1580.82  1582.10  1584.68  1587.56
eigval :     1590.03  1592.09  1594.54  1595.35  1597.51  1599.61
eigval :     1602.88  1604.91  1605.75  3076.05  3076.75  3077.23
eigval :     3077.60  3078.28  3078.79  3079.58  3083.07  3083.21
eigval :     3084.83  3085.65  3087.42  3087.49  3088.51  3090.03
eigval :     3091.78  3092.58  3094.54  3094.81  3095.13  3096.04
eigval :     3097.89  3099.34  3100.45  3100.58  3103.20  3106.08
eigval :     3109.30  3109.51  3110.24  3127.04  3130.44  3150.22
 reduced masses (amu)
   1: 11.70   2: 11.56   3: 11.48   4: 11.47   5: 11.65   6: 11.30   7: 11.03   8: 11.16
   9: 11.18  10: 10.88  11: 10.86  12: 10.94  13: 11.11  14: 10.72  15: 11.00  16: 10.92
  17: 10.57  18: 10.10  19: 10.50  20: 10.20  21: 10.81  22: 10.68  23: 10.58  24: 10.65
  25: 10.67  26: 11.07  27: 10.93  28: 10.88  29: 10.77  30: 10.79  31: 11.12  32: 11.10
  33: 11.14  34: 10.79  35: 10.82  36: 10.56  37: 10.77  38: 10.78  39: 10.69  40: 10.92
  41: 10.90  42: 11.20  43: 10.95  44: 11.53  45: 11.21  46: 10.83  47: 11.03  48: 10.96
  49: 10.69  50:  9.24  51:  9.11  52: 10.75  53: 10.90  54: 11.29  55: 10.29  56: 10.84
  57: 11.21  58: 11.47  59: 10.82  60: 10.02  61: 10.35  62: 10.74  63: 10.86  64: 10.70
  65: 11.18  66: 10.36  67: 10.21  68: 10.19  69: 10.11  70: 10.54  71: 11.05  72: 11.09
  73: 11.04  74: 11.37  75: 11.46  76: 11.41  77: 11.64  78: 11.45  79: 11.20  80: 11.37
  81: 11.32  82: 11.51  83: 11.76  84: 11.79  85: 11.45  86: 11.13  87: 11.74  88: 11.87
  89: 11.38  90: 11.30  91: 10.69  92: 10.34  93: 10.21  94: 11.45  95: 11.05  96: 11.16
  97: 11.78  98: 11.78  99: 11.72 100: 11.64 101: 11.11 102: 11.26 103: 11.38 104:  8.26
 105: 11.30 106:  4.99 107:  6.98 108:  4.50 109: 10.03 110:  3.86 111:  3.71 112:  3.88
 113:  5.97 114:  5.64 115: 11.09 116: 11.29 117: 11.24 118: 11.66 119:  3.48 120:  3.41
 121:  3.57 122:  3.75 123:  4.93 124:  3.44 125:  3.74 126:  9.53 127:  3.67 128:  3.85
 129:  3.84 130:  3.84 131:  4.03 132:  4.42 133: 10.56 134:  3.80 135:  3.53 136:  3.97
 137:  3.39 138:  5.40 139:  4.24 140:  7.70 141:  3.66 142:  3.63 143:  3.42 144:  3.27
 145:  3.15 146:  3.18 147: 11.64 148: 10.16 149: 10.98 150: 10.91 151: 10.63 152: 10.94
 153: 10.14 154:  9.42 155:  8.12 156:  6.82 157:  6.69 158:  5.72 159:  6.21 160:  6.83
 161:  8.20 162:  6.60 163:  3.97 164:  3.94 165:  6.53 166:  4.99 167:  5.90 168:  6.56
 169:  3.97 170:  4.94 171:  3.20 172:  2.45 173:  1.41 174:  1.39 175:  2.19 176:  1.58
 177:  1.87 178:  3.39 179:  2.03 180:  3.77 181:  5.80 182:  6.10 183:  5.69 184:  5.23
 185:  6.85 186:  8.90 187:  7.31 188:  7.49 189:  6.82 190:  4.22 191:  4.05 192:  9.55
 193:  8.36 194:  8.27 195:  8.32 196:  8.44 197: 10.17 198: 11.75 199: 11.79 200: 10.05
 201:  9.52 202: 11.31 203: 11.05 204: 11.60 205: 11.28 206: 10.97 207: 10.90 208: 10.66
 209: 10.73 210: 11.62 211: 11.67 212: 11.59 213: 10.92 214: 10.24 215:  9.77 216:  9.82
 217: 10.43 218:  9.76 219:  9.56 220:  9.78 221:  9.98 222: 11.20 223: 10.41 224: 10.31
 225: 10.29 226: 10.79 227: 10.40 228: 10.07 229: 10.48 230: 10.91 231: 12.61 232: 11.78
 233: 11.55 234: 11.77 235: 11.72 236: 11.68 237: 11.52 238: 11.52 239: 11.57 240: 11.38
 241: 11.75 242: 11.77 243: 11.51 244: 11.51 245: 11.62 246: 11.60 247: 11.67 248: 11.70
 249: 11.69 250:  1.77 251:  1.77 252:  1.76 253:  1.76 254:  1.76 255:  1.76 256:  1.76
 257:  1.78 258:  1.78 259:  1.82 260:  1.82 261:  1.83 262:  1.84 263:  1.85 264:  1.84
 265:  1.83 266:  1.79 267:  1.88 268:  1.89 269:  1.89 270:  1.88 271:  1.89 272:  1.87
 273:  1.92 274:  1.92 275:  1.83 276:  1.88 277:  1.85 278:  1.85 279:  1.84 280:  1.84
 281:  1.83 282:  1.82
 IR intensities (km·mol⁻¹)
   1:  0.00   2:  0.00   3:  0.00   4:  0.00   5:  0.00   6:  0.00   7:  0.03   8:  0.10
   9:  0.07  10:  0.11  11:  0.07  12:  0.11  13:  0.04  14:  0.05  15:  0.16  16:  0.28
  17:  1.06  18:  0.58  19:  0.13  20:  1.56  21:  0.50  22:  0.24  23:  1.08  24:  0.46
  25:  2.08  26:  0.79  27:  0.15  28:  2.14  29:  0.41  30:  0.25  31:  0.50  32:  1.28
  33:  2.53  34:  1.21  35:  0.15  36:  0.33  37:  0.08  38:  0.40  39:  0.39  40:  0.02
  41:  4.01  42:  0.50  43:  2.49  44:  1.18  45:  0.23  46:  0.74  47:  0.71  48:  0.31
  49:  6.25  50:  2.66  51:  2.72  52:  3.10  53:  1.21  54:  8.37  55:  9.51  56:  1.05
  57:  3.03  58:  1.34  59:  2.47  60:  0.09  61:  1.33  62:  2.08  63:  4.19  64:  0.85
  65:  3.03  66:  4.46  67:  2.90  68:  9.05  69:  0.43  70:  0.13  71:  4.05  72:  2.50
  73:  1.63  74:  2.65  75:  3.45  76:  0.10  77:  1.96  78:  0.46  79:  0.87  80:  1.08
  81:  0.43  82:  1.95  83:  0.98  84:  1.48  85:  3.81  86:  3.59  87:  0.92  88:  4.90
  89:  1.35  90:  0.98  91:  4.36  92:  1.57  93:  3.82  94:  8.39  95:  0.50  96:  5.69
  97:  4.16  98:  0.97  99:  2.46 100:  3.64 101:  2.57 102:  0.28 103:  0.56 104:  9.41
 105:  0.24 106: 12.76 107:  9.39 108: 39.94 109:  2.12 110: 28.43 111: 33.01 112:  8.92
 113:  0.12 114: 26.49 115: 15.46 116:  1.46 117:  0.30 118:  1.41 119:  0.14 120:  0.29
 121:  0.57 122:  0.10 123:  1.16 124:  0.14 125:  0.59 126:  5.31 127:  3.00 128:  0.45
 129:  1.11 130:  0.25 131:  0.25 132:  0.21 133:  4.37 134:  0.05 135:  0.04 136:  0.52
 137:  0.28 138:  0.47 139:  0.35 140:  1.66 141:  0.32 142:  0.79 143:  0.00 144:  0.07
 145:  0.03 146:  0.19 147:  3.71 148:  1.67 149:  1.17 150:  0.23 151:  0.40 152:  1.10
 153: 11.24 154:  3.21 155:  0.64 156:  0.14 157:  0.91 158:  0.41 159:  0.17 160:  0.10
 161:  1.76 162:  2.40 163:  0.68 164:  1.74 165:  5.26 166: 17.65 167:  6.17 168: 25.44
 169:  4.65 170:  3.64 171:  2.52 172: 11.39 173:  0.06 174:  0.33 175:  0.69 176:  0.08
 177:  0.25 178:  5.14 179:  4.33 180: 18.44 181:  3.40 182: 15.66 183:  7.67 184:  4.33
 185: 18.10 186: 28.67 187: 29.39 188: 52.12 189: 18.60 190:  6.88 191:  6.12 192: 25.34
 193:  3.62 194: 64.40 195: 31.91 196: 22.31 197: 38.13 198:  4.13 199:  4.69 200:271.44
 201: 65.49 202: 40.62 203: 79.92 204: 18.22 205: 40.69 206: 10.05 207: 20.06 208: 45.18
 209: 24.87 210:  7.29 211:334.50 212:246.91 213:194.09 214: 27.40 215:  8.47 216: 31.67
 217: 17.42 218: 35.10 219: 22.22 220: 38.50 221: 32.74 222:284.37 223: 63.48 224: 21.77
 225: 17.79 226: 78.04 227: 53.17 228:219.85 229: 68.31 230: 64.10 231: 15.25 232: 16.48
 233: 12.88 234:124.51 235: 87.19 236:  3.68 237:  0.69 238:  2.85 239:  0.86 240:  7.35
 241: 28.89 242: 49.20 243:115.61 244: 84.49 245:222.19 246: 37.43 247: 33.30 248: 36.02
 249: 27.66 250:  1.19 251: 31.43 252:  2.50 253:  0.73 254:  5.87 255: 10.11 256: 10.64
 257:  6.16 258:  5.16 259: 37.95 260: 55.86 261: 51.15 262:102.17 263: 42.97 264: 38.59
 265: 72.20 266:  8.02 267: 27.74 268: 88.75 269: 72.28 270:117.53 271: 53.17 272:  3.45
 273: 29.91 274: 37.42 275:  8.99 276: 14.27 277: 19.63 278: 24.57 279: 70.86 280: 18.44
 281: 23.21 282: 12.17
 Raman intensities (Ä⁴*amu⁻¹)
   1:  0.00   2:  0.00   3:  0.00   4:  0.00   5:  0.00   6:  0.00   7:  0.00   8:  0.00
   9:  0.00  10:  0.00  11:  0.00  12:  0.00  13:  0.00  14:  0.00  15:  0.00  16:  0.00
  17:  0.00  18:  0.00  19:  0.00  20:  0.00  21:  0.00  22:  0.00  23:  0.00  24:  0.00
  25:  0.00  26:  0.00  27:  0.00  28:  0.00  29:  0.00  30:  0.00  31:  0.00  32:  0.00
  33:  0.00  34:  0.00  35:  0.00  36:  0.00  37:  0.00  38:  0.00  39:  0.00  40:  0.00
  41:  0.00  42:  0.00  43:  0.00  44:  0.00  45:  0.00  46:  0.00  47:  0.00  48:  0.00
  49:  0.00  50:  0.00  51:  0.00  52:  0.00  53:  0.00  54:  0.00  55:  0.00  56:  0.00
  57:  0.00  58:  0.00  59:  0.00  60:  0.00  61:  0.00  62:  0.00  63:  0.00  64:  0.00
  65:  0.00  66:  0.00  67:  0.00  68:  0.00  69:  0.00  70:  0.00  71:  0.00  72:  0.00
  73:  0.00  74:  0.00  75:  0.00  76:  0.00  77:  0.00  78:  0.00  79:  0.00  80:  0.00
  81:  0.00  82:  0.00  83:  0.00  84:  0.00  85:  0.00  86:  0.00  87:  0.00  88:  0.00
  89:  0.00  90:  0.00  91:  0.00  92:  0.00  93:  0.00  94:  0.00  95:  0.00  96:  0.00
  97:  0.00  98:  0.00  99:  0.00 100:  0.00 101:  0.00 102:  0.00 103:  0.00 104:  0.00
 105:  0.00 106:  0.00 107:  0.00 108:  0.00 109:  0.00 110:  0.00 111:  0.00 112:  0.00
 113:  0.00 114:  0.00 115:  0.00 116:  0.00 117:  0.00 118:  0.00 119:  0.00 120:  0.00
 121:  0.00 122:  0.00 123:  0.00 124:  0.00 125:  0.00 126:  0.00 127:  0.00 128:  0.00
 129:  0.00 130:  0.00 131:  0.00 132:  0.00 133:  0.00 134:  0.00 135:  0.00 136:  0.00
 137:  0.00 138:  0.00 139:  0.00 140:  0.00 141:  0.00 142:  0.00 143:  0.00 144:  0.00
 145:  0.00 146:  0.00 147:  0.00 148:  0.00 149:  0.00 150:  0.00 151:  0.00 152:  0.00
 153:  0.00 154:  0.00 155:  0.00 156:  0.00 157:  0.00 158:  0.00 159:  0.00 160:  0.00
 161:  0.00 162:  0.00 163:  0.00 164:  0.00 165:  0.00 166:  0.00 167:  0.00 168:  0.00
 169:  0.00 170:  0.00 171:  0.00 172:  0.00 173:  0.00 174:  0.00 175:  0.00 176:  0.00
 177:  0.00 178:  0.00 179:  0.00 180:  0.00 181:  0.00 182:  0.00 183:  0.00 184:  0.00
 185:  0.00 186:  0.00 187:  0.00 188:  0.00 189:  0.00 190:  0.00 191:  0.00 192:  0.00
 193:  0.00 194:  0.00 195:  0.00 196:  0.00 197:  0.00 198:  0.00 199:  0.00 200:  0.00
 201:  0.00 202:  0.00 203:  0.00 204:  0.00 205:  0.00 206:  0.00 207:  0.00 208:  0.00
 209:  0.00 210:  0.00 211:  0.00 212:  0.00 213:  0.00 214:  0.00 215:  0.00 216:  0.00
 217:  0.00 218:  0.00 219:  0.00 220:  0.00 221:  0.00 222:  0.00 223:  0.00 224:  0.00
 225:  0.00 226:  0.00 227:  0.00 228:  0.00 229:  0.00 230:  0.00 231:  0.00 232:  0.00
 233:  0.00 234:  0.00 235:  0.00 236:  0.00 237:  0.00 238:  0.00 239:  0.00 240:  0.00
 241:  0.00 242:  0.00 243:  0.00 244:  0.00 245:  0.00 246:  0.00 247:  0.00 248:  0.00
 249:  0.00 250:  0.00 251:  0.00 252:  0.00 253:  0.00 254:  0.00 255:  0.00 256:  0.00
 257:  0.00 258:  0.00 259:  0.00 260:  0.00 261:  0.00 262:  0.00 263:  0.00 264:  0.00
 265:  0.00 266:  0.00 267:  0.00 268:  0.00 269:  0.00 270:  0.00 271:  0.00 272:  0.00
 273:  0.00 274:  0.00 275:  0.00 276:  0.00 277:  0.00 278:  0.00 279:  0.00 280:  0.00
 281:  0.00 282:  0.00
 output can be read by thermo (or use thermo option).
 writing <g98.out> molden fake output.
 recommended (thermochemical) frequency scaling factor: 1.0
           -------------------------------------------------
          |             Thermodynamic Functions             |
           -------------------------------------------------

Molecule has no symmetry elements
It seems to be the C1 point group
c1  symmetry found (for desy threshold:  0.10E+00) used in thermo

          ...................................................
          :                      SETUP                      :
          :.................................................:
          :  # frequencies                         276      :
          :  # imaginary freq.                       0      :
          :  linear?                             false      :
          :  only rotor calc.                    false      :
          :  symmetry                               c1      :
          :  rotational number                       1      :
          :  scaling factor                  1.0000000      :
          :  rotor cutoff                   50.0000000 cm⁻¹ :
          :  imag. cutoff                  -20.0000000 cm⁻¹ :
          :.................................................:

    mode    ω/cm⁻¹     T·S(HO)/kcal·mol⁻¹    T·S(FR)/kcal·mol⁻¹   T·S(vib)
   ------------------------------------------------------------------------
       1     11.26    -2.31831 (  0.26%)    -1.49821 ( 99.74%)    -1.50032
       2     12.38    -2.26203 (  0.37%)    -1.47007 ( 99.63%)    -1.47303
       3     13.40    -2.21521 (  0.51%)    -1.44665 ( 99.49%)    -1.45059
       4     24.44    -1.85931 (  5.40%)    -1.26859 ( 94.60%)    -1.30049
       5     27.23    -1.79530 (  8.09%)    -1.23655 ( 91.91%)    -1.28174
       6     44.90    -1.49974 ( 39.41%)    -1.08840 ( 60.59%)    -1.25051
       7     46.70    -1.47653 ( 43.22%)    -1.07675 ( 56.78%)    -1.24954
       8     50.42    -1.43141 ( 50.83%)    -1.05409 ( 49.17%)    -1.24588
       9     52.72    -1.40510 ( 55.27%)    -1.04087 ( 44.73%)    -1.24219
      10     61.91    -1.31043 ( 70.16%)    -0.99323 ( 29.84%)    -1.21578
      11     64.64    -1.28506 ( 73.64%)    -0.98045 ( 26.36%)    -1.20478
      12     71.21    -1.22826 ( 80.45%)    -0.95179 ( 19.55%)    -1.17420
      13     78.60    -1.17038 ( 85.93%)    -0.92253 ( 14.07%)    -1.13551
      14     79.86    -1.16109 ( 86.68%)    -0.91783 ( 13.32%)    -1.12869
      15     83.47    -1.13522 ( 88.59%)    -0.90473 ( 11.41%)    -1.10893
      16     94.34    -1.06381 ( 92.69%)    -0.86847 (  7.31%)    -1.04952
      17    103.46    -1.01013 ( 94.83%)    -0.84112 (  5.17%)    -1.00139
      18    114.55    -0.95118 ( 96.50%)    -0.81096 (  3.50%)    -0.94627
      19    120.48    -0.92206 ( 97.12%)    -0.79601 (  2.88%)    -0.91843
      20    128.89    -0.88326 ( 97.79%)    -0.77602 (  2.21%)    -0.88088
      21    143.36    -0.82244 ( 98.54%)    -0.74450 (  1.46%)    -0.82130
      22    152.59    -0.78703 ( 98.86%)    -0.72603 (  1.14%)    -0.78634
      23    163.05    -0.74959 ( 99.12%)    -0.70638 (  0.88%)    -0.74921
      24    165.99    -0.73953 ( 99.18%)    -0.70109 (  0.82%)    -0.73922
      25    195.69    -0.64795 ( 99.58%)    -0.65232 (  0.42%)    -0.64797
      26    201.49    -0.63191 ( 99.62%)    -0.64367 (  0.38%)    -0.63195
      27    206.58    -0.61828 ( 99.66%)    -0.63628 (  0.34%)    -0.61834
      28    220.19    -0.58364 ( 99.73%)    -0.61738 (  0.27%)    -0.58373
      29    224.99    -0.57202 ( 99.76%)    -0.61099 (  0.24%)    -0.57212
      30    226.75    -0.56783 ( 99.76%)    -0.60868 (  0.24%)    -0.56792
      31    234.25    -0.55043 ( 99.79%)    -0.59905 (  0.21%)    -0.55053
      32    243.70    -0.52943 ( 99.82%)    -0.58733 (  0.18%)    -0.52953
      33    254.24    -0.50715 ( 99.85%)    -0.57478 (  0.15%)    -0.50725
      34    258.80    -0.49788 ( 99.86%)    -0.56952 (  0.14%)    -0.49798
      35    273.75    -0.46882 ( 99.89%)    -0.55289 (  0.11%)    -0.46891
      36    286.72    -0.44521 ( 99.91%)    -0.53917 (  0.09%)    -0.44530
      37    293.18    -0.43397 ( 99.92%)    -0.53257 (  0.08%)    -0.43405
   ------------------------------------------------------------------------

   temp. (K)  partition function   enthalpy   heat capacity  entropy
                                   cal/mol     cal/K/mol   cal/K/mol   J/K/mol
 298.15  VIB  0.366E+20            26468.121    173.109    162.778
         ROT  0.157E+09              888.752      2.981     40.484
         INT  0.574E+28            27356.873    176.089    203.262
         TR   0.209E+29             1481.254      4.968     45.804
         TOT                       28838.1268   181.0576   249.0666  1042.0948

       T/K    H(0)-H(T)+PV         H(T)/Eh          T*S/Eh         G(T)/Eh
   ------------------------------------------------------------------------
    298.15    0.459565E-01    0.756936E+00    0.118340E+00    0.638596E+00
   ------------------------------------------------------------------------

         :::::::::::::::::::::::::::::::::::::::::::::::::::::
         ::                  THERMODYNAMIC                  ::
         :::::::::::::::::::::::::::::::::::::::::::::::::::::
         :: total free energy        -150.871038210791 Eh   ::
         ::.................................................::
         :: total energy             -151.509634182052 Eh   ::
         :: zero point energy           0.710979084335 Eh   ::
         :: G(RRHO) w/o ZPVE           -0.072383113074 Eh   ::
         :: G(RRHO) contrib.            0.638595971261 Eh   ::
         :::::::::::::::::::::::::::::::::::::::::::::::::::::

optimized geometry written to: xtbopt.xyz


           -------------------------------------------------
          | TOTAL ENERGY             -151.509634182052 Eh   |
          | TOTAL ENTHALPY           -150.752698617344 Eh   |
          | TOTAL FREE ENERGY        -150.871038210791 Eh   |
          | GRADIENT NORM               0.000075424281 Eh/α |
          | HOMO-LUMO GAP               1.315018343684 eV   |
           -------------------------------------------------

------------------------------------------------------------------------
 * finished run on 2025/08/24 at 08:15:48.686     
------------------------------------------------------------------------
 total:
 * wall-time:     0 d,  0 h,  0 min,  7.520 sec
 *  cpu-time:     0 d,  0 h,  4 min, 33.443 sec
 * ratio c/w:    36.361 speedup
 SCF:
 * wall-time:     0 d,  0 h,  0 min,  0.171 sec
 *  cpu-time:     0 d,  0 h,  0 min,  6.786 sec
 * ratio c/w:    39.781 speedup
 ANC optimizer:
 * wall-time:     0 d,  0 h,  0 min,  1.283 sec
 *  cpu-time:     0 d,  0 h,  0 min, 51.304 sec
 * ratio c/w:    39.984 speedup
 analytical hessian:
 * wall-time:     0 d,  0 h,  0 min,  5.807 sec
 *  cpu-time:     0 d,  0 h,  3 min, 26.498 sec
 * ratio c/w:    35.559 speedup

