$hessian                                                                        
        0.5210091038   0.0030339502   0.0020106916  -0.0608243631   0.0043882537
        0.0024003586   0.0012212848  -0.0007631268  -0.0003612305  -0.0038151406
        0.0182481254   0.0156825695  -0.0004015508  -0.0001159717   0.0005217873
        0.0003840091  -0.0009678527  -0.0002589395   0.0000298916   0.0000315968
        0.0002080519   0.0000043543  -0.0010267646   0.0006234047  -0.0024471156
       -0.0002600246   0.0013236126  -0.0020666717   0.0003301864  -0.0015511465
        0.0001270439   0.0009173620  -0.0005323507   0.0000092476  -0.0000290164
       -0.0002158020   0.0002505445   0.0008699883   0.0003219785   0.0001470254
       -0.0001025385  -0.0000427923  -0.0000182032   0.0000269918   0.0000094235
        0.0000785190  -0.0000234825   0.0000194522  -0.0000003317  -0.0000162843
       -0.0000051064   0.0000278202   0.0000020708  -0.0000046241  -0.0000041385
       -0.0000058405   0.0000013816   0.0000183907   0.0000013802  -0.0000017968
       -0.0000063234  -0.0000045031  -0.0000007327   0.0000169293  -0.0000056720
       -0.0000024438  -0.0000202862   0.0000001316   0.0000023175   0.0000169867
       -0.0000003595   0.0000071261  -0.0000272200  -0.0000015410   0.0000064469
        0.0000527700  -0.0000005598  -0.0000095198  -0.0000345457  -0.0000015171
        0.0000046319   0.0000100423   0.0000002337  -0.0000074837  -0.0000184272
       -0.0000002566   0.0000105180   0.0000025140  -0.0000170667   0.0000026881
        0.0000066337   0.0000044020  -0.0000005232   0.0000034898   0.0000086179
        0.0000019130  -0.0000051884   0.0000039902  -0.0000056016  -0.0000140412
        0.0000170935   0.0000164345  -0.0000257074   0.0000214766  -0.0000081684
       -0.0004561158   0.0001519448  -0.0005377397  -0.0009220509  -0.0162894573
       -0.0138255821  -0.0451155284  -0.0087049699   0.0060674890  -0.2200876230
        0.0015696051   0.1059757132  -0.1876914334  -0.0010772177  -0.1178986072
        0.0005434760  -0.0002432897   0.0001026150   0.0004119720  -0.0005687756
       -0.0004452804   0.0003205900   0.0004886592   0.0003913756  -0.0001654713
        0.0005526069   0.0003246418  -0.0000528165   0.0000996793   0.0000447777
        0.0000062037   0.0001986413   0.0000655244  -0.0001342580  -0.0000524134
        0.0002253681  -0.0000971157   0.0000383169  -0.0002206736   0.0000194003
       -0.0001695399  -0.0000633491  -0.0000305419  -0.0000090673   0.0000093192
       -0.0000032003   0.0000070277   0.0000001957  -0.0000258505   0.0000161564
        0.0000001916  -0.0000253197   0.0000032075   0.0000007989  -0.0000044494
       -0.0000018023  -0.0000050926  -0.0000082354  -0.0000015016   0.0000032270
       -0.0000063493  -0.0000008419  -0.0000034376   0.0000016655  -0.0000010810
       -0.0000038297  -0.0000192729  -0.0000117236   0.0000011367  -0.0000109791
       -0.0000166097  -0.0000014943   0.0000011914  -0.0000168802  -0.0000040042
        0.0000271467   0.0000290170  -0.0000023126  -0.0001623800  -0.0005531637
       -0.0003674975
        0.0030339502   0.4640713801  -0.0392143506   0.0037729161  -0.1400830984
       -0.0542718607   0.0007597906  -0.0310236039  -0.0109770502   0.0051166018
       -0.0028604473  -0.0064121357  -0.0010744742   0.0001860216   0.0002867927
        0.0002070442   0.0001466699  -0.0003574992   0.0000757070  -0.0000038633
        0.0000689403   0.0000670128   0.0000491747  -0.0002891081   0.0004661685
       -0.0005373432   0.0010961679  -0.0006033560  -0.0005416119   0.0010398422
       -0.0000447494   0.0000483170  -0.0003057669  -0.0000317754  -0.0000132747
        0.0000406348  -0.0000854103   0.0001574586  -0.0003848866  -0.0001012275
        0.0000112894   0.0000396497   0.0000128228  -0.0000254023   0.0000016072
       -0.0000286560   0.0000082599  -0.0000097976  -0.0000172993  -0.0000069069
        0.0000132408  -0.0000406280   0.0000047795   0.0000172582   0.0000042948
       -0.0000106093   0.0000018025  -0.0000153352   0.0000032304   0.0000014009
       -0.0000085268  -0.0000020124   0.0000022397  -0.0000080906   0.0000101495
        0.0000011987   0.0000128112  -0.0000007813   0.0000015834  -0.0000037305
        0.0000012410  -0.0000007906   0.0000062120  -0.0000032213  -0.0000009525
       -0.0000136844  -0.0000061692   0.0000017731   0.0000042982   0.0000020410
       -0.0000005688  -0.0000021524   0.0000006672   0.0000013227   0.0000128842
        0.0000021503  -0.0000074887   0.0000088643   0.0000141748  -0.0000042888
       -0.0000251557  -0.0000056262   0.0000013101   0.0000011466  -0.0000090575
       -0.0000072131  -0.0000095404  -0.0000069598  -0.0000123016   0.0000933029
       -0.0000047219  -0.0000088212  -0.0000048464  -0.0000441847  -0.0000000696
        0.0010939339   0.0001512645   0.0004005563  -0.0042312795  -0.0028976914
       -0.0070968386  -0.0087432735  -0.1994018971   0.1138173571   0.0011602002
       -0.0420524404   0.0008467741  -0.0007520230  -0.0419900060   0.0010809603
       -0.0001824694  -0.0052562002   0.0024587048   0.0004558930   0.0009304233
       -0.0010517082  -0.0003195119   0.0009513114  -0.0011116899  -0.0001353913
       -0.0000522337  -0.0000072238  -0.0000637652   0.0000057719  -0.0000032401
       -0.0000535872  -0.0000113298   0.0000511892   0.0000159619   0.0000329420
        0.0000943729  -0.0000295370   0.0000334566   0.0000875996   0.0000413937
       -0.0000072309   0.0000540543   0.0000718580   0.0000271317   0.0000052934
        0.0000175897   0.0000124453  -0.0000016558   0.0000137154   0.0000002741
        0.0000007850   0.0000122623   0.0000078999  -0.0000028299  -0.0000023342
       -0.0000033499   0.0000023016  -0.0000008392   0.0000002985   0.0000002508
        0.0000003841   0.0000018885   0.0000000424  -0.0000020631   0.0000031678
        0.0000001614   0.0000023887   0.0000074893   0.0000008444  -0.0000056095
        0.0000079028  -0.0000013766  -0.0000026074   0.0000246466   0.0000011271
       -0.0000250540  -0.0000100908   0.0000093689   0.0001265747  -0.0000439532
        0.0000130047
        0.0020106916  -0.0392143506   0.4939690676   0.0024046755  -0.0632762593
       -0.0947475442  -0.0003616937   0.0110254729   0.0062206171   0.0076711359
       -0.0133053863  -0.0141954194  -0.0008630607  -0.0003511191  -0.0003134889
        0.0001126569   0.0007397116  -0.0002210459  -0.0001554782  -0.0000178473
       -0.0000778079   0.0002250865   0.0007437811  -0.0006013214   0.0011929436
       -0.0004276425  -0.0005799895  -0.0013883328  -0.0003771139  -0.0009378255
       -0.0001323509   0.0008729595  -0.0007091543   0.0001768534  -0.0000246361
       -0.0001000710  -0.0000325587   0.0008634630  -0.0001927175   0.0000552418
       -0.0000496144  -0.0000117731   0.0000104587   0.0000139332   0.0000153663
        0.0000533062  -0.0000006523  -0.0000111347   0.0000063758  -0.0000287951
        0.0000002319   0.0000019257   0.0000031517  -0.0000103515   0.0000085172
        0.0000066785  -0.0000008471   0.0000037419  -0.0000083316  -0.0000060447
       -0.0000067500   0.0000029695   0.0000046317   0.0000233906   0.0000002419
       -0.0000044191  -0.0000108191   0.0000031829  -0.0000061299   0.0000049391
        0.0000001549  -0.0000003751  -0.0000151142   0.0000032217  -0.0000008261
        0.0000209889   0.0000014159   0.0000000402  -0.0000116088   0.0000019475
        0.0000015254   0.0000067330  -0.0000019242  -0.0000050270  -0.0000097278
       -0.0000006124   0.0000006546  -0.0000037365   0.0000002561  -0.0000034879
       -0.0000005460  -0.0000010043   0.0000052025  -0.0000001210  -0.0000036138
        0.0000045074  -0.0000050037   0.0000087885   0.0000164949   0.0000474517
       -0.0000076181  -0.0000086064  -0.0000165857   0.0000031927   0.0000051830
        0.0008985939  -0.0003587105  -0.0002927370  -0.0059284352  -0.0157463607
       -0.0172690123   0.0061000299   0.1138247335  -0.1250098611   0.1056383034
        0.0003934474  -0.1064184348  -0.1175798477   0.0005786338  -0.1391453048
        0.0001045055   0.0035125525  -0.0009467108  -0.0003052119   0.0005822782
        0.0007047072   0.0002434774   0.0006878433   0.0008078357  -0.0003108047
       -0.0001609989   0.0000846867  -0.0000132935  -0.0000338367   0.0000033155
       -0.0000079362  -0.0001678943   0.0000299952   0.0000879087   0.0000527305
       -0.0000586541  -0.0000979057   0.0000544498  -0.0001008687   0.0000070566
       -0.0001905142   0.0000170451  -0.0000576584  -0.0000323751   0.0000007690
       -0.0000150893   0.0000146897  -0.0000038694  -0.0000144644   0.0000082565
       -0.0000013841  -0.0000092929   0.0000048538   0.0000017269   0.0000037633
        0.0000030589   0.0000043090  -0.0000042958   0.0000015987   0.0000023178
       -0.0000051402  -0.0000023230  -0.0000000758   0.0000005626  -0.0000028637
        0.0000043284  -0.0000107869  -0.0000022824   0.0000044033  -0.0000117188
       -0.0000038876   0.0000071486  -0.0000073327   0.0000032754   0.0000054947
       -0.0000035880   0.0000320475   0.0000035731   0.0002749745  -0.0002504040
        0.0000671418
       -0.0608243631   0.0037729161   0.0024046755   0.4517178892  -0.0000025725
       -0.0040694158  -0.0608227154  -0.0037752362   0.0024140785  -0.1457225010
        0.0000461169   0.0628293979  -0.0236240211   0.0000111979   0.0141278278
       -0.0030906631  -0.0000014877  -0.0027814693  -0.0003726455  -0.0000001371
        0.0002632373   0.0002078722  -0.0000005821  -0.0009221232   0.0004788973
        0.0000090606   0.0119477471   0.0033302785  -0.0000053384  -0.0071836210
       -0.0001384835   0.0000012751   0.0015702400  -0.0004479675   0.0000001095
       -0.0000760809  -0.0035360470   0.0000016576   0.0018031210  -0.0006436107
       -0.0000007103  -0.0008041963  -0.0000748099  -0.0001005325  -0.0000088170
        0.0000347890   0.0000085047  -0.0000133274   0.0000191664  -0.0000159417
       -0.0000033181  -0.0000145258  -0.0000008696  -0.0000024521  -0.0000027663
        0.0000032057  -0.0000038612  -0.0000119631   0.0000029473   0.0000694393
       -0.0000002063  -0.0000000070   0.0000026507   0.0000211651  -0.0000000112
       -0.0000282821   0.0000020787   0.0000000123  -0.0000095897   0.0000047265
        0.0000000082   0.0000033162  -0.0000108892   0.0000000052   0.0000012985
        0.0000067493  -0.0000000206  -0.0000033890  -0.0000087579   0.0000000128
       -0.0000000297   0.0000035571   0.0000000024  -0.0000084457  -0.0000050550
       -0.0000000000   0.0000027492  -0.0000120312  -0.0000029231   0.0000694602
       -0.0000027548  -0.0000032558  -0.0000037931  -0.0000145647   0.0000009192
       -0.0000025032   0.0000191389   0.0000159187  -0.0000033750   0.0000348106
       -0.0000084994  -0.0000132865  -0.0000749801   0.0001005503  -0.0000089172
       -0.0213709018  -0.0000121475  -0.0177892440  -0.1298073839  -0.0000437767
       -0.0669030830  -0.0000014231  -0.0008432039  -0.0006345201  -0.0029638272
        0.0209372856   0.0159094985  -0.0004273556  -0.0186265683  -0.0142288875
       -0.0000014257   0.0008393323  -0.0006338213  -0.0029654953  -0.0209162892
        0.0159358595  -0.0004259271   0.0186085679  -0.0142521423   0.0010706723
        0.0000003081   0.0007129118  -0.0007319580   0.0000006317   0.0007843089
        0.0000768161  -0.0000000041  -0.0001013443   0.0000518843  -0.0000003009
       -0.0003452082   0.0001258399   0.0000003735   0.0004837960   0.0000119443
       -0.0000000669   0.0000860295  -0.0000620009  -0.0000061323  -0.0000144722
       -0.0000045396   0.0000111992   0.0000042575  -0.0000012071   0.0000025847
       -0.0000003428  -0.0000082895   0.0000049975   0.0000051875  -0.0000029440
        0.0000000008   0.0000033513  -0.0000059921   0.0000000051  -0.0000001391
       -0.0000048252   0.0000000467  -0.0000003302  -0.0000021944   0.0000000060
       -0.0000024818  -0.0000082922  -0.0000049939   0.0000052019  -0.0000012282
       -0.0000025842  -0.0000003398  -0.0000045597  -0.0000111946   0.0000042473
       -0.0000619724   0.0000060996  -0.0000144566   0.0011017896  -0.0000004716
       -0.0005727817
        0.0043882537  -0.1400830984  -0.0632762593  -0.0000025725   0.4358132228
        0.0000611570  -0.0043906146  -0.1399292030   0.0633327882   0.0000351964
       -0.0565050950  -0.0000337868   0.0000016568  -0.0017659056   0.0000047511
       -0.0000014642   0.0071975070  -0.0000028596  -0.0000003040  -0.0001167019
       -0.0000013842  -0.0000003035   0.0062904812  -0.0000085600   0.0000102356
        0.0029802836  -0.0000238113  -0.0000069394   0.0030604346  -0.0000250795
        0.0000013584   0.0062538661  -0.0000083065   0.0000005134  -0.0001824969
       -0.0000013494   0.0000015569   0.0071368674  -0.0000023129   0.0000002484
        0.0001308107   0.0000000054  -0.0000625173   0.0000343868   0.0001017632
        0.0000126105  -0.0000107165  -0.0000311631  -0.0000317578  -0.0000089088
        0.0000045975  -0.0000034607  -0.0000025592   0.0000064683   0.0000121791
       -0.0000183345  -0.0000098676   0.0000059882   0.0000209858   0.0000135924
       -0.0000000188  -0.0000323014   0.0000000240   0.0000000398   0.0000060765
       -0.0000000054   0.0000000194  -0.0000018861  -0.0000000258   0.0000000115
        0.0000009169  -0.0000000074   0.0000000216  -0.0000011454   0.0000000163
       -0.0000001636  -0.0000035317   0.0000000582   0.0000000267   0.0000006577
        0.0000000034  -0.0000000081  -0.0000011855   0.0000000070   0.0000001010
       -0.0000007385   0.0000002126  -0.0000059947   0.0000210129  -0.0000136353
       -0.0000124176  -0.0000178563   0.0000093789   0.0000037317  -0.0000029559
       -0.0000059769   0.0000316358  -0.0000089430  -0.0000049473  -0.0000124212
       -0.0000105625   0.0000315094   0.0000625540   0.0000341928  -0.0001017575
       -0.0000024112  -0.0016232513   0.0000038751  -0.0000329300  -0.0563800124
       -0.0000405372   0.0008961296  -0.0246100437  -0.0128634501   0.0022981940
       -0.0037482596  -0.0043883469  -0.0016602208  -0.0037010187  -0.0046375750
       -0.0008988905  -0.0246081684   0.0129053430  -0.0022934262  -0.0037219382
        0.0043759912   0.0016572794  -0.0036750725   0.0046247748  -0.0000004188
       -0.0025543595   0.0000019773  -0.0000004215   0.0001951938  -0.0000000120
       -0.0000002978  -0.0014977139   0.0000011644   0.0000006855  -0.0001626593
       -0.0000006691  -0.0000005931  -0.0001974778  -0.0000006998   0.0000001687
       -0.0014520462   0.0000011662   0.0000034330   0.0000120826   0.0000054318
        0.0000119748   0.0000109864  -0.0000032995   0.0000036951   0.0000059875
       -0.0000004676  -0.0000006082   0.0000070712  -0.0000024527  -0.0000000064
        0.0000011675   0.0000000013  -0.0000000060   0.0000021123  -0.0000000045
        0.0000001340   0.0000003206  -0.0000000393   0.0000000110   0.0000019873
       -0.0000000150   0.0000005198   0.0000070934   0.0000022665  -0.0000036769
        0.0000060172   0.0000004714  -0.0000119501   0.0000110092   0.0000033087
       -0.0000035451   0.0000118315  -0.0000054733   0.0000001975  -0.0026184160
        0.0000020330
        0.0024003586  -0.0542718607  -0.0947475442  -0.0040694158   0.0000611570
        0.5119601071   0.0024100522   0.0543270848  -0.0948967596   0.0480117610
       -0.0000337469  -0.1026477403   0.0013890459   0.0000055902   0.0064506923
       -0.0034076203  -0.0000027570   0.0027181093  -0.0012472122  -0.0000009231
       -0.0019326209  -0.0004880154  -0.0000075505  -0.0051312880   0.0133305167
       -0.0000252039  -0.0314966720  -0.0085747380  -0.0000262717  -0.0342388640
        0.0011187688  -0.0000075665  -0.0048295474   0.0014360321  -0.0000009916
       -0.0017821643   0.0030118868  -0.0000022161   0.0037183837  -0.0000138959
        0.0000002156   0.0004006030   0.0001056406  -0.0000981178  -0.0000555583
        0.0000448326   0.0000262514   0.0000233236   0.0000328289  -0.0000332218
        0.0000076600  -0.0000209552   0.0000007744   0.0000047320  -0.0000025571
       -0.0000009900   0.0000130613  -0.0000110564  -0.0000189007  -0.0000489827
        0.0000096314   0.0000000440  -0.0000001641   0.0000115532   0.0000000000
        0.0000139230   0.0000109001   0.0000000041   0.0000017657   0.0000020430
       -0.0000000063   0.0000005780  -0.0000011920  -0.0000000074   0.0000005062
       -0.0000030263   0.0000000966  -0.0000010220   0.0000016745  -0.0000000238
       -0.0000005321   0.0000018671   0.0000000077  -0.0000030947   0.0000146371
       -0.0000000174  -0.0000059370  -0.0000109530   0.0000188756  -0.0000489499
       -0.0000026404   0.0000012247   0.0000128408  -0.0000208151  -0.0000008934
        0.0000049616   0.0000328634   0.0000333041   0.0000078127   0.0000448828
       -0.0000261632   0.0000231719   0.0001055794   0.0000980691  -0.0000554878
       -0.0053747173   0.0000036879   0.0036551392  -0.0517592411  -0.0000416226
       -0.1183309862  -0.0005905304   0.0110486484   0.0083510440   0.0037215471
       -0.0145696239  -0.0122702989  -0.0020523156  -0.0173826575  -0.0148501446
       -0.0005902842  -0.0110066366   0.0083485108   0.0037256086   0.0145596332
       -0.0122950820  -0.0020531418   0.0173681279  -0.0148774339  -0.0003142190
        0.0000020306   0.0002781276  -0.0007654812   0.0000003783   0.0003684191
       -0.0001426164   0.0000010580   0.0001009368   0.0008878294  -0.0000007176
       -0.0010606351  -0.0007437333  -0.0000006606  -0.0011173730   0.0001250790
        0.0000010051   0.0001032534  -0.0000623757   0.0000253378  -0.0000261140
       -0.0000015713   0.0000099233  -0.0000013371   0.0000011956  -0.0000006030
       -0.0000008556   0.0000028037   0.0000027327  -0.0000054568  -0.0000032420
        0.0000000060   0.0000037580  -0.0000033158   0.0000000023  -0.0000026084
       -0.0000002740  -0.0000001350   0.0000007103  -0.0000033117   0.0000000112
        0.0000015325   0.0000027910  -0.0000027156  -0.0000054764   0.0000012506
        0.0000006299  -0.0000008375  -0.0000015024  -0.0000098671  -0.0000013142
       -0.0000622923  -0.0000252395  -0.0000260964   0.0004027972   0.0000019967
        0.0002213153
        0.0012212848   0.0007597906  -0.0003616937  -0.0608227154  -0.0043906146
        0.0024100522   0.5210085584  -0.0030357452   0.0020174622  -0.0038189107
       -0.0182277896   0.0157087980  -0.0004023962   0.0001170993   0.0005220834
        0.0003841319   0.0009674846  -0.0002602527   0.0000297806  -0.0000313071
        0.0002080336   0.0000044470   0.0010277466   0.0006218005  -0.0024470254
        0.0002621231   0.0013228028  -0.0020665437  -0.0003322963  -0.0015506022
        0.0001269192  -0.0009182136  -0.0005309325   0.0000092166   0.0000286811
       -0.0002159015   0.0002506143  -0.0008695319   0.0003232440   0.0001470227
        0.0001024434  -0.0000429116  -0.0000257504  -0.0000214782  -0.0000081407
       -0.0000140594  -0.0000170413   0.0000163974  -0.0000051946  -0.0000040077
       -0.0000054970   0.0000035274  -0.0000085193   0.0000020751   0.0000065501
       -0.0000044807  -0.0000006101   0.0000025279   0.0000170556   0.0000027186
       -0.0000063455   0.0000045115  -0.0000007278   0.0000169242   0.0000056807
       -0.0000024227  -0.0000203137  -0.0000001429   0.0000023305   0.0000169724
        0.0000003857   0.0000071426  -0.0000272349   0.0000015530   0.0000065214
        0.0000527920   0.0000004501  -0.0000094983  -0.0000345607   0.0000015311
        0.0000046751   0.0000100224  -0.0000002539  -0.0000074776  -0.0000184431
        0.0000003145   0.0000105668   0.0000183230  -0.0000013864  -0.0000018047
       -0.0000040856   0.0000057759   0.0000014728   0.0000277299  -0.0000019815
       -0.0000047301  -0.0000003787   0.0000162726  -0.0000052295   0.0000784224
        0.0000235047   0.0000194726  -0.0000182134  -0.0000269356   0.0000094409
       -0.0004531704  -0.0001527317  -0.0005378920  -0.0009224848   0.0162715691
       -0.0138486944   0.0005435043   0.0002428568   0.0001021380   0.0004114221
        0.0005690093  -0.0004459427   0.0003208187  -0.0004886848   0.0003925119
       -0.0451104301   0.0086857349   0.0060404447  -0.2200788645  -0.0014128215
        0.1059825037  -0.1877033070   0.0009440882  -0.1178973380  -0.0001655640
       -0.0005520393   0.0003254173  -0.0000528422  -0.0000996178   0.0000448788
        0.0000061523  -0.0001985524   0.0000657606  -0.0001342558   0.0000527349
        0.0002252230  -0.0000971309  -0.0000385989  -0.0002206182   0.0000193640
        0.0001694877  -0.0000636029   0.0000271399  -0.0000290434  -0.0000022680
        0.0000011825   0.0000168723  -0.0000039785  -0.0000109916   0.0000166071
       -0.0000014603  -0.0000193098   0.0000117354   0.0000011311  -0.0000044602
        0.0000017967  -0.0000050755  -0.0000082458   0.0000014900   0.0000032574
       -0.0000064165   0.0000009871  -0.0000033902   0.0000016503   0.0000010853
       -0.0000038110  -0.0000253210  -0.0000032196   0.0000008006  -0.0000258622
       -0.0000161415   0.0000001823  -0.0000032297  -0.0000070298   0.0000001636
       -0.0000305313   0.0000090934   0.0000092864  -0.0001624123   0.0005526539
       -0.0003682858
       -0.0007631268  -0.0310236039   0.0110254729  -0.0037752362  -0.1399292030
        0.0543270848  -0.0030357452   0.4641473299   0.0392600078  -0.0051072612
       -0.0028331638   0.0063970019   0.0010742563   0.0001857887  -0.0002876839
       -0.0002070328   0.0001463054   0.0003570164  -0.0000760266  -0.0000040004
       -0.0000689808  -0.0000665880   0.0000484887   0.0002882449  -0.0004646734
       -0.0005380226  -0.0010967946   0.0006019630  -0.0005423525  -0.0010404363
        0.0000444659   0.0000477578   0.0003049108   0.0000322287  -0.0000134273
       -0.0000406161   0.0000854075   0.0001569907   0.0003845701   0.0001013540
        0.0000112692  -0.0000396871   0.0000048165  -0.0000442367   0.0000001471
       -0.0000931796  -0.0000048984   0.0000093656   0.0000093937  -0.0000068828
        0.0000117056  -0.0000007364  -0.0000084686   0.0000080656   0.0000246804
       -0.0000063739  -0.0000021456  -0.0000088605   0.0000141412   0.0000042556
        0.0000085259  -0.0000020670  -0.0000022149   0.0000080834   0.0000100889
       -0.0000012059  -0.0000128059  -0.0000008489  -0.0000016677   0.0000037454
        0.0000011763   0.0000007474  -0.0000061600  -0.0000033054   0.0000009709
        0.0000131363  -0.0000062667  -0.0000015643  -0.0000042602   0.0000019361
        0.0000005744   0.0000021098   0.0000005788  -0.0000012741  -0.0000125870
        0.0000020892   0.0000081100   0.0000153623   0.0000031881  -0.0000014492
       -0.0000047107  -0.0000099626  -0.0000026202   0.0000410833   0.0000040983
       -0.0000164174   0.0000172155  -0.0000070100  -0.0000138210   0.0000287908
        0.0000084475   0.0000103894  -0.0000127948  -0.0000254132  -0.0000014905
       -0.0010931704   0.0001509824  -0.0004014104   0.0042241280  -0.0028702434
        0.0070802284   0.0001822569  -0.0052637654  -0.0024532649  -0.0004557611
        0.0009306394   0.0010512586   0.0003196751   0.0009519357   0.0011122267
        0.0087235292  -0.1996842048  -0.1137305870  -0.0010035357  -0.0420388831
       -0.0009411697   0.0006192734  -0.0419937985  -0.0011910016   0.0001350513
       -0.0000519145   0.0000073279   0.0000637294   0.0000058459   0.0000032304
        0.0000535978  -0.0000110748  -0.0000511066  -0.0000158390   0.0000327660
       -0.0000944920   0.0000294149   0.0000332561  -0.0000877423  -0.0000414076
       -0.0000070605  -0.0000540026   0.0000249934  -0.0000099574  -0.0000094230
        0.0000025675   0.0000245835  -0.0000011445   0.0000055689   0.0000078267
        0.0000013669  -0.0000025840   0.0000073759  -0.0000011274   0.0000023342
       -0.0000034052  -0.0000023012   0.0000008192   0.0000002231  -0.0000002659
        0.0000001655   0.0000018020  -0.0000002209   0.0000020827   0.0000030995
       -0.0000002009  -0.0000124067   0.0000078961   0.0000025607  -0.0000136734
        0.0000002535  -0.0000007707  -0.0000175423   0.0000124201   0.0000016676
       -0.0000718808   0.0000269253  -0.0000054059  -0.0001262197  -0.0000436905
       -0.0000128010
       -0.0003612305  -0.0109770502   0.0062206171   0.0024140785   0.0633327882
       -0.0948967596   0.0020174622   0.0392600078   0.4938752796   0.0076804310
        0.0132899339  -0.0142232298  -0.0008638648   0.0003502200  -0.0003139437
        0.0001127028  -0.0007402903  -0.0002204504  -0.0001554153   0.0000179840
       -0.0000777953   0.0002252183  -0.0007446571  -0.0006005989   0.0011932573
        0.0004271093  -0.0005790331  -0.0013887583   0.0003764130  -0.0009367078
       -0.0001325935  -0.0008740258  -0.0007082114   0.0001769105   0.0000246371
       -0.0001000054  -0.0000326000  -0.0008639569  -0.0001919606   0.0000550997
        0.0000496600  -0.0000117710  -0.0000165683  -0.0000031284   0.0000052635
        0.0000476597   0.0000075068  -0.0000080430  -0.0000051129  -0.0000086426
        0.0000161537   0.0000000257   0.0000038351   0.0000049387  -0.0000007101
        0.0000007938   0.0000050623  -0.0000037633  -0.0000002595  -0.0000034648
       -0.0000067488  -0.0000029612   0.0000046614   0.0000233640  -0.0000002615
       -0.0000044007  -0.0000107872  -0.0000032696  -0.0000061499   0.0000049543
       -0.0000002218  -0.0000003744  -0.0000150694  -0.0000032284  -0.0000008160
        0.0000205662  -0.0000012173   0.0000002143  -0.0000115751  -0.0000019845
        0.0000015608   0.0000067001   0.0000019746  -0.0000049636  -0.0000095311
        0.0000006490   0.0000009695   0.0000037845   0.0000083554  -0.0000061013
        0.0000081521  -0.0000061037  -0.0000016169   0.0000022253  -0.0000036519
       -0.0000097920   0.0000063458   0.0000287759  -0.0000001118   0.0000532543
        0.0000007261  -0.0000110288   0.0000104837  -0.0000138189   0.0000153647
        0.0008996218   0.0003576120  -0.0002932657  -0.0059349682   0.0157280882
       -0.0173017404   0.0001040717  -0.0035070418  -0.0009389463  -0.0003043975
       -0.0005822151   0.0007033451   0.0002429296  -0.0006878411   0.0008080538
        0.0060731779  -0.1137376846  -0.1247223412   0.1056447844  -0.0004883689
       -0.1064269341  -0.1175787067  -0.0006882579  -0.1391311816  -0.0003108880
        0.0001611521   0.0000843399  -0.0000133836   0.0000338990   0.0000032319
       -0.0000079812   0.0001680428   0.0000298234   0.0000878900  -0.0000527029
       -0.0000584397  -0.0000979401  -0.0000544581  -0.0001006443   0.0000070888
        0.0001906838   0.0000168541  -0.0000036492  -0.0000318553   0.0000036521
       -0.0000073518  -0.0000032753   0.0000056932  -0.0000117341   0.0000038987
        0.0000073523  -0.0000108436   0.0000022396   0.0000044190   0.0000037716
       -0.0000031404   0.0000043243  -0.0000042969  -0.0000016943   0.0000023301
       -0.0000047429   0.0000021574  -0.0000001888   0.0000005392   0.0000029696
        0.0000043181  -0.0000094022  -0.0000047885   0.0000014807  -0.0000144351
       -0.0000082343  -0.0000015701  -0.0000150463  -0.0000146697  -0.0000040401
       -0.0000575526   0.0000322981   0.0000005538   0.0002750977   0.0002505466
        0.0000667650
       -0.0038151406   0.0051166018   0.0076711359  -0.1457225010   0.0000351964
        0.0480117610  -0.0038189107  -0.0051072612   0.0076804310   0.7067679642
        0.0000127813   0.0556216650  -0.3203012377  -0.0000560890  -0.1050214957
       -0.0624375816   0.0000484403   0.0612744924  -0.0290962429  -0.0000231282
       -0.0352386775   0.0455035964   0.0000000953   0.0048009151  -0.0948739697
       -0.0000106034  -0.0132864899  -0.0307302405  -0.0000196049  -0.0288785798
       -0.0026544892   0.0000025208   0.0029965342  -0.0024702077   0.0000004640
        0.0004332070  -0.0010727819  -0.0000009422  -0.0014178198   0.0000317933
       -0.0000001297  -0.0001897477  -0.0000781874  -0.0000287614   0.0000172251
       -0.0000234016   0.0000220500   0.0000397497  -0.0000273242  -0.0000076316
        0.0000103636  -0.0000003488  -0.0000151087  -0.0000003824   0.0000243043
        0.0000021648  -0.0000017732  -0.0000166610   0.0000143768   0.0000171769
        0.0000020572   0.0000000050   0.0000018704   0.0000625515  -0.0000000184
       -0.0000126390  -0.0000296868  -0.0000000486  -0.0000084246   0.0000157029
       -0.0000000510   0.0000058184  -0.0000290540  -0.0000000254   0.0000107843
        0.0000415978  -0.0000000522  -0.0000097442  -0.0000237010  -0.0000000453
        0.0000066992   0.0000088640   0.0000000056  -0.0000038149  -0.0000255834
        0.0000000316   0.0000182298  -0.0000166730  -0.0000143490   0.0000170815
        0.0000243316  -0.0000021727  -0.0000018949  -0.0000003393   0.0000151503
       -0.0000006508  -0.0000273111   0.0000076770   0.0000101256  -0.0000233785
       -0.0000219640   0.0000395978  -0.0000781900   0.0000287964   0.0000172299
       -0.0018019259  -0.0000020327  -0.0029837594  -0.0413513239   0.0000007224
        0.0001186780   0.0001573157  -0.0002217095  -0.0002133809   0.0002080386
       -0.0000865953  -0.0001277278   0.0005391215  -0.0004107196  -0.0007863055
        0.0001567564   0.0002227477  -0.0002126103   0.0002078072   0.0000859644
       -0.0001275186   0.0005393874   0.0004097147  -0.0007872881  -0.0082864515
       -0.0000030574  -0.0058360601  -0.0026968595   0.0000032090   0.0034595867
        0.0001622592  -0.0000004906  -0.0008411132  -0.0024114961   0.0000036634
        0.0035502680   0.0000659773   0.0000001978   0.0002040297  -0.0004201283
        0.0000000405   0.0000230344  -0.0000252110  -0.0001046645  -0.0000354940
       -0.0000002413   0.0000217811  -0.0000041720  -0.0000085933   0.0000156274
       -0.0000009589  -0.0000255626   0.0000081752   0.0000023378   0.0000052737
       -0.0000000756  -0.0000026177  -0.0000074765  -0.0000000894   0.0000030207
       -0.0000040315   0.0000000454  -0.0000031351   0.0000108015   0.0000000535