$hessian                                                                        
        0.5207915848   0.0016428030   0.0057515072  -0.0608499617   0.0030374092
        0.0082370729   0.0012664234  -0.0004121451  -0.0009591992  -0.0050322484
        0.0037667093   0.0243467168  -0.0004087110  -0.0004289100   0.0003281510
        0.0003709913  -0.0005768012  -0.0008824666   0.0000706425  -0.0001651313
        0.0002354202  -0.0001302900  -0.0012322995  -0.0001801911  -0.0023158010
       -0.0010086994   0.0007862254  -0.0021090894   0.0011879304  -0.0008626847
        0.0001777959   0.0009446446   0.0002461246  -0.0000797693   0.0000749912
       -0.0000744575   0.0003197321   0.0005343934   0.0006354871   0.0000108717
       -0.0000344786  -0.0000443579   0.0000137604  -0.0000390693   0.0000312333
        0.0000375162  -0.0000036800   0.0000226049  -0.0000089031  -0.0000309742
       -0.0000059112   0.0000100601   0.0000221516   0.0000006145  -0.0000030667
       -0.0000307797  -0.0000015980   0.0000116924   0.0000278558   0.0000083393
       -0.0000579552   0.0000026481   0.0000074692   0.0000719829   0.0000081401
       -0.0000066328  -0.0000466257   0.0000111585   0.0000233293   0.0000617946
        0.0000222460   0.0000201081  -0.0001056079  -0.0000085107   0.0000137906
        0.0001536165   0.0000134376  -0.0000156400  -0.0001049949  -0.0000087150
        0.0000089150   0.0000575418  -0.0000124990  -0.0000293575  -0.0000476147
       -0.0000192801  -0.0000031963   0.0000195293  -0.0000459793  -0.0000121900
       -0.0000121127   0.0000309464   0.0000083696   0.0000069239  -0.0000308206
       -0.0000047575  -0.0000131808   0.0000237646   0.0000053520   0.0000223320
       -0.0000283071   0.0000158706  -0.0000147925   0.0000668381  -0.0000317799
       -0.0004616950   0.0003883716  -0.0002918021   0.0000983377  -0.0031352201
       -0.0202172691  -0.0453068517  -0.0130645310  -0.0013338520  -0.2275824419
       -0.0669921039   0.0767426284  -0.1795220111   0.0758347298  -0.0923235426
        0.0005398440  -0.0003472166  -0.0001047128   0.0004191276  -0.0002134398
       -0.0007129494   0.0002899643   0.0001039200   0.0005849290  -0.0001428509
        0.0002185777   0.0006005802  -0.0000509249   0.0000505452   0.0001006501
        0.0000092447   0.0001137243   0.0001801457  -0.0001435335  -0.0001836114
        0.0001156175  -0.0000826614   0.0001554618  -0.0001389805   0.0000244523
       -0.0000997938  -0.0001611603  -0.0000075641  -0.0000206091  -0.0000025945
       -0.0000018863   0.0000125560   0.0000015417  -0.0000135430   0.0000095437
        0.0000008890  -0.0000156728   0.0000065323  -0.0000052373  -0.0000045060
        0.0000026789  -0.0000002315  -0.0000069787  -0.0000009689   0.0000050688
       -0.0000068521  -0.0000012055  -0.0000051994   0.0000001703  -0.0000020549
       -0.0000076644  -0.0000151596  -0.0000066082  -0.0000034391  -0.0000142069
       -0.0000116493  -0.0000018008  -0.0000004745  -0.0000143548  -0.0000075903
        0.0000223997   0.0000416303   0.0000025433  -0.0001577931  -0.0001458923
       -0.0006348488
        0.0016428030   0.5158542822  -0.0206704605   0.0021441825  -0.0626663918
       -0.0264499870   0.0015549200  -0.0151669538  -0.0293341223  -0.0010922856
        0.0021300963   0.0069784747  -0.0002932824   0.0000307099   0.0005302896
        0.0000871108  -0.0001448608  -0.0003666941   0.0001469334  -0.0000980994
        0.0001308205  -0.0000876288  -0.0004220672  -0.0001447160  -0.0003961521
       -0.0008765705   0.0007483840   0.0004215916  -0.0010032912   0.0008788236
        0.0000337914  -0.0005791121  -0.0001767497  -0.0001092651  -0.0000709295
        0.0000520130  -0.0000499719  -0.0002793699  -0.0003703466   0.0000248063
        0.0000223019   0.0000458696  -0.0000213138   0.0000530462  -0.0000018780
       -0.0000041778  -0.0000420385  -0.0000421592  -0.0000372954   0.0000606652
        0.0000039724   0.0000111226   0.0000040635   0.0000067351  -0.0000128782
       -0.0000335527  -0.0000114646  -0.0000101377   0.0000043423   0.0000035487
        0.0000072259  -0.0000194405   0.0000019876  -0.0000696085   0.0000002184
       -0.0000004613   0.0000542280  -0.0000111441  -0.0000183342  -0.0000573729
       -0.0000263025  -0.0000085944   0.0001105212   0.0000084982  -0.0000125790
       -0.0001697676  -0.0000077642   0.0000137011   0.0001090577   0.0000072092
       -0.0000107353  -0.0000586427   0.0000145754   0.0000212417   0.0000612460
        0.0000068453   0.0000021235  -0.0000070656   0.0000353979   0.0000047991
       -0.0000310870   0.0000073317  -0.0000004475   0.0000309564  -0.0000127925
       -0.0000063831  -0.0000084224  -0.0000789727  -0.0000077429   0.0000395150
        0.0000653445   0.0000204577  -0.0000220965  -0.0000982665   0.0000005255
        0.0001523983   0.0000223655   0.0005888344   0.0002247163   0.0024352910
        0.0101274878  -0.0130599743  -0.2802903507  -0.0202890201  -0.0670506108
       -0.0682918236   0.0287963462   0.0758540985  -0.0863909754   0.0523063609
       -0.0002779626  -0.0063587302  -0.0022195444   0.0005335191   0.0009353365
       -0.0006911422  -0.0003582616   0.0010787085  -0.0008647852   0.0000933211
        0.0000800071   0.0000013582  -0.0000313703   0.0000225104   0.0000156575
       -0.0000286157   0.0000636124   0.0000677633  -0.0000516445  -0.0000839395
        0.0000564153   0.0000402486  -0.0000903840   0.0000969938   0.0000218842
        0.0000864897   0.0000964712   0.0000304259   0.0000189675   0.0000183460
        0.0000075440  -0.0000143574   0.0000031596   0.0000162528  -0.0000062377
        0.0000027603   0.0000119008   0.0000025759  -0.0000038206  -0.0000027122
        0.0000034109   0.0000028019   0.0000010949  -0.0000026008  -0.0000073775
        0.0000045825   0.0000006505   0.0000062819  -0.0000000817   0.0000021797
        0.0000002165   0.0000055355   0.0000104085   0.0000092109   0.0000047524
        0.0000118337  -0.0000013815   0.0000050133   0.0000280112   0.0000034858
       -0.0000056037  -0.0000400406   0.0000025210  -0.0000820104   0.0001000731
        0.0000646875
        0.0057515072  -0.0206704605   0.4424422850   0.0075292231  -0.0356872199
       -0.1712801341   0.0004675273  -0.0074352121  -0.0097040201   0.0099008078
        0.0007679114  -0.0180301229  -0.0014532436  -0.0000495602  -0.0001863808
        0.0002703568   0.0008048525   0.0000408058  -0.0000015141  -0.0000767794
        0.0000630801   0.0001225255   0.0007571862  -0.0000378379   0.0013079017
       -0.0008064671  -0.0001018327  -0.0017353306  -0.0004486150  -0.0004235511
        0.0000034706   0.0009406541   0.0000014847  -0.0000128005  -0.0001286252
        0.0000336949   0.0000991041   0.0009560895   0.0001609569  -0.0000996295
       -0.0000588764  -0.0000202225  -0.0000059038   0.0000129783   0.0000355390
        0.0000600345  -0.0000248474  -0.0000091606  -0.0000589715   0.0000430021
       -0.0000014525   0.0000521003   0.0000649217   0.0000056917  -0.0000173764
       -0.0000772008  -0.0000098441  -0.0000036837   0.0000576083   0.0000157746
       -0.0000650230  -0.0000081627   0.0000094416   0.0000108114   0.0000017417
       -0.0000035734  -0.0000061045   0.0000087045  -0.0000060231  -0.0000038244
       -0.0000038333  -0.0000003827   0.0000068738   0.0000037127  -0.0000068564
       -0.0000134612  -0.0000032666   0.0000037560   0.0000072211   0.0000030356
        0.0000024349  -0.0000029995  -0.0000001916   0.0000024751   0.0000004748
       -0.0000143554  -0.0000081421   0.0000137879  -0.0000418506  -0.0000157340
       -0.0000333611   0.0000694757   0.0000153385   0.0000654909  -0.0000624462
       -0.0000191544  -0.0000509608  -0.0000604693   0.0000170626   0.0001170215
        0.0000617726  -0.0000063080  -0.0000219957  -0.0000497592  -0.0000411048
        0.0013739008  -0.0001046319  -0.0000379939  -0.0064552513   0.0012369634
       -0.0235880834  -0.0012954558  -0.0203294007  -0.0441207513   0.0761991946
        0.0283536799  -0.0730563301  -0.0918834810   0.0518408437  -0.1032875188
       -0.0000463865  -0.0011755181   0.0001522531   0.0000922201   0.0009069543
        0.0005656402   0.0000102666   0.0009328665   0.0006269791  -0.0003257935
       -0.0001458092  -0.0000452288  -0.0000401624  -0.0000192136  -0.0000140015
       -0.0000324465  -0.0001256380  -0.0000461869   0.0000666202   0.0000338352
        0.0000470515  -0.0000796887   0.0000800581   0.0000074384   0.0000159408
       -0.0001319205  -0.0000673673  -0.0000171446  -0.0000128260  -0.0000100573
       -0.0000056829  -0.0000033975  -0.0000004513  -0.0000016622  -0.0000014234
       -0.0000001837   0.0000038163   0.0000004380  -0.0000016472   0.0000033208
        0.0000003132   0.0000034339  -0.0000022310   0.0000021145  -0.0000003629
       -0.0000004818   0.0000007949   0.0000039272  -0.0000019406   0.0000024125
        0.0000073523  -0.0000020601   0.0000030373   0.0000102603  -0.0000099663
        0.0000042766   0.0000032773  -0.0000146157   0.0000239939   0.0000087440
       -0.0000354790   0.0000142574   0.0000053623   0.0002845935  -0.0002325086
       -0.0001035384
       -0.0608499617   0.0021441825   0.0075292231   0.4514670297   0.0048917241
       -0.0048499608  -0.0612707447  -0.0062982624  -0.0010767652  -0.1500339642
       -0.0404381176   0.0454222405  -0.0243413321  -0.0084297407   0.0096987714
       -0.0027712752   0.0020195709  -0.0023099547  -0.0003134033  -0.0001832247
        0.0002864332   0.0002853291   0.0005017540  -0.0005063838  -0.0007129865
       -0.0088585607   0.0097388340   0.0039443168   0.0038667561  -0.0041233027
       -0.0001921946  -0.0012867560   0.0011459478  -0.0005163917  -0.0000186599
       -0.0000478133  -0.0032696821  -0.0013611208   0.0011584883  -0.0007035819
        0.0007064934  -0.0004738493  -0.0001856585  -0.0001088673  -0.0000645307
        0.0000573962  -0.0000362708  -0.0000106974  -0.0000246110   0.0000357571
       -0.0000090512   0.0000426200   0.0000393775   0.0000127342  -0.0000293558
       -0.0000623848   0.0000011526  -0.0000493406   0.0000749635   0.0000490635
       -0.0000156151  -0.0000004965  -0.0000108412  -0.0000105871  -0.0000025315
        0.0000144672   0.0000171701   0.0000038467  -0.0000066430  -0.0000254591
       -0.0000033815  -0.0000053972   0.0000331488   0.0000049951  -0.0000017366
       -0.0000513860  -0.0000022068   0.0000037688   0.0000286868   0.0000025887
       -0.0000043938  -0.0000191632   0.0000054910   0.0000036162   0.0000209965
       -0.0000020217  -0.0000024231   0.0000260896  -0.0000189248   0.0000030471
       -0.0000136866   0.0000059486   0.0000002607   0.0000004760   0.0000012163
        0.0000125141   0.0000177279   0.0000004933  -0.0000274963  -0.0000055521
       -0.0000217534   0.0000047722   0.0000373256   0.0000408075   0.0000441120
       -0.0210590983   0.0122006203  -0.0145775452  -0.1239735282   0.0432397454
       -0.0507101961   0.0000346448  -0.0002200540  -0.0012205260  -0.0039441583
        0.0056274732   0.0262604604   0.0003527161  -0.0047095605  -0.0219222222
        0.0000578008   0.0018763961   0.0001540629  -0.0036374828  -0.0269652292
       -0.0017314672   0.0000962223   0.0224754794   0.0013353231   0.0010418296
       -0.0004623748   0.0005664584  -0.0007210403  -0.0005254559   0.0005138355
        0.0000850868   0.0000671063  -0.0000716401   0.0000234536   0.0001680272
       -0.0002454959   0.0001383635  -0.0002996052   0.0004029083  -0.0000056970
       -0.0000052060   0.0000810513  -0.0000324533  -0.0000198992  -0.0000050973
       -0.0000068431  -0.0000015433  -0.0000044909  -0.0000026141   0.0000030980
        0.0000032279  -0.0000077144   0.0000064679  -0.0000142997  -0.0000036727
       -0.0000021000  -0.0000012292  -0.0000025090  -0.0000001300  -0.0000023312
       -0.0000008697   0.0000017006   0.0000002881  -0.0000021806   0.0000035608
        0.0000006664  -0.0000043810  -0.0000028531  -0.0000057778   0.0000016205
       -0.0000047243   0.0000029951   0.0000017279  -0.0000114919   0.0000017180
       -0.0000858371   0.0000176423  -0.0000054426   0.0010842337   0.0003302255
       -0.0004034404
        0.0030374092  -0.0626663918  -0.0356872199   0.0048917241   0.4696362652
       -0.0374638019  -0.0071736940  -0.1789645210  -0.0094406138  -0.0308492270
       -0.0749004651   0.0207997537   0.0000478904   0.0021521978  -0.0043443472
        0.0023252748   0.0050584365   0.0024608020   0.0007312169  -0.0009056706
        0.0008613191   0.0001850478   0.0011643616   0.0056321816  -0.0095992970
       -0.0116018584   0.0166409342   0.0042643177  -0.0136386509   0.0192358325
       -0.0008875505   0.0012373691   0.0053421202  -0.0012911787  -0.0010478487
        0.0009761914  -0.0013464405   0.0058652684   0.0013498524  -0.0004896797
        0.0001402659   0.0000028324  -0.0000834746   0.0000016644  -0.0000413444
       -0.0000566998   0.0000203546  -0.0000174136  -0.0000486075   0.0000121065
        0.0000228974   0.0000373001   0.0000514395  -0.0000051855  -0.0000061482
       -0.0000733562  -0.0000090652  -0.0000216903   0.0000630566   0.0000359479
       -0.0000601470  -0.0000063322   0.0000174638   0.0000657809   0.0000089464
       -0.0000294225  -0.0000350750   0.0000131749   0.0000136200   0.0000398355
        0.0000107943   0.0000180276  -0.0000535602  -0.0000093343   0.0000026018
        0.0000563315   0.0000129632  -0.0000070593  -0.0000359371  -0.0000031740
        0.0000046519   0.0000333669  -0.0000099516  -0.0000227336  -0.0000348748
       -0.0000255630  -0.0000082525  -0.0000209305  -0.0000575389   0.0000033316
       -0.0000311486   0.0000926949   0.0000122441   0.0000876617  -0.0000704606
       -0.0000432966  -0.0000117774  -0.0000875591   0.0000281309   0.0000129136
        0.0000188984  -0.0000023588   0.0000322888   0.0001392085  -0.0000312400
        0.0038663633   0.0003044854  -0.0021940037   0.0339160364  -0.0842479933
        0.0325802357   0.0019124744  -0.0096941898  -0.0282718979  -0.0008665513
        0.0019201112   0.0074339998  -0.0002352006   0.0025183455   0.0105811212
       -0.0003919687  -0.0116230579  -0.0042104630  -0.0044679611  -0.0160278391
        0.0004431295   0.0021400651  -0.0198272985   0.0008681925   0.0002028581
       -0.0013177044  -0.0014132669   0.0005310083   0.0002536152  -0.0001013247
        0.0000986607  -0.0007885151  -0.0007785581  -0.0006136369  -0.0005228037
        0.0004529027   0.0004575201  -0.0005958056   0.0004606082  -0.0000732246
       -0.0006835251  -0.0007395330   0.0000326545  -0.0000118460   0.0000004191
        0.0000032870   0.0000019536   0.0000041707   0.0000035976   0.0000015707
       -0.0000057522  -0.0000015751   0.0000029729   0.0000068404   0.0000037056
        0.0000070560   0.0000046948   0.0000011830  -0.0000009215   0.0000009063
       -0.0000006312   0.0000019974   0.0000022305   0.0000008369   0.0000008129
       -0.0000024595  -0.0000071969   0.0000111109   0.0000133724  -0.0000032556
        0.0000101983  -0.0000038309  -0.0000139343   0.0000219981   0.0000149292
        0.0000483379   0.0000787569  -0.0000303644  -0.0002546742  -0.0014242757
       -0.0014236803
        0.0082370729  -0.0264499870  -0.1712801341  -0.0048499608  -0.0374638019
        0.4763184320  -0.0016517221  -0.0181955642  -0.0559479991   0.0340605305
        0.0207337561  -0.0796553011   0.0002489669  -0.0041467443   0.0032904487
       -0.0028455986   0.0023713796   0.0045335261  -0.0008055221   0.0008212215
       -0.0010772293  -0.0004179309   0.0054741613  -0.0000902807   0.0113044425
        0.0164311479  -0.0154348068  -0.0060251785   0.0183813938  -0.0178355043
        0.0012671331   0.0049182295   0.0000861244   0.0004084229   0.0002563410
       -0.0005286987   0.0033057957   0.0022921688   0.0050946960  -0.0010273261
       -0.0002711053   0.0002643435   0.0000364832  -0.0001090869  -0.0001326323
        0.0001617147  -0.0001353988   0.0000239556  -0.0002542969   0.0001845967
        0.0000617800   0.0002632912   0.0002859029  -0.0000005840  -0.0000730238
       -0.0003819263  -0.0000224604  -0.0000012393   0.0002126446   0.0000421282
       -0.0002348071  -0.0000031190   0.0000556549   0.0000925045   0.0000007033
       -0.0000842475  -0.0000087624   0.0000519573   0.0000169404   0.0000177277
       -0.0000018490   0.0000154298   0.0000206058   0.0000009727  -0.0000149879
       -0.0000723561  -0.0000039235   0.0000059915   0.0000423211   0.0000033130
       -0.0000016798  -0.0000006041  -0.0000141363  -0.0000116176  -0.0000172201
       -0.0000538013  -0.0000099987  -0.0000336142  -0.0002606717  -0.0000342301
       -0.0001204221   0.0004481039   0.0000716388   0.0003615116  -0.0002960733
       -0.0001407284  -0.0002079429  -0.0002789720   0.0001075613   0.0001156986
        0.0001727025   0.0000119398   0.0001292252   0.0002937521  -0.0002455894
       -0.0058018134  -0.0019072786   0.0006847259  -0.0381735335   0.0333522979
       -0.0951771614   0.0002792380  -0.0044643679  -0.0066378102   0.0047362703
       -0.0022080530  -0.0169784634  -0.0018955330  -0.0026464181  -0.0218489111
       -0.0014734517  -0.0280291214  -0.0047760413   0.0013650607   0.0096387647
        0.0007069708  -0.0001859800   0.0144072710   0.0008118655  -0.0002015697
       -0.0014333238  -0.0009444325  -0.0005862882  -0.0001448834   0.0002398943
       -0.0000893097  -0.0007639248  -0.0006014344   0.0006981790   0.0004788411
       -0.0006261664  -0.0005000969   0.0004839202  -0.0007427755   0.0000866893
       -0.0006614323  -0.0005148769  -0.0000190157   0.0000010354  -0.0000785650
       -0.0000008625  -0.0000175228   0.0000068691   0.0000119019  -0.0000063747
       -0.0000095902   0.0000128966   0.0000001974   0.0000356059  -0.0000002864
       -0.0000047627   0.0000028825   0.0000041939  -0.0000049513  -0.0000039921
        0.0000006697   0.0000062774   0.0000052547  -0.0000074934   0.0000098630
        0.0000017632   0.0000121216   0.0000109409   0.0000461914   0.0000012065
        0.0000141322  -0.0000255761  -0.0000187620   0.0000114312   0.0000199902
       -0.0000690453   0.0000399764  -0.0000706147   0.0003886937  -0.0014308215
       -0.0009774834
        0.0012664234   0.0015549200   0.0004675273  -0.0612707447  -0.0071736940
       -0.0016517221   0.5209211942  -0.0049910192  -0.0007802492  -0.0043689179
       -0.0245666722  -0.0002980905  -0.0005493050  -0.0002355750   0.0004584769
        0.0004260206   0.0009804035   0.0003796249   0.0001051196  -0.0002396186
        0.0002093400  -0.0001234587   0.0003051624   0.0011917787  -0.0024204105
       -0.0007181347   0.0011883138  -0.0019531831   0.0008361100  -0.0015552310
        0.0001990243  -0.0002757551  -0.0009304389   0.0000506631   0.0002562322
       -0.0001759466   0.0002033754  -0.0009410473  -0.0001307434   0.0001404788
        0.0001376867  -0.0000068948   0.0000049217  -0.0000781798   0.0000354131
       -0.0000002922   0.0000194945   0.0000117268   0.0000284287  -0.0000416329
       -0.0000219754  -0.0000327714  -0.0000225473  -0.0000006606   0.0000081923
        0.0000099007  -0.0000010984  -0.0000060478   0.0000110130   0.0000037710
       -0.0000328558  -0.0000232093  -0.0000015319   0.0000679463   0.0000191641
       -0.0000005962  -0.0000498708  -0.0000008095   0.0000149688   0.0000639476
        0.0000250602   0.0000240577  -0.0001140628  -0.0000101145   0.0000102558
        0.0001631839   0.0000175098  -0.0000152023  -0.0001101957  -0.0000074835
        0.0000108055   0.0000607467  -0.0000149263  -0.0000322241  -0.0000426479
       -0.0000155991  -0.0000020960   0.0000232741   0.0000630154  -0.0000129026
       -0.0000056720  -0.0000503930   0.0000008500  -0.0000228046  -0.0000049845
        0.0000029080   0.0000610741   0.0000537737  -0.0000000362   0.0001652579
       -0.0000099192   0.0000482428  -0.0000310331  -0.0000403725  -0.0000307934
       -0.0004265028   0.0002910145  -0.0005576825  -0.0002936328   0.0202170753
        0.0004101596   0.0005314320   0.0002179230   0.0004343346   0.0004340751
        0.0007548954   0.0000531901   0.0002866258  -0.0005735231  -0.0000440378
       -0.0462042376   0.0045043871   0.0180041901  -0.2290316121  -0.0680407468
        0.0744348696  -0.1773056468   0.0778822509  -0.0909905475  -0.0001514457
       -0.0006309605  -0.0001131855  -0.0000468081  -0.0001028223  -0.0000367982
        0.0000095811  -0.0001899240  -0.0000837589  -0.0001461846  -0.0000913543
        0.0002052829  -0.0000935799   0.0001077711  -0.0001787097   0.0000244538
        0.0001192137   0.0000311688   0.0000163119  -0.0000194606   0.0000059314
        0.0000009936   0.0000159370  -0.0000013092  -0.0000082728   0.0000115210
        0.0000027469  -0.0000154243   0.0000119148  -0.0000054417  -0.0000012990
        0.0000065994   0.0000022291  -0.0000078213   0.0000027009   0.0000054780
       -0.0000084716  -0.0000005584  -0.0000024382  -0.0000027446  -0.0000011237
       -0.0000041524  -0.0000261480   0.0000006176   0.0000008876  -0.0000383170
       -0.0000126361   0.0000098391  -0.0000148971   0.0000059076  -0.0000069684
       -0.0001294171   0.0000155010  -0.0000461441  -0.0001760086   0.0006701208
        0.0000612391
       -0.0004121451  -0.0151669538  -0.0074352121  -0.0062982624  -0.1789645210
       -0.0181955642  -0.0049910192   0.4383889298  -0.0090082134  -0.0092853622
       -0.0166527196   0.0032750861   0.0014434397  -0.0000899163  -0.0000034453
       -0.0002637072   0.0001126901   0.0007306295   0.0000139354   0.0000412768
       -0.0000571511  -0.0001608778   0.0000115374   0.0007319429  -0.0011340007
       -0.0001932674  -0.0008304323   0.0014383604  -0.0004983957  -0.0003523113
        0.0000146929  -0.0000067995   0.0008394500  -0.0000971448  -0.0000071229
        0.0000227617   0.0001036616   0.0002886332   0.0007257744  -0.0000887768
       -0.0000235367   0.0000040096   0.0000493692  -0.0000690599  -0.0000581248
       -0.0000978592   0.0000371019   0.0000125926   0.0000281847  -0.0000418822
        0.0000133102  -0.0000176108  -0.0000282592  -0.0000038314   0.0000280880
        0.0000070482   0.0000013933  -0.0000182687   0.0000072532   0.0000060970
        0.0000035235  -0.0000243984   0.0000046867   0.0000543367   0.0000160033
       -0.0000178036  -0.0000394530  -0.0000054453   0.0000075784   0.0000472413
        0.0000127688   0.0000189591  -0.0000742516  -0.0000101912   0.0000055954
        0.0000963724   0.0000134840  -0.0000122372  -0.0000590411  -0.0000044381
        0.0000070483   0.0000415127  -0.0000098975  -0.0000247962  -0.0000316154
       -0.0000140512  -0.0000056059  -0.0000087011   0.0000372665   0.0000098437
        0.0000022641  -0.0000238575  -0.0000046705   0.0000073481   0.0000113801
       -0.0000132949   0.0000640160  -0.0000467149  -0.0000114225  -0.0000237847
       -0.0000352081   0.0000082459   0.0000224363   0.0000579306   0.0000012368
       -0.0014717847  -0.0000821051  -0.0001917928   0.0065518791  -0.0207824804
        0.0046405089   0.0001152886  -0.0004855882  -0.0020567853  -0.0001913046
        0.0006322118   0.0009583648   0.0000674162   0.0007141130   0.0009928879
        0.0045423098  -0.0553838494  -0.0543025210  -0.0675591989  -0.0656536162
        0.0272832142   0.0774719902  -0.0860095817   0.0527652942   0.0003091289
       -0.0000621915  -0.0001342463   0.0000453956  -0.0000120247  -0.0000139322
        0.0000372454  -0.0000506433  -0.0001112197  -0.0000618559   0.0000575793
        0.0000195514   0.0000799020   0.0000286149   0.0000535188  -0.0000165250
       -0.0000613088  -0.0001129791   0.0000263103   0.0000247458  -0.0000062160
        0.0000080122   0.0000204873   0.0000021060   0.0000062625   0.0000080397
       -0.0000030254  -0.0000005849   0.0000041379   0.0000077059   0.0000021930
        0.0000073369   0.0000054105  -0.0000021364  -0.0000009671   0.0000025009
       -0.0000004832   0.0000010243  -0.0000004040   0.0000017601  -0.0000000500
       -0.0000028861  -0.0000148712   0.0000132672   0.0000042857  -0.0000036897
        0.0000064168   0.0000005948  -0.0000042751   0.0000301836   0.0000185777
       -0.0000420049   0.0000223220  -0.0000277255  -0.0002532806  -0.0001127418
       -0.0001829132
       -0.0009591992  -0.0293341223  -0.0097040201  -0.0010767652  -0.0094406138
       -0.0559479991  -0.0007802492  -0.0090082134   0.5205242801   0.0024903584
        0.0095687740   0.0005483873   0.0000065185   0.0005277093  -0.0000530610
       -0.0000103984  -0.0003247740  -0.0002631628  -0.0001298537   0.0000677438
       -0.0000686459   0.0001071295  -0.0001891040  -0.0005125840   0.0005988396
        0.0006985197  -0.0008162422  -0.0006448313   0.0009347203  -0.0012317220
       -0.0000281600  -0.0001943633  -0.0007069858   0.0001963532   0.0001321548
       -0.0000996385  -0.0000028729  -0.0005698274  -0.0002162497   0.0000544605
        0.0000550135  -0.0000252062   0.0000146572  -0.0000887778   0.0000186482
       -0.0000203503   0.0000663576   0.0000060734   0.0000514697  -0.0000625340
       -0.0000080772  -0.0000521115  -0.0000391397   0.0000084911   0.0000206880
        0.0000448057  -0.0000075750  -0.0000107004  -0.0000007481   0.0000056811
       -0.0000080087  -0.0000177676   0.0000039502   0.0000715918   0.0000115858
       -0.0000046252  -0.0000657334  -0.0000042502   0.0000062224   0.0000738435
        0.0000179130   0.0000248001  -0.0001314561  -0.0000070637   0.0000073798
        0.0001861945   0.0000112002  -0.0000148814  -0.0001171730  -0.0000091906
        0.0000135517   0.0000692239  -0.0000107976  -0.0000311093  -0.0000606948
       -0.0000095952  -0.0000043408   0.0000049640   0.0000543994  -0.0000016676
        0.0000171855  -0.0000669894  -0.0000122733  -0.0000316765   0.0000290360
        0.0000077949   0.0000812756   0.0000935431  -0.0000326146   0.0000911370
       -0.0000355461  -0.0000684736   0.0000170430  -0.0000184727   0.0000066741
        0.0000349219   0.0006308082  -0.0001372509  -0.0015092064   0.0138094873
        0.0002827579   0.0003509493  -0.0030877093  -0.0057016084  -0.0005586185
       -0.0006051150   0.0009888955   0.0003271678  -0.0008161764   0.0010333617
        0.0180893218  -0.0542434672  -0.2679911982   0.0744450497   0.0276536114
       -0.0740747099  -0.0909245222   0.0533102668  -0.1059893799  -0.0001657224
        0.0000017707   0.0000939341   0.0000243942   0.0000205512   0.0000221316
        0.0000239929   0.0000854605   0.0000661370   0.0000626896   0.0000471164
       -0.0000895587  -0.0000561492   0.0000686472  -0.0001265622  -0.0000183464
        0.0000962106   0.0000646374   0.0000095568  -0.0000142010   0.0000018281
        0.0000004001   0.0000127716   0.0000011987  -0.0000084980   0.0000079488
        0.0000025363  -0.0000113686   0.0000035480   0.0000051732   0.0000070475
        0.0000063633   0.0000069337  -0.0000077373  -0.0000011374   0.0000038750
       -0.0000069859  -0.0000009608  -0.0000013114   0.0000043091  -0.0000031487
       -0.0000000081  -0.0000187436   0.0000022914   0.0000048307  -0.0000257999
       -0.0000132555   0.0000112340  -0.0000180303   0.0000112801   0.0000184290
       -0.0001870777   0.0000110018   0.0000246859   0.0001143072   0.0001244505
        0.0001282288
       -0.0050322484  -0.0010922856   0.0099008078  -0.1500339642  -0.0308492270
        0.0340605305  -0.0043689179  -0.0092853622   0.0024903584   0.7017489989
       -0.0387346566   0.0465650603  -0.3139142228   0.0749206358  -0.0860758244
       -0.0656269664  -0.0377219948   0.0423848261  -0.0257994807   0.0226973220
       -0.0258711172   0.0413541324  -0.0062943201   0.0072402995  -0.0888428463
        0.0039490902  -0.0046448541  -0.0299112942   0.0195056416  -0.0223828038
       -0.0020234042  -0.0021564091   0.0022147439  -0.0030438722  -0.0006528495
        0.0001885201   0.0002583613   0.0008449725  -0.0011941183  -0.0010549544
        0.0000468018   0.0000499451   0.0000487272  -0.0001829471   0.0002929440
        0.0000563928  -0.0001247115   0.0000249421  -0.0003570219   0.0001131670
       -0.0000066859   0.0003259315   0.0003504144   0.0000585977  -0.0000016423
       -0.0004771923  -0.0000552399   0.0000058021   0.0004585199   0.0000550060
       -0.0003939258  -0.0000333866   0.0000374570   0.0004010195   0.0000261309
       -0.0000313895  -0.0002346882   0.0000768774   0.0000795040   0.0002289590
        0.0000779813   0.0000660280  -0.0003777656  -0.0000227017   0.0000302044
        0.0004929835   0.0000306148  -0.0000394024  -0.0003192672  -0.0000236415
        0.0000275643   0.0002220626  -0.0000475917  -0.0001050825  -0.0002278821
       -0.0001160860  -0.0000326302   0.0000604761  -0.0004631837  -0.0000547596
       -0.0000686923   0.0004787187   0.0000729062   0.0004144301  -0.0003243673
       -0.0001171266  -0.0003319961  -0.0002032236   0.0001040766   0.0000966328
        0.0001362950   0.0000397344   0.0000535249   0.0002614034  -0.0002794859
       -0.0024535120   0.0023040140  -0.0022386590  -0.0402546976   0.0015958876
       -0.0017564222   0.0001609082  -0.0000525124  -0.0003828642   0.0001526122
        0.0000374465   0.0000213848   0.0005843837   0.0001668423  -0.0009100801
        0.0001903625   0.0003926004   0.0000305187   0.0001903626   0.0000492302
       -0.0000370133   0.0005470070   0.0007582769  -0.0003030664  -0.0069080746
        0.0037163196  -0.0042979424  -0.0030474370  -0.0022886189   0.0025796906
        0.0002217840   0.0005465377  -0.0006127528  -0.0026980042  -0.0023445803
        0.0026379038   0.0000716566  -0.0000873207   0.0002324121  -0.0003992218
       -0.0000133267   0.0000467572   0.0000041518  -0.0000698714  -0.0000234272
        0.0000054778   0.0000197331  -0.0000067091  -0.0000115049   0.0000155185
        0.0000023408  -0.0000178466  -0.0000011310   0.0000069116   0.0000115454
        0.0000033245   0.0000020042  -0.0000083882  -0.0000030331   0.0000169453
       -0.0000096025   0.0000013930  -0.0000175745   0.0000122591   0.0000005660