99
 energy: -160.482203457671 gnorm: 0.000108202267 xtb: 6.7.1 (edcfbbe)
C           -3.79301726933136       -4.93643753402075       -2.57631971311356
C           -2.62339789274250       -5.34976563247318       -1.94974418552452
C           -1.72809124279211       -4.42786582542143       -1.45899310310198
C           -1.98563610836404       -3.04986617309086       -1.57993744010175
C           -1.08373865452021       -2.08872438944909       -1.04755877078578
N           -1.36934008025689       -0.76658851547200       -1.15228630888166
C           -0.46108483067366        0.05845242695222       -0.73074013606071
N           -0.70121001076894        1.42005669600860       -0.85789000585184
C            0.24989053819207        2.25888585534293       -1.42122130905647
C            1.52820947999748        1.96989894286891       -1.87136911474627
C            2.28444792684863        3.01068096986371       -2.38114850366748
C            1.77447268920612        4.30357602042965       -2.46239765599436
C            0.48130765799471        4.58550625575908       -2.06407951497890
C           -0.29451115160341        3.55358592675074       -1.55089040798173
C           -1.64909678793202        3.47304417619034       -1.09169513929172
C           -2.64060177616052        4.44609876779076       -1.08439675272879
C           -3.90054344555423        4.11087645941451       -0.63803268971200
C           -4.12424438674423        2.82721074913192       -0.15130917557893
C           -5.31321971879126        2.26693435945377        0.41678813264422
C           -6.58878823949808        2.77159880809429        0.63405106835592
C           -7.51457730269310        1.96903976023500        1.27250495385299
C           -7.16943646726940        0.69481500808141        1.71394020078954
C           -5.90347714488144        0.17539606286614        1.50700508842526
C           -4.98286642362116        0.95867010638400        0.82474426626671
N           -3.65838659803393        0.69928055123973        0.50218696044573
C           -3.03782079706593       -0.47412442123278        0.95757265996155
C           -3.64787813152460       -1.70575313550585        0.73341709490543
C           -3.10059505241257       -2.85499855901725        1.27127516176690
C           -1.94352212427239       -2.78755023042075        2.02806924641401
C           -1.33047417636527       -1.56364354234825        2.24343043772266
C           -1.87725448366464       -0.40742448850853        1.72267052126919
C           -3.11640447043921        1.81965515244276       -0.09528463961653
C           -1.86605530376906        2.13068354375782       -0.65190031326394
N            0.76011441023306       -0.27259014193663       -0.23859395631112
C            0.95065400846486       -1.59249692006371       -0.12726735231793
N            2.19231668792235       -2.02164561520339        0.30843787260494
C            2.52270275713766       -3.38169663201389        0.29078210813639
C            1.73034669508670       -4.47364043368131        0.59343553481612
C            2.30679519035786       -5.73046184289304        0.51029495532838
C            3.63729369619226       -5.89458614677749        0.13815068860544
C            4.43608502224846       -4.80339610619724       -0.14699281965589
C            3.87762647296080       -3.53531371849688       -0.06240149812235
C            4.40913649236026       -2.21317552111881       -0.25483996988292
C            5.65006113239442       -1.78635507218418       -0.71953454974483
C            5.88465917014353       -0.43533778116511       -0.86300210154405
C            4.92192074760546        0.46874422731368       -0.42089833927448
C            4.95459932181110        1.89747143049757       -0.31018164878355
C            5.88067867630607        2.84952319068589       -0.71427369712480
C            5.64112227505881        4.17495687178671       -0.40997235529871
C            4.51332372091946        4.54264144254463        0.31756668497595
C            3.58230327387947        3.60837174949041        0.73382578544779
C            3.78587424794175        2.28021351456517        0.38704690327853
N            3.02830044519314        1.15094393538386        0.66146176826199
C            2.04814865344644        1.11064892248351        1.66052080412368
C            1.06255899446546        2.09247578763919        1.73909149080138
C            0.20397610005950        2.12790584857543        2.82176033609254
C            0.31206199036848        1.19012370659436        3.83696850791279
C            1.27341006545298        0.19629403835885        3.74747882999426
C            2.13880756737727        0.15440768978356        2.67132900077070
C            3.68620985947698        0.05161877451208        0.14071400258356
C            3.37116124711771       -1.30527901061273        0.07889762849650
N            0.07705082346737       -2.49889072567856       -0.45736210761727
C           -3.16365269284240       -2.64393466667370       -2.23477907190767
C           -4.04917817221464       -3.57736238835403       -2.71990074218753
H           -4.49370743117629       -5.66510134694713       -2.95653995525399
H           -2.41553952985265       -6.40618468013682       -1.84847980792630
H           -0.81411309724773       -4.74198249135362       -0.97964497810909
H            1.92005959111487        0.96722636750393       -1.82754713461311
H            3.28800236857919        2.81438794344012       -2.72631060437343
H            2.39731749003615        5.09172726732999       -2.85782952699428
H            0.07892961942752        5.58329533406497       -2.15068395834928
H           -2.41916566763130        5.43974068664700       -1.44064729248127
H           -4.70561775455840        4.82831114432190       -0.64426665924384
H           -6.84551715851001        3.76986915905786        0.31473807883956
H           -8.51436092820077        2.33705339077037        1.44739900794315
H           -7.90304382599412        0.09832952000525        2.23497712077032
H           -5.64735237865052       -0.80295581026364        1.88185266742091
H           -4.52149738951520       -1.76396230932918        0.10364119267586
H           -3.57024499097648       -3.80754351739403        1.07920086218655
H           -1.51431512986385       -3.68697668011994        2.44290785586741
H           -0.42150204013493       -1.50285430333003        2.82298379593852
H           -1.41096083948080        0.54881352634658        1.90461086667346
H            0.70123437247136       -4.34522614275157        0.88410794161378
H            1.71128833411563       -6.60078352468948        0.74243894992876
H            4.05185918599372       -6.89015285584184        0.08059694957582
H            5.47233371000797       -4.92964315142410       -0.42148610908354
H            6.40077332418530       -2.51308677321119       -0.98723564292210
H            6.81568205294054       -0.07276737880360       -1.26944632330146
H            6.76741797364384        2.55431500731787       -1.25431559373390
H            6.34166655626647        4.93440442857574       -0.72338147452202
H            4.36127696977245        5.58169598910473        0.56850702581526
H            2.73561403254593        3.92134128350674        1.32189155176837
H            0.95699439454631        2.81045342111885        0.94243003076881
H           -0.55422818923571        2.89706990831658        2.87378120482881
H           -0.35506505292916        1.22701722176015        4.68493889728314
H            1.36612814322554       -0.53789346969697        4.53501771209286
H            2.90857110106807       -0.60157732150643        2.62452586308374
H           -3.34916260396224       -1.58681704735509       -2.34901951881757
H           -4.95199316454987       -3.25334509007482       -3.21954100516081
