$hessian                                                                        
        0.5385578434   0.0114658962   0.2270993277  -0.2473512516   0.0958031890
       -0.1064259302  -0.0486483601  -0.0495999839  -0.0271026863  -0.0209102399
        0.0303379920  -0.0073689920  -0.0016392218  -0.0007718695  -0.0007518796
        0.0001630856   0.0013068613   0.0002104663  -0.0004700565  -0.0003794293
       -0.0002435631  -0.0000276715   0.0002963931  -0.0000326647  -0.0000967608
       -0.0000925863   0.0000327499   0.0000046668   0.0000211665  -0.0000093038
       -0.0000041894  -0.0000312823   0.0000167454  -0.0000077506   0.0000146713
       -0.0000042083   0.0000058865  -0.0000003917  -0.0000001446  -0.0000348235
        0.0000172945   0.0000053678   0.0000582417  -0.0000166416   0.0000004536
       -0.0000217227   0.0000315173  -0.0000083275   0.0000038270   0.0000265435
       -0.0000082401   0.0000038682  -0.0000412849   0.0000120376   0.0000156942
        0.0000142301  -0.0000159784   0.0000065175   0.0000179241  -0.0000116197
       -0.0000315318   0.0000143269   0.0000006822   0.0000415950  -0.0000409174
        0.0000094590  -0.0000011419   0.0000241425  -0.0000129244   0.0000854447
       -0.0000241310  -0.0000077598  -0.0000592391   0.0000884454  -0.0000199044
       -0.0000697883  -0.0001112644  -0.0001192501   0.0001512101   0.0001160260
        0.0000430979  -0.0001735855  -0.0002018172   0.0000712629  -0.0000793556
       -0.0000466219  -0.0000636863   0.0000645915   0.0001569027   0.0000356580
        0.0000527489  -0.0000106371   0.0000466854  -0.0000412790  -0.0000362117
        0.0000322379   0.0001247977  -0.0000619402   0.0000054564   0.0001931792
       -0.0001376596   0.0001313827  -0.0001426356  -0.0000441076  -0.0000968162
        0.0001398316  -0.0000293720   0.0000114930   0.0000269601   0.0000382383
       -0.0000079067   0.0000348784  -0.0000071578  -0.0000514238  -0.0000148235
       -0.0000199391   0.0000211073  -0.0000075312   0.0000263732   0.0000086607
       -0.0000184853   0.0000113114   0.0000044331   0.0000260150  -0.0000133830
       -0.0000030851  -0.0000132858  -0.0000239236   0.0000067216  -0.0000049804
        0.0000096056   0.0000021885  -0.0000074234  -0.0000063083   0.0000033443
       -0.0000173217  -0.0000026860   0.0000055076  -0.0000025266  -0.0000107101
       -0.0000000327  -0.0000067015  -0.0000046605   0.0000022704  -0.0000030260
        0.0000014979   0.0000017449  -0.0000043870  -0.0000089128   0.0000024135
        0.0000052382  -0.0000035949  -0.0000031209  -0.0000180812  -0.0000133028
        0.0000059318   0.0000107178   0.0000144781   0.0000041348  -0.0000018081
        0.0000135887  -0.0000173415  -0.0000067558  -0.0000015554   0.0000202261
        0.0000220911  -0.0000034972  -0.0000133173  -0.0000002003   0.0000073618
       -0.0000039245  -0.0000056505  -0.0000000044   0.0000136801   0.0000111606
        0.0000006179  -0.0000058422   0.0000099879   0.0000105889  -0.0000112635
       -0.0000548336  -0.0000249194   0.0000104711   0.0003793471  -0.0002418602
        0.0001690188   0.0365949410  -0.0065948516   0.0191975640  -0.0930955473
        0.0077899432  -0.0248131490  -0.1508736197  -0.1121855658  -0.0628769985
       -0.0059265303   0.0040581140  -0.0038055994  -0.0001561396  -0.0027633376
       -0.0046962853   0.0000033108  -0.0000011131  -0.0000026527   0.0000042719
       -0.0000014762  -0.0000036380   0.0000002864   0.0000010938  -0.0000062912
       -0.0000056313   0.0000050652  -0.0000007870   0.0000001150  -0.0000004865
       -0.0000034344   0.0000005780   0.0000064845   0.0000005263  -0.0000072101
       -0.0000007261  -0.0000012217   0.0000007550   0.0000047758   0.0000029694
       -0.0000122116   0.0000041723   0.0000076738   0.0000060998  -0.0000151005
       -0.0000059383  -0.0000253168  -0.0000537884   0.0000056282   0.0001107800
        0.0000357307  -0.0001145841  -0.0000016232  -0.0000185816   0.0000118315
        0.0000223129   0.0000144624   0.0000123276   0.0000123149  -0.0000036813
       -0.0000108213  -0.0000032764  -0.0000502584   0.0000641490  -0.0000195460
        0.0000054183  -0.0000112336  -0.0000071092  -0.0000033614  -0.0000007840
        0.0000066913   0.0000019132  -0.0000051485   0.0000009082  -0.0000050578
       -0.0000043462   0.0000050209   0.0000036099  -0.0000046360   0.0000021741
       -0.0000013593  -0.0000035831   0.0000016820   0.0000020511  -0.0000027538
       -0.0000025807   0.0000043291   0.0000011185  -0.0000014321   0.0000020414
       -0.0000005491  -0.0000027551  -0.0000012711  -0.0000058004  -0.0000059088
        0.0000007098  -0.0000019994  -0.0000009739  -0.0000032368   0.0000042856
       -0.0000008585  -0.0000058503   0.0000000085   0.0000017007  -0.0000056754
        0.0000001414  -0.0001508581  -0.0031294631  -0.0045390748  -0.0066758130
        0.0250817084  -0.0040121945
        0.0114658962   0.6584235883   0.0060237365   0.0255976544  -0.1183357725
        0.0129704587   0.0029496728   0.0533152518   0.0017553239   0.0299842744
       -0.0318432572   0.0165516550  -0.0006447207  -0.0016177404  -0.0002702959
       -0.0001032746   0.0001410089  -0.0002580733  -0.0000092231  -0.0000528121
        0.0000153972   0.0000035320   0.0000568464  -0.0000616122  -0.0000025110
       -0.0000095386   0.0000195671   0.0000059025   0.0000015061  -0.0000035019
       -0.0000247486  -0.0000079459   0.0000060600  -0.0000083374  -0.0000192240
        0.0000084289   0.0000109860  -0.0000107649   0.0000005813  -0.0000205637
        0.0000000952   0.0000072491  -0.0000000229   0.0000066649  -0.0000096422
       -0.0000026273  -0.0000205510   0.0000087500   0.0000161253  -0.0000092657
       -0.0000003382  -0.0000195202   0.0000212951  -0.0000061327   0.0000200702
       -0.0000060039   0.0000000084  -0.0000093798  -0.0000185168   0.0000147879
        0.0000321555  -0.0000002758  -0.0000052603   0.0000251116   0.0000256436
       -0.0000174856  -0.0000045632  -0.0000148953   0.0000358836  -0.0000117029
        0.0000044472   0.0000234596  -0.0000729209   0.0001048887  -0.0000411156
        0.0001313414  -0.0000505419   0.0002391730  -0.0002316495  -0.0000478012
       -0.0000873265   0.0000144212  -0.0000608796  -0.0001516332   0.0001034203
        0.0001492238   0.0000873374   0.0000355022  -0.0002265619   0.0000101283
       -0.0000595799   0.0001459874  -0.0000716992  -0.0000220380   0.0000132865
       -0.0000003755   0.0000013833   0.0000414602   0.0000052558  -0.0001410326
        0.0002357921  -0.0000798152  -0.0004706649  -0.0004870483  -0.0001432147
        0.0003121004  -0.0000799751   0.0000999619  -0.0000610037   0.0001460685
        0.0000053483   0.0000286892  -0.0000285273  -0.0000570698  -0.0000411335
        0.0000557289   0.0000076371   0.0000104567  -0.0000260328   0.0000026459
        0.0000280920  -0.0000187754  -0.0000064635  -0.0000019244   0.0000616617
        0.0000105887   0.0000020147  -0.0000199586   0.0000084976   0.0000116856
        0.0000160255  -0.0000009188   0.0000188241  -0.0000261428  -0.0000102303
       -0.0000406174   0.0000128540   0.0000232314   0.0000064272  -0.0000065671
       -0.0000040454  -0.0000051007   0.0000001563   0.0000032861  -0.0000010298
       -0.0000040279   0.0000010693  -0.0000030399  -0.0000049580   0.0000016114
        0.0000100325   0.0000009510  -0.0000041201  -0.0000185432  -0.0000142983
        0.0000078863   0.0000049063   0.0000271036   0.0000020775   0.0000112510
       -0.0000173087  -0.0000077121   0.0000090921   0.0000055729  -0.0000157214
       -0.0000154553   0.0000076799   0.0000114269   0.0000088120  -0.0000064182
        0.0000075876   0.0000140259   0.0000051720  -0.0000257515  -0.0000158454
        0.0000088223   0.0000118800   0.0000328294  -0.0000042961  -0.0000148092
       -0.0000987736  -0.0000722531   0.0000020613   0.0011947037   0.0002335260
        0.0006193698  -0.0590856443  -0.0570191091  -0.0320688619   0.0778320143
       -0.3161169629   0.0433851655  -0.1121760162  -0.1596262490  -0.0608206885
        0.0251002604  -0.0122040135   0.0136101793  -0.0031091037  -0.0020163365
       -0.0016687452   0.0000058519  -0.0000021168   0.0000014865   0.0000057057
       -0.0000054617  -0.0000008683   0.0000019387   0.0000061709  -0.0000049067
       -0.0000054943   0.0000007685  -0.0000015726   0.0000057740   0.0000025948
       -0.0000059446  -0.0000029000  -0.0000016134  -0.0000001548   0.0000017454
        0.0000090651  -0.0000045836  -0.0000108319   0.0000083055  -0.0000007579
        0.0000015481  -0.0000058298   0.0000031384   0.0000027403   0.0000036180
       -0.0000190130   0.0000960305  -0.0001380143  -0.0000428425  -0.0000463676
        0.0001220669  -0.0000806783   0.0000149871  -0.0000035196   0.0000113828
        0.0000154637   0.0000111708  -0.0000009419   0.0000050995   0.0000264383
        0.0000210222  -0.0000167411   0.0000483470   0.0000239457   0.0000013436
       -0.0000423598  -0.0000009469   0.0000070631   0.0000007812   0.0000009297
       -0.0000055463  -0.0000039492  -0.0000043550   0.0000043617  -0.0000001793
       -0.0000026191  -0.0000005359   0.0000023787  -0.0000063228   0.0000013124
       -0.0000033623  -0.0000039579   0.0000015002   0.0000009281  -0.0000036212
       -0.0000004296   0.0000010523   0.0000008489  -0.0000029304   0.0000026941
        0.0000005595   0.0000002944   0.0000009977   0.0000007431  -0.0000007143
       -0.0000000140   0.0000003968  -0.0000067469  -0.0000005042  -0.0000018006
       -0.0000022655  -0.0000003857   0.0000070270   0.0000026983  -0.0000019360
       -0.0000044903  -0.0027631133  -0.0020005107  -0.0016122012   0.0041878043
       -0.0111543223   0.0020390047
        0.2270993277   0.0060237365   0.2406634874  -0.1070026187   0.0512784774
       -0.1056952742  -0.0269847197  -0.0266316378  -0.0133307922  -0.0076339173
        0.0163677707  -0.0108458876  -0.0007686992  -0.0003827373  -0.0006447251
        0.0001236749   0.0007109268   0.0001023895  -0.0002905197  -0.0002188828
       -0.0000883750  -0.0000140577   0.0001567378  -0.0000253578  -0.0000521393
       -0.0000438909   0.0000140729   0.0000026745   0.0000091320  -0.0000040610
       -0.0000003544  -0.0000160538   0.0000090340  -0.0000047039   0.0000098901
       -0.0000020398   0.0000022730  -0.0000004831   0.0000008639  -0.0000151633
        0.0000102073   0.0000020439   0.0000334274  -0.0000067335  -0.0000000762
       -0.0000102731   0.0000178026  -0.0000046541  -0.0000008303   0.0000147421
       -0.0000031697   0.0000032458  -0.0000240326   0.0000066855   0.0000046935
        0.0000076023  -0.0000063809   0.0000098764   0.0000105448  -0.0000082348
       -0.0000212479   0.0000076586   0.0000015179   0.0000208964  -0.0000211762
        0.0000049637   0.0000014150   0.0000178712  -0.0000118498   0.0000659015
       -0.0000168933  -0.0000140263  -0.0000374518   0.0000360739   0.0000049325
       -0.0000362391  -0.0000473285  -0.0000716314   0.0000217983   0.0000670605
        0.0000339657  -0.0000612548  -0.0000583782   0.0000722163  -0.0000182346
       -0.0000389835  -0.0000055709   0.0000382687   0.0000855369   0.0000183777
        0.0000199899  -0.0000017763   0.0000219089  -0.0000287719  -0.0000279434
        0.0000183456   0.0000663088  -0.0000370907   0.0000042032   0.0001190803
       -0.0000789495   0.0000601375  -0.0000950998  -0.0000216277   0.0000012110
        0.0000645328  -0.0000083409   0.0000018212   0.0000261226   0.0000105165
       -0.0000081714   0.0000142765   0.0000032751  -0.0000109815  -0.0000007610
       -0.0000157648   0.0000092312  -0.0000034562   0.0000121121   0.0000031537
       -0.0000085050   0.0000066665   0.0000022552   0.0000169418  -0.0000067699
       -0.0000049627  -0.0000028347  -0.0000110932   0.0000020398  -0.0000035701
        0.0000050816   0.0000022132  -0.0000050592  -0.0000028748   0.0000027105
       -0.0000072934  -0.0000036212   0.0000025683  -0.0000026513  -0.0000037455
        0.0000012967  -0.0000032534  -0.0000020711   0.0000014499  -0.0000019465
        0.0000002997   0.0000012554  -0.0000010267  -0.0000046768   0.0000007806
        0.0000025513  -0.0000046365  -0.0000020657  -0.0000062989  -0.0000010566
        0.0000018402  -0.0000013898   0.0000072481   0.0000063049   0.0000020102
        0.0000091326  -0.0000134326  -0.0000059864  -0.0000009348   0.0000128420
        0.0000135886  -0.0000027297  -0.0000093804  -0.0000011531   0.0000048145
       -0.0000029444  -0.0000043589  -0.0000011164   0.0000094643   0.0000074443
       -0.0000019230  -0.0000032976   0.0000078776   0.0000020990  -0.0000073351
       -0.0000222205  -0.0000094886   0.0000029980   0.0002183911  -0.0001443839
        0.0000503987   0.0192234476  -0.0036025028   0.0117084316  -0.0245272483
        0.0047978727  -0.0620388898  -0.0628447491  -0.0607792245  -0.0689776725
       -0.0034350958   0.0021048755  -0.0011646388  -0.0045126385  -0.0016125565
        0.0058057011   0.0000017626  -0.0000002149  -0.0000020890   0.0000015455
       -0.0000008096  -0.0000019495  -0.0000001658  -0.0000000835  -0.0000033416
       -0.0000029815   0.0000031281  -0.0000006422  -0.0000000724  -0.0000008605
       -0.0000019479   0.0000005441   0.0000043062  -0.0000002027  -0.0000053940
       -0.0000010964  -0.0000000670  -0.0000000613   0.0000022339   0.0000020239
       -0.0000108865   0.0000024670   0.0000068983   0.0000063302  -0.0000088251
        0.0000010209   0.0000162104   0.0000077057   0.0000319904   0.0000426731
       -0.0000055028  -0.0000598463  -0.0000035696  -0.0000020022   0.0000016283
        0.0000091865   0.0000042218   0.0000047793   0.0000079678  -0.0000029670
       -0.0000044685  -0.0000158888  -0.0000352981   0.0000229358  -0.0000121327
        0.0000061551  -0.0000068947  -0.0000038013  -0.0000014827  -0.0000012860
        0.0000031469   0.0000013299  -0.0000025141  -0.0000001570  -0.0000025398
       -0.0000022983   0.0000019897   0.0000017838  -0.0000024753   0.0000005908
       -0.0000007105  -0.0000016988   0.0000006056   0.0000009351  -0.0000013827
       -0.0000015182   0.0000024759   0.0000006800  -0.0000013150   0.0000016197
        0.0000002008  -0.0000013174  -0.0000009321  -0.0000030290  -0.0000033807
        0.0000005373  -0.0000008049  -0.0000002384  -0.0000019288   0.0000028214
       -0.0000000968  -0.0000030059  -0.0000004720   0.0000001524  -0.0000027480
        0.0000001919  -0.0046787209  -0.0016603374   0.0057631512  -0.0041032506
        0.0137907912  -0.0014041456
       -0.2473512516   0.0255976544  -0.1070026187   0.5287763441  -0.0034326493
        0.2223078540  -0.1871181927  -0.0721151990  -0.0761446369   0.0318033881
       -0.0573948435   0.0160428075   0.0055851579   0.0048788111  -0.0011003028
        0.0001048735  -0.0026992097  -0.0000676472   0.0005972669   0.0011403081
        0.0008182112   0.0001456394  -0.0006498607  -0.0000132145   0.0002090997
        0.0001591547  -0.0000365757  -0.0000657202  -0.0000211475   0.0000357077
        0.0000204878   0.0000478021  -0.0000316995   0.0000324117  -0.0000286467
       -0.0000002204  -0.0000347721  -0.0000079761   0.0000087611   0.0000575881
       -0.0000329915  -0.0000108156  -0.0000663656  -0.0000385492   0.0000225449
        0.0000463289  -0.0000022817  -0.0000042990  -0.0000186414  -0.0000548940
        0.0000275151  -0.0000454369   0.0000818046  -0.0000154996   0.0000159405
       -0.0000298074   0.0000079758  -0.0000118706   0.0000013371   0.0000077742
        0.0000157057   0.0000069470  -0.0000031662   0.0000030156   0.0000048942
       -0.0000019501   0.0000100040  -0.0000207797   0.0000150788  -0.0000546216
        0.0000233167  -0.0000001885   0.0000382066   0.0000958095  -0.0000495769
        0.0001200014   0.0000681113   0.0002509368  -0.0001388557  -0.0001410938
       -0.0001183885  -0.0001330797  -0.0000429313  -0.0000950841   0.0000942822
        0.0001338947   0.0000958079   0.0000391714  -0.0002477872  -0.0000193552
       -0.0001713406   0.0001465076  -0.0001829212   0.0000220575  -0.0000972702
        0.0000221471  -0.0002779501   0.0001604522  -0.0000217564  -0.0004077720
       -0.0002299342  -0.0003899123   0.0007531288   0.0004919761   0.0005142812
       -0.0004244206   0.0001343223  -0.0001468650   0.0000153378  -0.0000386690
        0.0000090602   0.0000501569   0.0000046763  -0.0001627397   0.0000064798
       -0.0000973280  -0.0000126576   0.0000106166  -0.0000065828   0.0000154270
       -0.0000123712   0.0000172962   0.0000020652  -0.0000276182  -0.0000469138
        0.0000123463  -0.0000369569   0.0000476266  -0.0000018460  -0.0000003970
       -0.0000316471  -0.0000018833  -0.0000160042   0.0000226938   0.0000079028
        0.0000432248  -0.0000071684  -0.0000236660  -0.0000143070   0.0000019300
        0.0000048938   0.0000142754   0.0000037070  -0.0000082518   0.0000065623
        0.0000006490  -0.0000046677  -0.0000010915   0.0000052084   0.0000009856
       -0.0000106742   0.0000015773   0.0000038051   0.0000348428   0.0000177165
       -0.0000074133   0.0000095152  -0.0000494124  -0.0000345691  -0.0000146407
        0.0000057589   0.0000448701   0.0000016092  -0.0000127742  -0.0000107305
       -0.0000093537   0.0000012460   0.0000098148  -0.0000029917   0.0000047362
        0.0000031707  -0.0000020388  -0.0000076406   0.0000112757  -0.0000026946
        0.0000037755  -0.0000087819  -0.0000593003   0.0000090790   0.0000363497
        0.0001806393   0.0001065574  -0.0000100565  -0.0015564474   0.0000575717
       -0.0004581431  -0.0479850429  -0.0132039249  -0.0229171649   0.0023153166
        0.0808262105   0.0009633668  -0.0186468795   0.0041859991  -0.0107268251
       -0.0510474407   0.0472331064  -0.0081065081  -0.0177348993  -0.0158166891
       -0.0104172519   0.0000179374   0.0000006445  -0.0000069645  -0.0000068474
       -0.0000013461   0.0000038470  -0.0000018516  -0.0000079010   0.0000069996
        0.0000023835  -0.0000133901   0.0000012964   0.0000039272  -0.0000035136
        0.0000022797   0.0000052102  -0.0000084677  -0.0000014646   0.0000020082
       -0.0000010798  -0.0000010248   0.0000031387  -0.0000015912  -0.0000044037
        0.0000110190   0.0000006541  -0.0000086877  -0.0000079132   0.0000083290
       -0.0000092233   0.0000424632   0.0000298745  -0.0000281072   0.0001005831
        0.0000966023   0.0000345037  -0.0000182008   0.0000158868   0.0000091268
        0.0000167688   0.0000155101   0.0000074119  -0.0000041436   0.0000241124
        0.0000300643  -0.0000952973   0.0000567581   0.0001449741  -0.0000033658
       -0.0000317675   0.0000040168  -0.0000267207   0.0000081728   0.0000069097
       -0.0000158799   0.0000006992   0.0000018280  -0.0000064897   0.0000032138
        0.0000037650  -0.0000074296  -0.0000070509   0.0000053725  -0.0000043947
        0.0000019567   0.0000039279  -0.0000047927  -0.0000072172   0.0000031721
        0.0000003882  -0.0000073740  -0.0000011182   0.0000033970  -0.0000011151
       -0.0000017179   0.0000027055   0.0000074807  -0.0000010986   0.0000029073
       -0.0000033933  -0.0000008864   0.0000055535  -0.0000005282  -0.0000079752
       -0.0000009407   0.0000042722  -0.0000050455   0.0000048296   0.0000014601
        0.0000037213  -0.0003116266  -0.0003528255  -0.0001565859   0.0026134383
        0.0010493117  -0.0029717996
        0.0958031890  -0.1183357725   0.0512784774  -0.0034326493   0.6758972418
        0.0020348954  -0.1404376921  -0.2055006052  -0.0768012994  -0.0083710168
       -0.0536884664  -0.0048668711   0.0023556837  -0.0047872022   0.0011500807
       -0.0006705215  -0.0013840259  -0.0005507072  -0.0000491656  -0.0007143618
       -0.0000700117  -0.0001270550   0.0001491575  -0.0001037126  -0.0000958471
       -0.0001214527   0.0000444916   0.0000033062   0.0000116380  -0.0000100395
       -0.0000080702  -0.0000302579   0.0000194526  -0.0000159176   0.0000196120
       -0.0000020504   0.0000094096  -0.0000087555   0.0000031458  -0.0000544228
        0.0000047481   0.0000164453   0.0000780102  -0.0000396493   0.0000043672
       -0.0000415159   0.0000417131  -0.0000064982   0.0000133099   0.0000363138
       -0.0000136782  -0.0000049142  -0.0000535146   0.0000146084   0.0000327840
        0.0000247357  -0.0000252094   0.0000116379   0.0000189687  -0.0000147269
       -0.0000412893   0.0000291764  -0.0000031243   0.0000491516  -0.0000529842
        0.0000136570   0.0000033890   0.0000204639  -0.0000029229   0.0001524932
       -0.0000393757  -0.0000208472  -0.0001048573   0.0001417763  -0.0000206417
        0.0000100921  -0.0000890211   0.0000694279   0.0000843427   0.0000255685
        0.0000181195  -0.0001796125  -0.0001284085   0.0000505963  -0.0000636548
       -0.0000164666   0.0000526671   0.0000885501   0.0000234687   0.0000305486
       -0.0000872746   0.0000852694  -0.0000160378  -0.0000644567  -0.0000554882
        0.0000422677   0.0000970911  -0.0000183427   0.0000080842   0.0000461109
        0.0002119005   0.0000695115  -0.0005918190  -0.0002170794  -0.0002004454
        0.0004419480  -0.0001546471   0.0001854631  -0.0000338207   0.0001180261
       -0.0000336434  -0.0000792828  -0.0000235375   0.0001547519   0.0000684451
        0.0001126377  -0.0000451500   0.0000252921   0.0000369916  -0.0000309093
       -0.0000426552  -0.0000281371   0.0000223196   0.0000428234   0.0000308446
       -0.0000179004   0.0000122911  -0.0000613957   0.0000006940   0.0000165924
        0.0000462163   0.0000006584   0.0000009820  -0.0000317117  -0.0000018754
       -0.0000321663   0.0000036947   0.0000211261   0.0000054498  -0.0000213522
       -0.0000051263  -0.0000082194   0.0000016247   0.0000049867  -0.0000014930
        0.0000013482   0.0000020682  -0.0000069555  -0.0000099058   0.0000050834
        0.0000086567   0.0000037473  -0.0000024355  -0.0000281075  -0.0000216270
        0.0000113361   0.0000026646   0.0000394002   0.0000098686  -0.0000036590
        0.0000139822  -0.0000214167  -0.0000111243  -0.0000060017   0.0000316656
        0.0000318236  -0.0000069266  -0.0000164999   0.0000029163   0.0000147061
       -0.0000097816  -0.0000131992   0.0000086081   0.0000197439   0.0000269665
       -0.0000022634  -0.0000048609   0.0000554610  -0.0000030938  -0.0000281535
       -0.0001101786  -0.0001037330  -0.0000299912   0.0008729419   0.0010997289
        0.0004706934  -0.0122518839   0.0005801629  -0.0065590076   0.0302098215
       -0.0096122637   0.0164863984  -0.0168340294   0.0049905229  -0.0091252813
        0.0472645361  -0.2887562940   0.0234665006   0.0044352045   0.0051922550
        0.0025065968   0.0000087414  -0.0000128549  -0.0000027267   0.0000052844
       -0.0000044017  -0.0000034499   0.0000026561   0.0000046187  -0.0000083468
       -0.0000074147   0.0000094129  -0.0000002927   0.0000010472   0.0000046343
       -0.0000071289  -0.0000038201   0.0000121132   0.0000005142  -0.0000108467
        0.0000047052  -0.0000040974  -0.0000047846   0.0000060479   0.0000016748
       -0.0000148477   0.0000012466   0.0000058233   0.0000069659  -0.0000227952
       -0.0000108766   0.0000184508  -0.0000868617  -0.0000007183   0.0001134310
        0.0001583019  -0.0001838225   0.0000118343   0.0000438387  -0.0000123583
        0.0000163468   0.0000127464  -0.0000003361   0.0000046252   0.0000099503
        0.0000069808  -0.0000212046   0.0000264707  -0.0001236005   0.0000085808
       -0.0000030966   0.0000424424   0.0000285876  -0.0000285482  -0.0000073437
        0.0000115737  -0.0000065762  -0.0000002123   0.0000061513  -0.0000050051
       -0.0000045425   0.0000076186   0.0000062998  -0.0000069337   0.0000025538
       -0.0000017731  -0.0000040884   0.0000031123   0.0000049230  -0.0000028622
       -0.0000024376   0.0000073072   0.0000010613  -0.0000013397   0.0000018708
       -0.0000007662  -0.0000022066   0.0000000736  -0.0000074788  -0.0000090377
        0.0000014604  -0.0000003404  -0.0000030315  -0.0000040086   0.0000055687
       -0.0000009360  -0.0000078838  -0.0000046096  -0.0000082028  -0.0000058555
       -0.0000068467  -0.0002361135   0.0006780426  -0.0002099758   0.0016038220
       -0.0057165327   0.0008897473
       -0.1064259302   0.0129704587  -0.1056952742   0.2223078540   0.0020348954
        0.2358808041  -0.0763778142  -0.0395983948  -0.0887808177   0.0163418612
       -0.0319266723   0.0106301921  -0.0012543536   0.0025144198   0.0074198880
        0.0001010983  -0.0014673944  -0.0000986421   0.0007635671   0.0005945063
       -0.0004322106   0.0000401003  -0.0002590188   0.0000502767   0.0001216570
        0.0000909541   0.0000046652  -0.0000424535  -0.0000020918   0.0000216545
        0.0000140789   0.0000182654  -0.0000165951   0.0000115393  -0.0000105004
        0.0000013919  -0.0000120411  -0.0000050715   0.0000003379   0.0000171494
       -0.0000184205  -0.0000019113  -0.0000253120  -0.0000104466   0.0000073022
        0.0000211031  -0.0000026918  -0.0000004321  -0.0000090891  -0.0000228441
        0.0000125039  -0.0000100796   0.0000307661  -0.0000064487   0.0000013688
       -0.0000196451   0.0000093169   0.0000006152   0.0000001724   0.0000031010
        0.0000069829  -0.0000012042   0.0000014802  -0.0000066245   0.0000067994
       -0.0000000199   0.0000110708  -0.0000021820  -0.0000001148  -0.0000441753
        0.0000116918  -0.0000036004   0.0000352609  -0.0000144530   0.0000032201
        0.0000333284   0.0000622330   0.0000899520  -0.0000758207  -0.0000507965
       -0.0000365511   0.0000339324   0.0000937917  -0.0000836975   0.0000666566
        0.0000550846   0.0000652094   0.0000140603  -0.0000997433  -0.0000159786
       -0.0000636228   0.0000529265  -0.0000857929   0.0000181523  -0.0000225993
        0.0000018061  -0.0001324251   0.0000699781  -0.0000096586  -0.0003620970
       -0.0001683844   0.0000412019   0.0006622962   0.0003179022  -0.0001452897
       -0.0002419676   0.0001077276  -0.0000164712   0.0000267686  -0.0000577435
       -0.0000036820   0.0000532025  -0.0000128205  -0.0000755033   0.0000083559
       -0.0000256171   0.0000003089   0.0000123400   0.0000001386   0.0000051129
       -0.0000155740  -0.0000088863   0.0000070263  -0.0000298777  -0.0000200285
        0.0000118110  -0.0000245086   0.0000160720   0.0000029538  -0.0000031705
       -0.0000129442  -0.0000036731  -0.0000079528   0.0000097738   0.0000038478
        0.0000206782  -0.0000071622  -0.0000140245  -0.0000098442   0.0000027645
        0.0000059770   0.0000078017   0.0000016965  -0.0000043401   0.0000028302
        0.0000006059  -0.0000020047   0.0000017683   0.0000038829  -0.0000002217
       -0.0000061534  -0.0000036972   0.0000010048   0.0000247807   0.0000225577
       -0.0000064202  -0.0000169818  -0.0000183145  -0.0000050130   0.0000056746
        0.0000067216   0.0000165021  -0.0000029815  -0.0000077758  -0.0000037099
       -0.0000040033   0.0000009771   0.0000012075  -0.0000046881   0.0000024189
        0.0000016919  -0.0000017508  -0.0000055870   0.0000046770  -0.0000020405
       -0.0000025074  -0.0000043594  -0.0000194393  -0.0000110562   0.0000124750
        0.0001048273   0.0000734317   0.0000179826  -0.0008262937   0.0000481285
       -0.0008573250  -0.0231162126  -0.0070627150  -0.0182412418   0.0007658891
        0.0440397852   0.0019504212  -0.0108225007   0.0022745406  -0.0045248938
       -0.0083746174   0.0235242464  -0.0388943986  -0.0103335638  -0.0084640785
       -0.0042129254   0.0000175492  -0.0000056294  -0.0000048483  -0.0000050267
       -0.0000019077   0.0000024352  -0.0000013608  -0.0000062341   0.0000043907
        0.0000006270  -0.0000084629   0.0000002532   0.0000015258  -0.0000031788
        0.0000012071   0.0000030437  -0.0000051208  -0.0000012861   0.0000012366
       -0.0000023542   0.0000002328   0.0000026661  -0.0000027664  -0.0000021093
        0.0000040861   0.0000005123  -0.0000040659  -0.0000046863   0.0000025339
       -0.0000005057   0.0000097721   0.0000293708  -0.0000335802   0.0000173460
       -0.0000742397  -0.0000757990   0.0000029487   0.0000125423   0.0000212872
        0.0000023688   0.0000005246   0.0000013134  -0.0000062109   0.0000059230
        0.0000199149  -0.0000103815   0.0000379526   0.0000795844   0.0000092843
       -0.0000231305  -0.0000044103  -0.0000193826   0.0000091514   0.0000003135
       -0.0000115031   0.0000006172   0.0000025725  -0.0000073833   0.0000026324
        0.0000020138  -0.0000047735  -0.0000035108   0.0000043084  -0.0000034301
        0.0000006530   0.0000024331  -0.0000031144  -0.0000041984   0.0000017791
       -0.0000000899  -0.0000036885  -0.0000003731   0.0000007844   0.0000008931
       -0.0000000872   0.0000019415   0.0000046447   0.0000000789   0.0000012596
       -0.0000012355   0.0000003842   0.0000028164   0.0000005585  -0.0000024461
        0.0000009822   0.0000023442  -0.0000004338   0.0000030495   0.0000011843
        0.0000015730  -0.0000548640  -0.0001971914  -0.0003217552  -0.0029037708
        0.0005939849   0.0063015643
       -0.0486483601   0.0029496728  -0.0269847197  -0.1871181927  -0.1404376921
       -0.0763778142   0.5602315625   0.0042553096   0.2367515087  -0.0928099198
        0.0749264785  -0.0223394205   0.0051591997  -0.0172863739   0.0027620994
       -0.0026965715  -0.0035308436  -0.0023903521   0.0005470858  -0.0000625409
       -0.0000581164  -0.0003027317  -0.0007980985   0.0000982742   0.0002662255
        0.0001458410  -0.0000958998  -0.0000612451  -0.0000323125   0.0000286790
        0.0000214417   0.0000467149  -0.0000304658   0.0000288177  -0.0000392746
        0.0000013121  -0.0000202035  -0.0000034520   0.0000061762   0.0000544503
       -0.0000704110   0.0000106289  -0.0000870385  -0.0000219660   0.0000241988
        0.0000609167  -0.0000180375  -0.0000052569  -0.0000237852  -0.0000649157
        0.0000310295  -0.0000348092   0.0000967523  -0.0000184693  -0.0000047934
       -0.0000300870   0.0000112320  -0.0000151734  -0.0000048772   0.0000108752