$hessian                                                                        
        0.6404296838  -0.0000036828  -0.0835403171  -0.2575082408   0.0000050739
        0.1838085438   0.0015195859   0.0000001400   0.0092653193   0.0011827401
       -0.0000005773   0.0000133985  -0.0178918079   0.0000009939  -0.0212835906
       -0.2344301564  -0.0000007860  -0.0552592564  -0.0592268857   0.0000004559
        0.0068742044   0.0096373715  -0.0000003980   0.0148131545   0.0072748329
       -0.0000004664  -0.0054651136   0.0000480165   0.0000000087  -0.0004560786
       -0.0002068309  -0.0000000175  -0.0006635581   0.0008568784   0.0000000271
        0.0003548264  -0.0001437532  -0.0000000079  -0.0004622087   0.0005027003
       -0.0000000042  -0.0000903594  -0.0002852955   0.0000000194   0.0005536273
       -0.0005462278   0.0000000567  -0.0004277448   0.0003022465   0.0000000678
        0.0013125783  -0.0018570117  -0.0000001262  -0.0007240252   0.0026271403
        0.0000000145   0.0018079161  -0.0055710799   0.0000004023  -0.0010106566
       -0.0000128115  -0.0000033173  -0.0000856247   0.0000110150  -0.0000292425
       -0.0000001404  -0.0000137873  -0.0000023920   0.0000223908  -0.0000123792
       -0.0000061906   0.0000263860   0.0000136717  -0.0000366166   0.0000110387
        0.0000371456   0.0000011329  -0.0000199808  -0.0000540072   0.0000000307
        0.0000287276   0.0000371624  -0.0000011129  -0.0000200046   0.0000136742
        0.0000366000   0.0000110427  -0.0000123757   0.0000061724   0.0000263829
       -0.0000137908   0.0000023724   0.0000223972   0.0000110122   0.0000292119
       -0.0000001070  -0.0000127919   0.0000033344  -0.0000855463   0.0006242450
        0.0008338590  -0.0013819956  -0.0004737354   0.0004769069   0.0001465822
        0.0002651293  -0.0000891008   0.0002326275   0.0000164553   0.0001404159
       -0.0000242576  -0.0000179981   0.0000197212  -0.0000465330  -0.0001295528
        0.0001402950  -0.0000707198   0.0001047875  -0.0000000081   0.0001597503
       -0.0001294379  -0.0001404051  -0.0000707280  -0.0000179371  -0.0000197350
       -0.0000465699   0.0000164500  -0.0001403315  -0.0000242436   0.0002649617
        0.0000891723   0.0002324456  -0.0004735472  -0.0004762932   0.0001468418
        0.0006251457  -0.0008335420  -0.0013815106  -0.0635075681  -0.0000033695
       -0.0688179863  -0.0257363829  -0.0000004210   0.0223626206   0.0000528819
        0.0000001209   0.0003650753   0.0009706496   0.0000013373  -0.0005173977
       -0.0000256844   0.0000000052   0.0000439112   0.0000246483  -0.0000000021
        0.0000307969   0.0000238229   0.0000000217   0.0000227876   0.0000376684
        0.0000000091  -0.0000235522   0.0000399949  -0.0000000595  -0.0000570243
        0.0001261671   0.0000000274  -0.0001472825  -0.0000138589   0.0000474711
        0.0000023682   0.0000061831   0.0000142707  -0.0000014963   0.0000019598
        0.0000059755  -0.0000045552   0.0000053074   0.0000114969   0.0000112664
        0.0000053035  -0.0000114940   0.0000112706   0.0000019675  -0.0000059833
       -0.0000045419   0.0000061832  -0.0000142741  -0.0000014858  -0.0000138572
       -0.0000474676   0.0000023739   0.0002602013   0.0001134032  -0.0002234442
       -0.0000246866  -0.0000773111  -0.0000244444   0.0000451912  -0.0000160242
       -0.0000031531   0.0000264390  -0.0000136265  -0.0000023218   0.0000264336
        0.0000136218  -0.0000023278   0.0000451640   0.0000160190  -0.0000030875
       -0.0000246968   0.0000773137  -0.0000244243   0.0002599587  -0.0001131922
       -0.0002232558
       -0.0000036828   0.1066202010   0.0000095499   0.0000040965  -0.0331398864
       -0.0000037947   0.0000005520   0.0035671817  -0.0000006373  -0.0000005437
       -0.0003184098   0.0000004441   0.0000020709  -0.0000164383   0.0000002472
       -0.0000033914  -0.0492138723   0.0000022189   0.0000032528  -0.0017564041
       -0.0000000845  -0.0000002381   0.0091486732  -0.0000012072  -0.0000008376
        0.0007932070   0.0000002465   0.0000001037   0.0006960872  -0.0000000070
        0.0000000143   0.0001004517   0.0000003215  -0.0000002446  -0.0000631691
       -0.0000000824   0.0000000493  -0.0000129103   0.0000000508  -0.0000000731
        0.0000092932   0.0000000451  -0.0000000120  -0.0000112900  -0.0000000781
        0.0000000377   0.0000591039   0.0000000282  -0.0000000531   0.0000699310
       -0.0000000373   0.0000001351  -0.0001522117  -0.0000001002  -0.0000002036
       -0.0006186439  -0.0000003245   0.0000007489   0.0006178835   0.0000001467
       -0.0000594338  -0.0000078543  -0.0000344707   0.0000148898   0.0000267898
       -0.0000300673   0.0000035511  -0.0000003835   0.0000034867   0.0000072123
        0.0000012311  -0.0000207088   0.0000034242   0.0000114395   0.0000050114
        0.0000122232  -0.0000248302  -0.0000262036   0.0000000089   0.0000153302
       -0.0000000059  -0.0000122133  -0.0000248394   0.0000261848  -0.0000034400
        0.0000114431  -0.0000050043  -0.0000072137   0.0000012414   0.0000207157
       -0.0000035509  -0.0000003933  -0.0000034987  -0.0000148847   0.0000267767
        0.0000300866   0.0000595143  -0.0000078439   0.0000345161   0.0000611886
       -0.0005715528   0.0003196278   0.0001573249  -0.0001372257  -0.0000239202
       -0.0000151808   0.0000410096  -0.0000904969  -0.0000188181  -0.0000638658
        0.0000079064   0.0000666308   0.0000370750   0.0000013399  -0.0001941844
        0.0000638683   0.0000095157  -0.0000000088  -0.0001096893   0.0000000141
        0.0001942709   0.0000637753  -0.0000095684  -0.0000666253   0.0000371088
       -0.0000013324   0.0000188017  -0.0000638452  -0.0000079095   0.0000151600
        0.0000410220   0.0000904341  -0.0001572456  -0.0001371616   0.0000239541
       -0.0000610318  -0.0005714937  -0.0003196392  -0.0000022784  -0.0341066490
       -0.0000066313   0.0000004607   0.0008726197  -0.0000004330  -0.0000000698
       -0.0004574792  -0.0000000039  -0.0000001994  -0.0015417112   0.0000001217
       -0.0000000039  -0.0000097614   0.0000000024   0.0000000013   0.0000041777
       -0.0000000032   0.0000000070  -0.0000047668  -0.0000000045   0.0000000028
       -0.0000085889  -0.0000000063  -0.0000000027   0.0000275599  -0.0000000011
       -0.0000000199   0.0001371618  -0.0000000125  -0.0000200136   0.0000005083
        0.0000105318   0.0000010911   0.0000068549  -0.0000051911   0.0000005326
       -0.0000015677  -0.0000039086   0.0000000590  -0.0000062793  -0.0000004916
       -0.0000000630  -0.0000062745   0.0000004878  -0.0000005342  -0.0000015707
        0.0000039119  -0.0000010915   0.0000068640   0.0000051936   0.0000200072
        0.0000005098  -0.0000105115  -0.0000339143  -0.0000156489   0.0000188916
        0.0000095863   0.0000234498   0.0000016595  -0.0000007432   0.0000021026
       -0.0000110066   0.0000092151   0.0000163371  -0.0000047713  -0.0000092183
        0.0000163363   0.0000047695   0.0000007367   0.0000020943   0.0000110271
       -0.0000095900   0.0000234444  -0.0000016545   0.0000338918  -0.0000156332
       -0.0000188792
       -0.0835403171   0.0000095499   0.7108121953   0.2164384900  -0.0000044481
       -0.3022278261   0.0168921996  -0.0000001457  -0.0361996379   0.0016756154
       -0.0000001627   0.0030940999  -0.0268460123   0.0000009510  -0.0096956213
       -0.0701041552   0.0000015859  -0.0838840553   0.0230182846  -0.0000002870
        0.0041154718   0.0005271294   0.0000003045  -0.0051019822  -0.0038085285
        0.0000004599  -0.0036497641  -0.0012868732   0.0000000614   0.0003720743
       -0.0001160713  -0.0000000277  -0.0007448337   0.0000738234  -0.0000000389
        0.0001163155  -0.0000140095  -0.0000000177  -0.0001856025   0.0000752301
       -0.0000000138  -0.0000660548  -0.0000374064  -0.0000000106  -0.0000080889
       -0.0000235442  -0.0000000239   0.0001329342  -0.0000661839   0.0000000043
       -0.0001841608   0.0003744794   0.0000000477   0.0003624863  -0.0002421905
        0.0000000294   0.0002979739   0.0008441941  -0.0000002446   0.0008093986
        0.0001014517   0.0001140940   0.0000015425  -0.0000102735  -0.0000264699
        0.0000796220  -0.0000098600   0.0000269778  -0.0000074313  -0.0000061090
        0.0000148675  -0.0000060111  -0.0000225231   0.0000117723  -0.0000159814
        0.0000101843  -0.0001097036   0.0000244543   0.0000281209  -0.0000000084
        0.0000424535   0.0000101856   0.0001096963   0.0000244438  -0.0000225261
       -0.0000117676  -0.0000159682  -0.0000061068  -0.0000148668  -0.0000059941
       -0.0000098586  -0.0000269747  -0.0000074130  -0.0000102612   0.0000264872
        0.0000796130   0.0001014481  -0.0001140843   0.0000015310  -0.0013039802
       -0.0011342965  -0.0028074821   0.0003258563   0.0001637450  -0.0002027906
        0.0000825259   0.0001876059   0.0001750405  -0.0001869755   0.0000808719
       -0.0000078905  -0.0000204775  -0.0001885392   0.0002395847   0.0000752953
        0.0005933568  -0.0002758462  -0.0000938298   0.0000000104   0.0003802206
        0.0000752326  -0.0005933058  -0.0002758353  -0.0000204933   0.0001884884
        0.0002396024  -0.0001869680  -0.0000808832  -0.0000078903   0.0000825848
       -0.0001876405   0.0001750945   0.0003258651  -0.0001638153  -0.0002028868
       -0.0013041068   0.0011340364  -0.0028078036  -0.0703106850  -0.0000073672
       -0.2761765337  -0.0021883473   0.0000009691   0.0030302609   0.0002207245
       -0.0000003434   0.0001216400   0.0006466262  -0.0000004483   0.0004126429
       -0.0000283581   0.0000000040   0.0000388014   0.0000154499   0.0000000094
        0.0000424979   0.0000318742  -0.0000000031   0.0000215635   0.0000352185
        0.0000000060  -0.0000248382   0.0000343521   0.0000000272  -0.0000501605
       -0.0000015768  -0.0000000155  -0.0000372568   0.0000024168   0.0000112773
       -0.0000364007   0.0000080184  -0.0000153255  -0.0000038887   0.0000049141
       -0.0000138591   0.0000080516  -0.0000092008  -0.0000122313   0.0000201644
       -0.0000092018   0.0000122266   0.0000201748   0.0000049092   0.0000138584
        0.0000080664   0.0000080128   0.0000153303  -0.0000038745   0.0000023989
       -0.0000112713  -0.0000363802  -0.0001342333  -0.0000132198  -0.0001352626
        0.0000183274   0.0000370063   0.0000091584  -0.0000251164  -0.0000239337
       -0.0000384883  -0.0000120493   0.0000054261  -0.0000033130  -0.0000120570
       -0.0000054257  -0.0000033018  -0.0000251157   0.0000239353  -0.0000384873
        0.0000183259  -0.0000370017   0.0000091745  -0.0001341823   0.0000131421
       -0.0001353112
       -0.2575082408   0.0000040965   0.2164384900   0.6882019993  -0.0000207976
       -0.1333537521  -0.0705600163   0.0000015833  -0.0285250051  -0.0149740161
        0.0000014448  -0.0280662006   0.0068345408  -0.0000002373   0.0027177588
       -0.0644652417   0.0000013954   0.0223761297   0.0091112375   0.0000001351
       -0.0054920046  -0.0068553999   0.0000003865  -0.0056243564  -0.0044485356
       -0.0000002261   0.0025775833   0.0000091566   0.0000000547   0.0004446494
        0.0002233241   0.0000000015   0.0001934390  -0.0004226403  -0.0000000262
       -0.0002179161   0.0000986958  -0.0000000025   0.0002125249  -0.0003168554
       -0.0000000435   0.0000148046   0.0001452078  -0.0000000170  -0.0003638865
        0.0002968694  -0.0000001734   0.0003108343  -0.0002434180  -0.0000000191
       -0.0008339957   0.0010949440   0.0000001031   0.0005063202  -0.0017248744
        0.0000000399  -0.0007475849   0.0021653685  -0.0000004705  -0.0000146221
        0.0000473789  -0.0000240603   0.0000186165  -0.0000104167  -0.0000071995
        0.0000530953   0.0000096720   0.0000241013  -0.0000154356   0.0000134830
        0.0000329865  -0.0000174685  -0.0000003036   0.0000042139   0.0000072323
        0.0000107172  -0.0000870390  -0.0000074663  -0.0001131459   0.0000000225
        0.0001001201   0.0000107201   0.0000870488  -0.0000074613  -0.0000003021
       -0.0000042250   0.0000072303   0.0000134720  -0.0000329795  -0.0000174755
        0.0000096588  -0.0000240948  -0.0000154259  -0.0000104311   0.0000072065
        0.0000531130   0.0000473789   0.0000240818   0.0000185870   0.0035714800
       -0.0005891138   0.0082408851   0.0000843768  -0.0009747365   0.0004656520
       -0.0003712504  -0.0001722244  -0.0005849372   0.0001535482  -0.0003711511
        0.0000377194  -0.0000031208   0.0006223957  -0.0003077840  -0.0006068029
       -0.0019135514   0.0014308690  -0.0010759251  -0.0000001043  -0.0001307348
       -0.0006068948   0.0019137299   0.0014308321  -0.0000030572  -0.0006224425
       -0.0003076080   0.0001535190   0.0003711688   0.0000377591  -0.0003712477
        0.0001720871  -0.0005847582   0.0000844972   0.0009745590   0.0004655594
        0.0035710540   0.0005885734   0.0082379126   0.0043176127  -0.0000001456
       -0.0033387859  -0.2896313782   0.0000133727  -0.0567482064  -0.0053066635
        0.0000007051  -0.0014555194   0.0000805730  -0.0000004704  -0.0001756703
        0.0000067477   0.0000000087  -0.0000050193  -0.0000013689   0.0000000153
       -0.0000027508  -0.0000057250  -0.0000000145   0.0000001797  -0.0000001791
        0.0000000032   0.0000097902   0.0000105338   0.0000000852  -0.0000026766
        0.0000509576  -0.0000000056  -0.0000593401   0.0000141469  -0.0000491516
        0.0000020198  -0.0000060362  -0.0000146877   0.0000030555  -0.0000025293
       -0.0000009383  -0.0000014813  -0.0000133470  -0.0000182018  -0.0000054752
       -0.0000133504   0.0000182075  -0.0000054720  -0.0000025408   0.0000009469
       -0.0000014714  -0.0000060485   0.0000147024   0.0000030609   0.0000141493
        0.0000491673   0.0000020182  -0.0002603456   0.0001735002   0.0001110543
       -0.0000037618  -0.0000876924   0.0000485692  -0.0000530156  -0.0000334951
        0.0000630563  -0.0000707297  -0.0000688568   0.0000873374  -0.0000707328
        0.0000688373   0.0000873316  -0.0000530344   0.0000335083   0.0000630042
       -0.0000037659   0.0000876838   0.0000485713  -0.0002603316  -0.0001735645
        0.0001109813
        0.0000050739  -0.0331398864  -0.0000044481  -0.0000207976   0.1145256917
       -0.0000014084   0.0000018400  -0.0427614981   0.0000013562   0.0000010915
        0.0019178386   0.0000017912  -0.0000002352  -0.0016601117  -0.0000002395
        0.0000001837   0.0007999777  -0.0000001977   0.0000005253   0.0024420727
        0.0000000834   0.0000001600   0.0005510751  -0.0000001270  -0.0000000363
       -0.0000253193  -0.0000000074   0.0000000425  -0.0001036675  -0.0000000467
       -0.0000000145   0.0000058611   0.0000000385  -0.0000000195  -0.0000043446
       -0.0000000005   0.0000000095  -0.0000117230  -0.0000000268   0.0000000246
       -0.0000090804   0.0000000109  -0.0000000265  -0.0000098319   0.0000000176
       -0.0000000216  -0.0000057772  -0.0000000164   0.0000000028  -0.0000017321
        0.0000000929  -0.0000000766   0.0000503250  -0.0000001015   0.0000000878
       -0.0000111998   0.0000000241  -0.0000000341  -0.0002169834   0.0000000330
        0.0000029213   0.0000039002   0.0000280307   0.0000006227  -0.0000004376
        0.0000028005  -0.0000020530   0.0000130001  -0.0000067890   0.0000065817
        0.0000032043  -0.0000159737   0.0000030175   0.0000205042  -0.0000125271
       -0.0000051072  -0.0000341053  -0.0000138411   0.0000000264  -0.0000594153
       -0.0000000046   0.0000051049  -0.0000341258   0.0000138484  -0.0000030213
        0.0000205042   0.0000125236  -0.0000065806   0.0000032195   0.0000159734
        0.0000020600   0.0000130054   0.0000067903  -0.0000006383  -0.0000004605
       -0.0000027892  -0.0000029155   0.0000038700  -0.0000280420   0.0004160816
       -0.0047032312   0.0202518247  -0.0011893204  -0.0002657136   0.0010323889
       -0.0002968078  -0.0006120003  -0.0010980116   0.0001887643  -0.0002031795
        0.0000320911  -0.0001534881   0.0002643849  -0.0009040590   0.0007640770
       -0.0012298126   0.0007200449   0.0000000506   0.0006940705   0.0000000843
       -0.0007640035  -0.0012301839  -0.0007203638   0.0001534537   0.0002644905
        0.0009040501  -0.0001888163  -0.0002032255  -0.0000321537   0.0002968715
       -0.0006119141   0.0010978327   0.0011891905  -0.0002658807  -0.0010323141
       -0.0004162724  -0.0047021226  -0.0202511785   0.0000000508  -0.0007542899
        0.0000001322   0.0000122001  -0.0304073887   0.0000025988   0.0000001654
        0.0013927305  -0.0000000780  -0.0000000576   0.0000143469   0.0000000570
       -0.0000000079  -0.0000140065   0.0000000076   0.0000000004  -0.0000153458
        0.0000000008   0.0000000058  -0.0000088858  -0.0000000013   0.0000000029
       -0.0000017886  -0.0000000056   0.0000000012   0.0000075421  -0.0000000034
       -0.0000000164   0.0000076144  -0.0000000186  -0.0000054698  -0.0000010035
       -0.0000109948  -0.0000075991  -0.0000039837  -0.0000183819  -0.0000079996
       -0.0000069328  -0.0000179840  -0.0000084507  -0.0000218843  -0.0000107296
        0.0000084513  -0.0000218790   0.0000107278   0.0000079843  -0.0000069383
        0.0000179882   0.0000075889  -0.0000039782   0.0000183867   0.0000054553
       -0.0000010001   0.0000110072   0.0001558579   0.0002327740   0.0003762210
       -0.0000117648  -0.0000877016   0.0000153826   0.0000383817   0.0000819040
        0.0001976971  -0.0000183233  -0.0000433962   0.0000229588   0.0000183453
       -0.0000434095  -0.0000229565  -0.0000383571   0.0000818795  -0.0001976488
        0.0000117719  -0.0000877156  -0.0000153858  -0.0001557960   0.0002327046
       -0.0003760421
        0.1838085438  -0.0000037947  -0.3022278261  -0.1333537521  -0.0000014084
        0.6039076337  -0.0433452932   0.0000013941  -0.1724675728  -0.0102140357
        0.0000017181  -0.0107334511  -0.0015943963  -0.0000009178  -0.0050958685
        0.0366274897  -0.0000009215   0.0078954250  -0.0154816687   0.0000003027
        0.0040296549   0.0056676684   0.0000001306   0.0059637474   0.0030123090
       -0.0000005560  -0.0027065532   0.0000598678   0.0000002054  -0.0005089597
        0.0001225586   0.0000000396  -0.0000288747   0.0002441044  -0.0000000825
        0.0000550084  -0.0000640209  -0.0000000259  -0.0000386952   0.0000969317
       -0.0000000705  -0.0000236279  -0.0000310519  -0.0000000162   0.0001839554
       -0.0002112660  -0.0000003402  -0.0002189354   0.0001556128   0.0000000890
        0.0004925126  -0.0008599530   0.0000001115  -0.0003044615   0.0011944596
        0.0000000675   0.0002924749  -0.0016534718  -0.0000004782  -0.0005630488
       -0.0002174694  -0.0002571292  -0.0000074436  -0.0000035162   0.0000159178
       -0.0001141523   0.0000270882   0.0000133879   0.0000153846   0.0000455468
       -0.0000130230  -0.0000523171   0.0000561891  -0.0000272466   0.0000812811
        0.0000073154   0.0000938508  -0.0000205327  -0.0001054493   0.0000000094
        0.0001455465   0.0000073134  -0.0000937940  -0.0000205351   0.0000561722
        0.0000272421   0.0000812978   0.0000455262   0.0000130338  -0.0000523078
        0.0000270664  -0.0000133677   0.0000154119  -0.0000035323  -0.0000158681
       -0.0001141279  -0.0002174632   0.0002571855  -0.0000074465   0.0057519512
        0.0165040441  -0.0238236812  -0.0003838619  -0.0009593497   0.0001733794
        0.0006668317   0.0008718041   0.0005219270   0.0000485935   0.0000651143
       -0.0000553026   0.0000372266   0.0006468209   0.0003288272  -0.0004594310
       -0.0012638826   0.0004909175  -0.0002541672  -0.0000000974  -0.0007426986
       -0.0004590762   0.0012634826   0.0004905474   0.0000372834  -0.0006466833
        0.0003288026   0.0000485573  -0.0000650673  -0.0000552621   0.0006665254
       -0.0008717507   0.0005217233  -0.0003837029   0.0009599241   0.0001736006
        0.0057533253  -0.0165024681  -0.0238233649   0.0196633897  -0.0000005709
       -0.0281805367  -0.0539241684   0.0000015631  -0.0541480268  -0.0000281442
        0.0000003898   0.0006617422  -0.0002298866   0.0000005804  -0.0001409884
        0.0000011813   0.0000000330   0.0000214645   0.0000113973   0.0000000411
       -0.0000147390  -0.0000222058  -0.0000000056   0.0000141421  -0.0000276163
        0.0000000176   0.0000306007  -0.0000131624   0.0000001887   0.0000623044
        0.0000267483  -0.0000000055   0.0000544091   0.0000096215  -0.0000147547
        0.0000435134  -0.0000250410  -0.0000011865   0.0000248319  -0.0000262639
        0.0000338610  -0.0000041697  -0.0000100227   0.0000131657  -0.0000368549
       -0.0000100374  -0.0000131658  -0.0000368381  -0.0000262961  -0.0000338434
       -0.0000041386  -0.0000250778   0.0000012276   0.0000248587   0.0000095963
        0.0000148141   0.0000435346   0.0001504500   0.0000508828  -0.0003901585
        0.0000042479  -0.0003290128   0.0000568300  -0.0000937446  -0.0002201356
       -0.0000777125  -0.0002253870  -0.0002081192   0.0000122721  -0.0002253960
        0.0002080476   0.0000123030  -0.0000938235   0.0002201038  -0.0000776123
        0.0000041989   0.0003290173   0.0000568435   0.0001499638  -0.0000506698
       -0.0003898864
        0.0015195859   0.0000005520   0.0168921996  -0.0705600163   0.0000018400
       -0.0433452932   0.4883437830  -0.0000142886   0.0233085823  -0.1909771935
        0.0000165633  -0.0327669782  -0.0387298747   0.0000011198   0.0113199772
        0.0045946814  -0.0000008584  -0.0038736277  -0.0049697436   0.0000001912
        0.0005404483   0.0011331226  -0.0000001978   0.0048649297   0.0068882928
        0.0000023255  -0.0002791090   0.0000563189   0.0000003585  -0.0008863158
        0.0000786468   0.0000000955   0.0006928981  -0.0002096581  -0.0000003137
       -0.0000483204  -0.0000069514  -0.0000000316   0.0002648913  -0.0001301283
        0.0000000181   0.0000780513   0.0001078905  -0.0000000141  -0.0000395359
        0.0000453576  -0.0000001874  -0.0001101145   0.0001018249   0.0000000389
        0.0000348611  -0.0003056544   0.0000001901  -0.0002384770   0.0005797574
        0.0000000357  -0.0005894534   0.0002329925  -0.0000003451   0.0000229435
       -0.0002472905  -0.0003826297   0.0001116511  -0.0000069723   0.0000088559
       -0.0000878204   0.0000463044  -0.0000208284   0.0000091106   0.0000397591
        0.0000163488  -0.0000164949   0.0000392187  -0.0000762781   0.0000719925
       -0.0000809592   0.0002740692  -0.0000042004   0.0000876631  -0.0000000080
        0.0000854894  -0.0000809523  -0.0002739645  -0.0000042052   0.0000392041
        0.0000762595   0.0000720003   0.0000397176  -0.0000163519  -0.0000165305
        0.0000462739   0.0000208060   0.0000090923  -0.0000070033  -0.0000088364
       -0.0000878045  -0.0002473481   0.0003826502   0.0001116743  -0.0740729977
       -0.0366303126   0.0170226193   0.0058620027   0.0086128721  -0.0044806196
       -0.0005814275   0.0025734277   0.0004329192  -0.0002109476   0.0001889126
       -0.0001142025  -0.0044981810   0.0011202627   0.0018989761  -0.0156508822
       -0.0227538320   0.0113595326   0.0023329948  -0.0000001096  -0.0000008507
       -0.0156493713   0.0227522450   0.0113593498  -0.0044979970  -0.0011203861
        0.0018986752  -0.0002109612  -0.0001887111  -0.0001141045  -0.0005814649
       -0.0025741669   0.0004328278   0.0058620768  -0.0086110348  -0.0044805294
       -0.0740692163   0.0366210131   0.0170180368  -0.0016908342   0.0000002499
        0.0034544019  -0.0086540060   0.0000002105  -0.0250639429  -0.0102435585
        0.0000014818  -0.0050242405   0.0000874165   0.0000001696  -0.0000741484
        0.0000053417   0.0000000359  -0.0000185273  -0.0000150854   0.0000000465
       -0.0000750175  -0.0000459779  -0.0000000136  -0.0000143874  -0.0000738492
        0.0000000029   0.0000426392  -0.0000689037   0.0000002409   0.0000979844
       -0.0001205199  -0.0000000607   0.0001090265   0.0000240686  -0.0000637018
       -0.0000028213  -0.0000294580   0.0000218215   0.0000136502  -0.0000203242
        0.0000560274  -0.0000170077   0.0000014423   0.0000254344  -0.0000896738
        0.0000014112  -0.0000254262  -0.0000896674  -0.0000203871  -0.0000560105
       -0.0000170216  -0.0000295090  -0.0000218040   0.0000136362   0.0000240404
        0.0000637125  -0.0000028257   0.0003441098   0.0007756788  -0.0008420753
        0.0001297482   0.0005373801  -0.0001384353   0.0000317069  -0.0001986559
       -0.0002775330  -0.0008181530  -0.0013606800   0.0004724655  -0.0008181446
        0.0013605053   0.0004725038   0.0000315565   0.0001986259  -0.0002775334
        0.0001296923  -0.0005373538  -0.0001384786   0.0003438993  -0.0007752825
       -0.0008421131
        0.0000001400   0.0035671817  -0.0000001457   0.0000015833  -0.0427614981
        0.0000013941  -0.0000142886   0.3926641313  -0.0000074845   0.0000276083
       -0.0556102868  -0.0000024994  -0.0000017126   0.0074405987   0.0000019624
       -0.0000000762  -0.0091664673  -0.0000007783  -0.0000004586   0.0000177094
        0.0000001235  -0.0000008273  -0.0016871336   0.0000018529   0.0000005145
        0.0115669930  -0.0000003288   0.0000001471   0.0002904404  -0.0000001295
        0.0000001639  -0.0002095989   0.0000000356  -0.0000000603  -0.0002888927
       -0.0000000912   0.0000000614   0.0000019302   0.0000000650  -0.0000001150
        0.0000491908  -0.0000000323   0.0000000685   0.0000098544  -0.0000001619
        0.0000001365   0.0000649218   0.0000001678  -0.0000001354  -0.0000959015
       -0.0000004141   0.0000004596   0.0002232097   0.0000003157  -0.0000006511
       -0.0000809022  -0.0000002860   0.0000010056  -0.0012813241   0.0000002393
        0.0002230314  -0.0001404720   0.0000041272   0.0000032921   0.0000360086
        0.0000390231  -0.0000207811   0.0000013283   0.0000267372   0.0000185591
        0.0000166616  -0.0000008516  -0.0000075454  -0.0000093161  -0.0000475069
       -0.0000017865   0.0000836940  -0.0000291756   0.0000000041  -0.0000901106
       -0.0000000085   0.0000017940   0.0000836563   0.0000292257   0.0000075562
       -0.0000092822   0.0000474523  -0.0000185564   0.0000166301   0.0000008543
        0.0000207949   0.0000013330  -0.0000267207  -0.0000032936   0.0000360216
       -0.0000390235  -0.0002230969  -0.0001403637  -0.0000040878  -0.0374702125
       -0.1231559717   0.0432071008  -0.0064823680  -0.0279849043   0.0125967694
        0.0041057895  -0.0005995693   0.0020267253  -0.0004215618  -0.0003810556
        0.0002337173   0.0000451966   0.0021616635   0.0011860590  -0.0111670393
       -0.0068788247   0.0036384029   0.0000000626  -0.0010216883  -0.0000001021
        0.0111668791  -0.0068784641  -0.0036383384  -0.0000453286   0.0021616394
       -0.0011857851   0.0004215017  -0.0003811128  -0.0002337412  -0.0041055021
       -0.0005994989  -0.0020263431   0.0064810045  -0.0279830414  -0.0125963393
        0.0374585900  -0.1231401300  -0.0432021860   0.0000000462   0.0107372339
       -0.0000004512   0.0000005358  -0.0008581425   0.0000012762  -0.0000012282
        0.0006537975  -0.0000002018   0.0000000229   0.0003498306  -0.0000000433
       -0.0000000012  -0.0000311299   0.0000000059  -0.0000000018  -0.0000002543
        0.0000000050   0.0000000159  -0.0000149335  -0.0000000042   0.0000000082
       -0.0000161822  -0.0000000042   0.0000000021  -0.0000008130  -0.0000000054
       -0.0000000300   0.0002012519   0.0000000039   0.0000125874  -0.0000290417
       -0.0000147540  -0.0000114705  -0.0000009251  -0.0000017768  -0.0000033365
        0.0000132811  -0.0000074118  -0.0000039696  -0.0000104374  -0.0000087423
        0.0000039733  -0.0000104177   0.0000087427   0.0000032517   0.0000132660
        0.0000074165   0.0000114011  -0.0000009313   0.0000017936  -0.0000126091
       -0.0000290325   0.0000147655  -0.0011341252   0.0012471582  -0.0009542953
       -0.0004496895  -0.0011162281   0.0003916762  -0.0000665580  -0.0001674501
       -0.0004726129  -0.0000037380  -0.0004057983   0.0000209276   0.0000037901
       -0.0004057898  -0.0000208750   0.0000665967  -0.0001674548   0.0004725160
        0.0004496990  -0.0011161618  -0.0003917129   0.0011342798   0.0012463178
        0.0009539729
        0.0092653193  -0.0000006373  -0.0361996379  -0.0285250051   0.0000013562
       -0.1724675728   0.0233085823  -0.0000074845   0.4155416637  -0.0389980049
        0.0000021448  -0.0687271009   0.0229882808  -0.0000012675   0.0029968387
       -0.0074085692  -0.0000000325   0.0019290387   0.0042397494  -0.0000002206
       -0.0004318135  -0.0014262480   0.0000002763  -0.0034555566  -0.0008394407
       -0.0000001046  -0.0011616619   0.0000744106  -0.0000001476   0.0005412307
        0.0000200471  -0.0000000939  -0.0011230530   0.0004018618   0.0000000528
        0.0001430083   0.0000134160  -0.0000000068  -0.0003925420   0.0002392942
        0.0000000544  -0.0001218177  -0.0001029142  -0.0000000036   0.0000575421
       -0.0000321896   0.0000002599   0.0001956553  -0.0001649055  -0.0000000378
       -0.0001074785   0.0005400921  -0.0000001668   0.0003979117  -0.0008858176
       -0.0000001091   0.0009585840  -0.0001358468   0.0000009342   0.0001364026
        0.0002900027   0.0003829559  -0.0002341736  -0.0000006166  -0.0001171645
        0.0000746133  -0.0000209536   0.0000544141  -0.0000355958  -0.0000535244
        0.0000503872   0.0000631764  -0.0000809427  -0.0000380257  -0.0000314387
        0.0001145108  -0.0003334410  -0.0001621238  -0.0002619113   0.0000000657
        0.0003023104   0.0001145422   0.0003334108  -0.0001621400  -0.0000809208
        0.0000380259  -0.0000315108  -0.0000534919  -0.0000503797   0.0000631092
       -0.0000209325  -0.0000544324  -0.0000356580  -0.0000005892   0.0001171063
        0.0000745359   0.0002900406  -0.0003829709  -0.0002341662   0.0145696582
        0.0372990678  -0.0612443397   0.0014425739   0.0089247658  -0.0022968837
        0.0002222152   0.0020410803   0.0058335237  -0.0007171975   0.0008803483
       -0.0003119828   0.0010303491  -0.0005037122   0.0050467982   0.0064867766