78
 energy: -130.571562647140 gnorm: 0.000106324005 xtb: 6.7.1 (edcfbbe)
O           -6.04697229435136       -0.98668082766567        1.04985127949576
C           -5.16258087836861       -0.35680561692536        0.49711826989306
C           -3.73832503044883       -0.79653184989673        0.55830385816208
C           -3.18802057718132       -1.25097071911514        1.75668355323897
C           -1.89978384061927       -1.74760863653113        1.79294750809618
C           -1.15221121288782       -1.82841814939862        0.62297221006127
N            0.15499635925832       -2.38668884276583        0.62086595585240
C            0.39432875002995       -3.55768947386696       -0.08730282135971
C           -0.63892185902737       -4.32046004426676       -0.62652566934081
C           -0.36630345060490       -5.48027605978741       -1.32997739397712
C            0.93895390845837       -5.90673767977176       -1.50289898914765
C            1.97797769294881       -5.17455497794925       -0.95221437487284
C            1.71308516025974       -4.01442306181174       -0.24512943018070
O            2.78261248415946       -3.34571496068563        0.28297099433212
C            2.52521887762409       -2.23833216868991        1.04031574766610
C            3.61474190929241       -1.60375548166606        1.61072394069572
C            3.43051135776638       -0.48254553888485        2.40239182812369
C            2.15182303506424        0.00000413049245        2.61350684979341
C            1.05772170282327       -0.61347456385603        2.02721733189906
C            1.22285153948090       -1.74395673737204        1.23300056646926
C           -1.70771410854872       -1.40283465404532       -0.58332321130991
C           -2.98401167911749       -0.88556603701168       -0.61212844280244
C           -5.39954490429962        0.81860818163278       -0.36001551938208
C           -6.52838849315438        0.87159212401121       -1.17665198498238
C           -6.68159661089448        1.89954156343899       -2.08210410505267
C           -5.71256432197189        2.89566827077208       -2.17385977256209
C           -4.61507230236379        2.88342659525002       -1.33729685897414
C           -4.45436518074124        1.85678411794118       -0.40767183032384
C           -3.40803327765528        1.92737615988553        0.63552181760364
O           -3.73336140385326        1.83197824302241        1.84352582261659
C           -2.03364209075293        2.10991780836101        0.24635826028102
C           -1.55964483318658        1.99285165843636       -1.07602473080885
C           -0.21079872248679        1.96601029820739       -1.33756016205187
C            0.71706317064792        2.04071474949524       -0.29409357372182
N            2.10295475542866        1.85889856167702       -0.51682803097553
C            2.59498290078032        0.66636041228238       -1.03256399634515
C            1.76778932720902       -0.32339550499027       -1.56016950667459
C            2.29791703887405       -1.47282096100160       -2.11723411079404
C            3.66546479252635       -1.68283832876122       -2.12532475804171
C            4.50279885088312       -0.73637642162330       -1.55960116097959
C            3.97989925200796        0.42643192359387       -1.01924114245504
O            4.86660771134906        1.30458437404271       -0.46356776847356
C            4.37927516510834        2.50693278204398       -0.03252421983179
C            5.29546306252820        3.43363916366148        0.43463978557940
C            4.86851154284538        4.68302693483262        0.85369894008706
C            3.52453050543944        5.00883751362013        0.78177414692413
C            2.60298676721011        4.08652071826436        0.32195852421687
C            3.00842198975853        2.81099051894026       -0.06844191239236
C            0.25854089251843        2.25693627479650        1.01267162395322
C           -1.08180894622302        2.28815258964965        1.27574945640619
H           -3.78274006471242       -1.19819218726060        2.65465107860740
H           -1.47674359456298       -2.10120653507656        2.72199740908810
H           -1.65950467020806       -4.00202284060310       -0.48656299384903
H           -1.18354871451214       -6.05235736364881       -1.74038863498687
H            1.15181253420266       -6.80852116304916       -2.05439450673701
H            3.00474548236178       -5.48630693788913       -1.05608910829788
H            4.59603670070135       -2.00928079941135        1.42544820443054
H            4.28218109624142        0.00519390255517        2.84972150955845
H            1.99929875020284        0.86013250859400        3.24682188360160
H            0.06903895138141       -0.21249527454806        2.17842678857919
H           -1.13931967805789       -1.50088858151495       -1.49672876081460
H           -3.41239546415452       -0.56638994064780       -1.55100878919123
H           -7.25853439113824        0.07977107486437       -1.09604748991682
H           -7.55071896027696        1.93377365128728       -2.72205243477073
H           -5.83437228533710        3.70010619546047       -2.88480636320693
H           -3.89768039439948        3.69109957179581       -1.36829144478480
H           -2.26037638408268        1.90438162687442       -1.89175564717740
H            0.14224732226706        1.88610623181728       -2.35627456642892
H            0.70075836404120       -0.18200038647167       -1.53006895217915
H            1.63405413017366       -2.21293998679171       -2.53921746252987
H            4.07888223016413       -2.58085542209660       -2.55499780385853
H            5.57088331514088       -0.87839603947253       -1.52535285613178
H            6.33735021439131        3.15738349962391        0.45636162650398
H            5.58637139629990        5.39943287395301        1.21987477035508
H            3.18693947682535        5.98821326255524        1.08267315212263
H            1.55929372825225        4.34927442232678        0.25582148872345
H            0.97815960599990        2.37545273150618        1.80806908708267
H           -1.45092917214904        2.42035767380989        2.28133144193821
