$hessian                                                                        
        0.4232503235   0.2444146454  -0.2245890291  -0.3543219064  -0.2085973965
        0.1785685339  -0.0735357226  -0.0151120325   0.0251465638   0.0042394098
       -0.0037318261   0.0073564050  -0.0022804839   0.0020537040   0.0015619667
        0.0024524925  -0.0008931112   0.0012187987   0.0014050555  -0.0004343691
       -0.0004669920  -0.0000998546   0.0009733033   0.0008588344  -0.0007491980
       -0.0005474858  -0.0005197961  -0.0008070164   0.0007902778   0.0003871963
        0.0010695068   0.0000809740   0.0001037030   0.0000620584  -0.0005898344
       -0.0004280436   0.0012947110   0.0004001628   0.0004439856  -0.0013927777
        0.0009783476   0.0005105367   0.0008211217  -0.0015446901  -0.0010400104
        0.0004642409   0.0004774140   0.0002992210   0.0005901171  -0.0005914929
       -0.0002882139  -0.0009677736   0.0000667021  -0.0001050335   0.0001562975
        0.0010114424   0.0003820220  -0.0017254966  -0.0012991760  -0.0010746395
       -0.0038342452   0.0040160395   0.0002311402  -0.0007494479   0.0027012811
       -0.0057710461   0.0083578470  -0.0256951840   0.0175429943  -0.0089299974
        0.0038977709  -0.0055630198   0.0009008245  -0.0038901482   0.0045076833
        0.0006942046   0.0021654435  -0.0006238162   0.0015211138  -0.0013988285
        0.0000908540   0.0009180608  -0.0012014969  -0.0016909849  -0.0204773550
       -0.0030071791   0.0240507558   0.0104393663   0.0038459833  -0.0201283377
        0.0170770387   0.0032344418  -0.0032249305  -0.0057812838  -0.0005118123
        0.0064063689   0.0058308363   0.0004697396   0.0014931115  -0.0029494601
       -0.0001970429   0.0008303999  -0.0016841049   0.0003416777  -0.0000916442
       -0.0001528723  -0.0015126429  -0.0010866619   0.0005777951   0.0007061004
        0.0002762559   0.0002216003  -0.0002800509   0.0000054820   0.0000300696
        0.0001828981   0.0001578948  -0.0002970752  -0.0000914885   0.0000235790
       -0.0000480182   0.0004092017   0.0003036554  -0.0004010396   0.0000091992
        0.0000204479  -0.0006948701  -0.0003458915  -0.0002689952  -0.0001087065
        0.0004575021   0.0000365907  -0.0002541459  -0.0003581663  -0.0001911533
        0.0005399468   0.0002471193   0.0001314364   0.0002824306  -0.0012628262
       -0.0005643953   0.0011421053   0.0018218635   0.0014303441   0.0048915044
       -0.0004961138  -0.0033894948  -0.0072008094  -0.0009383552  -0.0041378924
        0.0001285042  -0.0006525020  -0.0006328107  -0.0001384530  -0.0002113183
       -0.0000706072   0.0000014787  -0.0000360768   0.0000335554   0.0000374933
        0.0000980638   0.0001029726   0.0000242201   0.0000500754   0.0000549198
       -0.0000099250  -0.0000295516   0.0000290946  -0.0000303221   0.0000271616
        0.0000392613  -0.0000667237  -0.0000589074  -0.0000199028   0.0000275542
       -0.0000420441   0.0000556082  -0.0001265568  -0.0002463590   0.0001083173
       -0.0007334801   0.0000259680  -0.0001127126  -0.0001600500  -0.0008664460
       -0.0003207604   0.0012922332   0.0006464630   0.0012911490   0.0003724474
       -0.0003975379  -0.0001800527   0.0001309880   0.0003296151   0.0002822561
        0.0001185196   0.0005178507   0.0000644681  -0.0002061547  -0.0002179066
        0.0002072694  -0.0000276708  -0.0001160511   0.0002654481  -0.0000516702
       -0.0003068486  -0.0001585189  -0.0000306048   0.0000672433  -0.0000161287
       -0.0000107987   0.0000625532  -0.0000356236  -0.0000454141   0.0000514347
       -0.0000470531  -0.0000503722  -0.0000030102   0.0000196435  -0.0000473714
       -0.0000597905   0.0000037031  -0.0000142930  -0.0000671346  -0.0000096796
        0.0000369363   0.0002818741   0.0000718008  -0.0000331646   0.0000866842
       -0.0001717346  -0.0001737673  -0.0001580957   0.0000134867
        0.2444146454   0.2280124258  -0.1810498116  -0.2053161815  -0.1995277109
        0.1317425511  -0.0131331872   0.0147935368   0.0068091973   0.0019474897
       -0.0012840219   0.0010168467  -0.0016319447  -0.0005348271   0.0000320253
       -0.0001583086   0.0000757690  -0.0007228627   0.0022482799  -0.0001710374
       -0.0001643634  -0.0003124511   0.0011403894   0.0010513966  -0.0008246650
       -0.0005270748  -0.0005059708  -0.0007109065   0.0007596170   0.0003601650
        0.0009655772   0.0000400166   0.0000588036   0.0001007205  -0.0004997539
       -0.0003910177   0.0010712428   0.0002206228   0.0004649318  -0.0010644051
        0.0009008260   0.0003647790   0.0007317514  -0.0013721463  -0.0008032097
        0.0004670603   0.0004227254   0.0002547596   0.0005957467  -0.0005015650
       -0.0002686108  -0.0009630633   0.0000646814  -0.0001536636   0.0001428039
        0.0009477579   0.0004049752  -0.0017396312  -0.0012376802  -0.0011229015
       -0.0007398493  -0.0005006290   0.0009185854   0.0010563418   0.0013714643
       -0.0016448977  -0.0249417873  -0.0406071242   0.0435690099  -0.0095283142
        0.0032303098  -0.0060333750  -0.0002617091  -0.0057095696   0.0021875468
        0.0019081073   0.0027864033  -0.0003386007   0.0007219989  -0.0031578112
       -0.0010962502   0.0053228148  -0.0019976368   0.0040319454  -0.0146777125
       -0.0011219806   0.0158151161   0.0064044863   0.0021059698  -0.0140685783
        0.0126530676   0.0025471321  -0.0026625644  -0.0041592037   0.0000554250
        0.0051933499   0.0043407067   0.0003553707   0.0010924301  -0.0021719948
       -0.0000614211   0.0007693009  -0.0013099109   0.0002772015  -0.0000780249
       -0.0001342469  -0.0010799872  -0.0007967873   0.0004327590   0.0005390828
        0.0002195258   0.0001927638  -0.0001880243   0.0000081022  -0.0000050494
        0.0000925335   0.0001034908  -0.0001910830  -0.0000051303   0.0000574202
       -0.0000570610   0.0002565298   0.0002003379  -0.0002873824   0.0000329995
        0.0000480397  -0.0005168724  -0.0002434650  -0.0002105551  -0.0001110734
        0.0002957977   0.0000053465  -0.0002545799  -0.0002415078  -0.0001481949
        0.0004501504   0.0001568279   0.0000988713   0.0002171267  -0.0009715467
       -0.0004214215   0.0007424497   0.0012767586   0.0010251593   0.0035893454
       -0.0004727620  -0.0027408841  -0.0054282673  -0.0004839091  -0.0032345325
        0.0001007547  -0.0001378806  -0.0008450354  -0.0000025429   0.0000632958
        0.0000486611   0.0000549202   0.0000127040   0.0000669877   0.0000316025
        0.0000878143   0.0000997193   0.0000465061   0.0000179894   0.0000442979
        0.0000034115  -0.0000306413   0.0000248798  -0.0000120030   0.0000184999
        0.0000425320  -0.0000258957  -0.0000553263  -0.0000092929   0.0000216469
       -0.0000387608   0.0000583332  -0.0001501842  -0.0002548826   0.0000425856
       -0.0001651703  -0.0001433295  -0.0001958510   0.0001944372  -0.0001158667
       -0.0000318805   0.0001099341   0.0007507041   0.0007504171   0.0001980823
       -0.0001732008  -0.0000717650  -0.0001651586   0.0003266608   0.0004334571
        0.0000726209  -0.0001017450   0.0002369972  -0.0000422162  -0.0001836491
        0.0001166971   0.0000050385  -0.0001276166   0.0001788698  -0.0000687132
       -0.0002742727  -0.0000981068  -0.0000326325   0.0000678809   0.0000003172
       -0.0000010640   0.0000482999  -0.0000292688  -0.0000263523   0.0000341540
       -0.0000362515  -0.0000297419  -0.0000010931   0.0000159359  -0.0000272369
       -0.0000443724   0.0000028020  -0.0000061554  -0.0000394101  -0.0000026047
        0.0000238504   0.0002005240   0.0000477988   0.0000370462  -0.0000131479
       -0.0001299971  -0.0002313785  -0.0001531837  -0.0000081660
       -0.2245890291  -0.1810498116   0.1783261335   0.1779202623   0.1395339750
       -0.1719355442   0.0261604406  -0.0007179577   0.0078601462  -0.0025647978
        0.0023582559  -0.0041577048   0.0027964779  -0.0012516380  -0.0006100602
       -0.0011484532   0.0003927823   0.0000002764  -0.0014618149   0.0004162849
        0.0003446572   0.0001816594  -0.0011102936  -0.0009407523   0.0006182307
        0.0004996004   0.0004629171   0.0005886748  -0.0006280084  -0.0003073939
       -0.0007612563  -0.0000452945  -0.0000573645  -0.0000507691   0.0004063076
        0.0003228357  -0.0009884311  -0.0002112522  -0.0003412120   0.0009215955
       -0.0006337535  -0.0002642092  -0.0006011310   0.0010636956   0.0006402434
       -0.0003801417  -0.0003565769  -0.0002191701  -0.0004745656   0.0004372975
        0.0002332643   0.0007703534  -0.0000301702   0.0001234244  -0.0000951980
       -0.0008304863  -0.0003348941   0.0013733223   0.0010494436   0.0008788979
        0.0018068566  -0.0016317419   0.0012177308  -0.0042994104   0.0009033243
        0.0033155708   0.0201571511   0.0375040961  -0.0149678613   0.0056716980
       -0.0019113341   0.0031425347   0.0002771957   0.0019257376  -0.0013657913
       -0.0005143025  -0.0014113057   0.0004935008   0.0005634765   0.0018822426
        0.0000148256  -0.0021157476   0.0050135458  -0.0009500655   0.0127860883
        0.0026950572  -0.0167738602  -0.0067375552  -0.0030429520   0.0135893356
       -0.0110652872  -0.0022094383   0.0020758443   0.0037662946   0.0002366586
       -0.0042911675  -0.0038765482  -0.0002620646  -0.0009909676   0.0019129802
        0.0001326054  -0.0004542320   0.0011195590  -0.0002282769   0.0000932794
        0.0001063937   0.0009826583   0.0006962754  -0.0003827450  -0.0004615357
       -0.0001630443  -0.0001437963   0.0001575613  -0.0000084435  -0.0000122421
       -0.0001266729  -0.0001096095   0.0002122859   0.0000502393  -0.0000105019
        0.0000563845  -0.0002318747  -0.0001910708   0.0002158569  -0.0000297946
       -0.0000168110   0.0004389955   0.0002043618   0.0001725578   0.0000791225
       -0.0002997938  -0.0000257784   0.0001725711   0.0002230822   0.0001156793
       -0.0003603634  -0.0001517955  -0.0000839267  -0.0002007799   0.0008009207
        0.0003563366  -0.0007123778  -0.0011398609  -0.0009040444  -0.0030619118
        0.0003204385   0.0021634563   0.0046399211   0.0004672537   0.0027309696
        0.0008029101  -0.0000648859   0.0011745027   0.0001176065  -0.0000698672
       -0.0000032495  -0.0000524771  -0.0000448351  -0.0000795130  -0.0000239787
       -0.0000376927  -0.0000602526  -0.0000218783  -0.0000174256  -0.0000338999
        0.0000035957   0.0000270843  -0.0000167135   0.0000093960  -0.0000128302
       -0.0000259978   0.0000297957   0.0000422271   0.0000106341  -0.0000129358
        0.0000414736  -0.0000411771   0.0001220647   0.0002173005  -0.0000540063
       -0.0000986721   0.0001229825   0.0002083125  -0.0000402209   0.0003525514
        0.0002710396   0.0002339357  -0.0008559682   0.0001197785  -0.0001228829
        0.0000843679   0.0001113354   0.0000121249  -0.0000575217  -0.0001650093
       -0.0000941414   0.0001978437  -0.0002987877   0.0000614540   0.0001536803
       -0.0000903992  -0.0000059801   0.0001007478  -0.0001473237   0.0000552043
        0.0002305578   0.0000785133   0.0000321923  -0.0000423138   0.0000034730
        0.0000033626  -0.0000289272   0.0000251788   0.0000233703  -0.0000323434
        0.0000302637   0.0000290108   0.0000045934  -0.0000135262   0.0000295214
        0.0000281814  -0.0000045419   0.0000076741   0.0000329516  -0.0000003436
       -0.0000143800  -0.0001734055  -0.0000484033   0.0000037356  -0.0000129192
        0.0001129336   0.0001953997   0.0001606507   0.0000419673
       -0.3543219064  -0.2053161815   0.1779202623   0.6080693982   0.1299089402
       -0.1364754080  -0.1347410403   0.0312672389  -0.0100851283  -0.0236473866
        0.0164175869  -0.0214046018   0.0084165991  -0.0009766313  -0.0036111950
       -0.0062839377   0.0025482258  -0.0018354257  -0.0012112723  -0.0005052288
        0.0003220599   0.0002218373  -0.0013155272  -0.0010797274   0.0009746291
        0.0007071480   0.0006774807   0.0010274520  -0.0010224978  -0.0005006110
       -0.0012840276  -0.0000571135  -0.0000933526  -0.0001039327   0.0006574316
        0.0005031935  -0.0016460968  -0.0004916795  -0.0005752823   0.0017661546
       -0.0012848763  -0.0006120521  -0.0009751650   0.0020347975   0.0012586891
       -0.0006371452  -0.0005770362  -0.0003404412  -0.0007264647   0.0006863596
        0.0003412446   0.0012114138  -0.0000760780   0.0001447246  -0.0001405426
       -0.0011962729  -0.0004060949   0.0019780214   0.0016199668   0.0012262967
        0.0084796827  -0.0030430028   0.0058626723  -0.0315747495   0.0022064124
        0.0185561522  -0.0731538669   0.0289670221  -0.0134683927  -0.0004367522
        0.0159721206  -0.0145739770  -0.0040818923  -0.0015175371  -0.0086578935
        0.0013611565  -0.0002753646   0.0006834391  -0.0024232793  -0.0036086611
       -0.0026446150   0.0075786605  -0.0102546570   0.0121891092   0.0214052705
        0.0040675736  -0.0261821628  -0.0122313299  -0.0060673915   0.0213294858
       -0.0192003686  -0.0026360105   0.0030476489   0.0068207229   0.0010957230
       -0.0067965270  -0.0066993755  -0.0004787397  -0.0017807718   0.0033273458
        0.0003237893  -0.0004925593   0.0019465546  -0.0003598411   0.0000612199
        0.0001594328   0.0017305365   0.0012616932  -0.0006009168  -0.0007667705
       -0.0002960273  -0.0002300957   0.0003145220  -0.0000041543  -0.0000173298
       -0.0001414498  -0.0001542162   0.0002697914   0.0001078331  -0.0000508537
        0.0001021999  -0.0004063114  -0.0003050817   0.0003306278   0.0000467417
       -0.0000392183   0.0008224813   0.0002809153   0.0002582605   0.0000824359
       -0.0004984069  -0.0000358402   0.0002637417   0.0003602603   0.0001995180
       -0.0005603659  -0.0002799889  -0.0001402579  -0.0003051578   0.0013763232
        0.0006241434  -0.0013260279  -0.0020824640  -0.0016331726  -0.0052206441
        0.0002826855   0.0033915951   0.0078331706   0.0010406128   0.0045770380
        0.0005133990  -0.0011060103   0.0016609714   0.0002528878  -0.0001202876
        0.0002439250  -0.0000913706   0.0000595996  -0.0000387804  -0.0000519257
       -0.0000939515  -0.0001149318  -0.0000305426  -0.0000498223  -0.0000672409
        0.0000076531   0.0000450212  -0.0000387512   0.0000253593  -0.0000397096
       -0.0000472960   0.0000717642   0.0000690929   0.0000206182  -0.0000434130
        0.0000522223  -0.0000709864   0.0001232689   0.0002943857  -0.0001122649
        0.0005145862   0.0005560581   0.0000169466   0.0006035313   0.0001889957
       -0.0012202750  -0.0019682185   0.0013142420  -0.0005653124  -0.0005561535
        0.0011362605  -0.0004999261  -0.0005841882   0.0000633911   0.0003470367
       -0.0002200609  -0.0014915262   0.0006387014   0.0002291680   0.0002003809
       -0.0003300520   0.0000615268   0.0001130267  -0.0003363772   0.0000831489
        0.0003518693   0.0001716582   0.0000322278  -0.0001040666   0.0000038082
        0.0000068374  -0.0000840182   0.0000362754   0.0000568876  -0.0000631837
        0.0000505742   0.0000631057   0.0000019428  -0.0000191348   0.0000566136
        0.0000742292   0.0000008799   0.0000125464   0.0000808404   0.0000154578
       -0.0000471553  -0.0003082488  -0.0000768393   0.0000565405  -0.0000983291
        0.0001837557   0.0001542653   0.0001725488  -0.0000133258
       -0.2085973965  -0.1995277109   0.1395339750   0.1299089402   0.4332356055
       -0.2156768006   0.0382891032  -0.0750793309  -0.0054052684   0.0125710789
       -0.0049476006   0.0079186252   0.0019557977   0.0067946082   0.0032958716
        0.0030831540  -0.0009527696   0.0024731692  -0.0040876551  -0.0007411883
       -0.0001366656   0.0007846904  -0.0017672352  -0.0015222453   0.0010091822
        0.0007280709   0.0006331897   0.0008774939  -0.0009648443  -0.0004613761
       -0.0012321353  -0.0000588841  -0.0000747498  -0.0000825342   0.0006222712
        0.0005076407  -0.0014196771  -0.0002918690  -0.0007492379   0.0014181705
       -0.0011573154  -0.0003602926  -0.0010024936   0.0017658049   0.0009427854
       -0.0006073964  -0.0005538838  -0.0003261536  -0.0007913518   0.0006562610
        0.0003877023   0.0013142771  -0.0001204312   0.0002163444  -0.0001999351
       -0.0011120643  -0.0005038806   0.0021772951   0.0015600720   0.0015257459
       -0.0004532190   0.0076228574  -0.0026051478   0.0076864663  -0.0001237454
       -0.0040220390   0.0184893928  -0.1256880146   0.0453983573   0.0242667061
       -0.0118286885   0.0175560252   0.0014879167   0.0141437958  -0.0047852341
       -0.0055819386  -0.0063454161   0.0000910941  -0.0043567917   0.0016144180
        0.0028564120  -0.0185249315  -0.0279248514   0.0138726070   0.0188213649
       -0.0004711559  -0.0119542725  -0.0065123204  -0.0012331286   0.0118595969
       -0.0136963306  -0.0036550119   0.0032820579   0.0042672437  -0.0004087854
       -0.0059044633  -0.0044666725  -0.0003594650  -0.0010478075   0.0022522335
       -0.0000795431  -0.0011720577   0.0014411250  -0.0002413550   0.0000980493
        0.0001226525   0.0011079656   0.0008467941  -0.0004293215  -0.0005223391
       -0.0002663408  -0.0002103821   0.0001914951  -0.0000084745   0.0000118174
       -0.0000406931  -0.0000965766   0.0001515480  -0.0000126706  -0.0000914599
        0.0000589819  -0.0002562612  -0.0001904225   0.0002923458  -0.0000026704
       -0.0000735880   0.0005613809   0.0002283205   0.0002348252   0.0000989815
       -0.0002838519   0.0000017925   0.0002725156   0.0002422596   0.0001577109
       -0.0004750565  -0.0001782561  -0.0001116233  -0.0001746998   0.0010317454
        0.0004389344  -0.0007901316  -0.0013736157  -0.0010775999  -0.0039671693
        0.0006804373   0.0031415204   0.0061237425   0.0004113763   0.0036573321
       -0.0003665429  -0.0017261101   0.0003061973   0.0001073001  -0.0003626105
       -0.0001721496  -0.0000910717  -0.0000271333  -0.0000583737  -0.0000367368
       -0.0000966006  -0.0001134931  -0.0000594408  -0.0000152631  -0.0000552342
       -0.0000059489   0.0000305912  -0.0000313324   0.0000038057  -0.0000135855
       -0.0000612505   0.0000257690   0.0000701907   0.0000036203  -0.0000162670
        0.0000593797  -0.0000764258   0.0001828384   0.0002538243  -0.0000506656
       -0.0001696215  -0.0000064483   0.0003060085  -0.0013429917  -0.0019022151
        0.0002091062  -0.0007939445  -0.0005207345  -0.0019709066  -0.0006185168
        0.0005432741  -0.0000347437   0.0005278813  -0.0005117858  -0.0008966221
        0.0000309876  -0.0006504710   0.0005457431   0.0000674692   0.0001329757
       -0.0002702951  -0.0000242517   0.0001469316  -0.0001850032   0.0000751626
        0.0002844020   0.0001071058   0.0000370080  -0.0000829112  -0.0000003479
       -0.0000070350  -0.0000577335   0.0000355202   0.0000308800  -0.0000353768
        0.0000395685   0.0000333185  -0.0000014606  -0.0000150780   0.0000277064
        0.0000586019   0.0000025581   0.0000070274   0.0000571438   0.0000093489
       -0.0000283929  -0.0002021599  -0.0000435705  -0.0001077329   0.0000794284
        0.0001356564   0.0003752826   0.0001631381   0.0000306780
        0.1785685339   0.1317425511  -0.1719355442  -0.1364754080  -0.2156768006
        0.3534700477  -0.0139287137   0.0104236589  -0.0594332665  -0.0214976183
        0.0064480483  -0.0005570944  -0.0031461881   0.0021617275  -0.0037606585
       -0.0004988134   0.0002416315  -0.0009072656   0.0022542053  -0.0007094488
       -0.0001725730  -0.0003202059   0.0014289452   0.0011771541  -0.0007748552
       -0.0006293794  -0.0005217116  -0.0007609802   0.0007816763   0.0003852355
        0.0010028452   0.0000932797   0.0000984426   0.0000278949  -0.0005526331
       -0.0004273788   0.0012420270   0.0002919862   0.0004726145  -0.0012146153
        0.0008930526   0.0003823120   0.0008290646  -0.0014299495  -0.0008851061
        0.0004727359   0.0004746922   0.0003117783   0.0006309827  -0.0005804987
       -0.0003174923  -0.0009932721   0.0000677035  -0.0001686428   0.0001515562
        0.0010011691   0.0004678452  -0.0019008859  -0.0012950693  -0.0012437945
        0.0026434566   0.0005121935  -0.0034512968   0.0223037211  -0.0079988038
       -0.0008790803  -0.0166327959   0.0447815764  -0.0923767397  -0.0212886578
        0.0201657867  -0.0221793563  -0.0068950390  -0.0054441903   0.0071053242
        0.0034642513   0.0041970418  -0.0009190273  -0.0018452639   0.0000269659
        0.0023551895   0.0144360458   0.0089776753  -0.0032440634  -0.0212380736
       -0.0035535172   0.0204344575   0.0088562834   0.0018073993  -0.0189881074
        0.0169491791   0.0032636115  -0.0037166359  -0.0053416810  -0.0000701918
        0.0067152179   0.0055604611   0.0006037221   0.0014135075  -0.0030981233
       -0.0000266413   0.0011701349  -0.0015718982   0.0003632111  -0.0002092232
       -0.0000027806  -0.0017505190  -0.0010784264   0.0005703922   0.0007839666
        0.0002901209   0.0003425051  -0.0003396049  -0.0000418242  -0.0001148438
        0.0001191571   0.0001172016  -0.0003111472   0.0000437820   0.0000496228
       -0.0003980192   0.0000584154   0.0001115574   0.0000971544  -0.0000006895
        0.0000943805  -0.0008342409   0.0000153654  -0.0001503888  -0.0001496878
        0.0003545663  -0.0000060058  -0.0003412500  -0.0001955794  -0.0001377313
        0.0007041668   0.0002897936   0.0001668743   0.0002706094  -0.0012876487
       -0.0005728459   0.0012535554   0.0018771451   0.0013776647   0.0047988115
       -0.0007223693  -0.0037022301  -0.0073840639  -0.0005616076  -0.0041044637
       -0.0015762878   0.0004267804  -0.0008644032  -0.0010678163   0.0005770760
       -0.0000522750   0.0000937915   0.0000691990   0.0000645621   0.0000334913
        0.0000529253   0.0000767205   0.0000266579   0.0000179323   0.0000393741
        0.0000011955  -0.0000295307   0.0000171439  -0.0000167208   0.0000164063
        0.0000353913  -0.0000445481  -0.0000503908  -0.0000144629   0.0000228202
       -0.0000500362   0.0000612949  -0.0001371580  -0.0002547893   0.0000515652
        0.0013333491  -0.0005077402  -0.0004171221   0.0009409292  -0.0003282079
       -0.0001070025   0.0018912482  -0.0003672489  -0.0005539250   0.0001919518
        0.0001866812  -0.0004073173   0.0004121801  -0.0004328857  -0.0003676380
        0.0000409921  -0.0000882226   0.0002212392  -0.0000924991  -0.0002565837
        0.0002179184   0.0000020767  -0.0001633472   0.0002323187  -0.0000887821
       -0.0003536358  -0.0001062541  -0.0000543921   0.0000738728   0.0000090393
       -0.0000058486   0.0000360870  -0.0000346266  -0.0000304515   0.0000493762
       -0.0000405936  -0.0000454532  -0.0000092757   0.0000203631  -0.0000440924
       -0.0000354471   0.0000089283  -0.0000090936  -0.0000445462   0.0000034850
        0.0000270078   0.0002288629   0.0000678811   0.0000047354  -0.0000128201
       -0.0001557414  -0.0002805997  -0.0002168461  -0.0000845718
       -0.0735357226  -0.0131331872   0.0261604406  -0.1347410403   0.0382891032
       -0.0139287137   0.5291900079  -0.1219967550  -0.0371756782  -0.1108227430
        0.0360856778  -0.0903550864  -0.0288713751   0.0165487095  -0.0236070793
        0.0078846643  -0.0061981413   0.0058383351   0.0004428879   0.0000749671
       -0.0003448203   0.0002978884   0.0015828300   0.0008934292  -0.0010076934
       -0.0006307162  -0.0006175484  -0.0006844749   0.0007358774   0.0003508164
        0.0007879132  -0.0000261558  -0.0000008507   0.0001561658  -0.0003700426
       -0.0002693259   0.0013121095   0.0001682778   0.0001808114  -0.0009007299
        0.0004876519   0.0003030210   0.0006381942  -0.0011480445  -0.0005799850
        0.0004650596   0.0003322585   0.0001683272   0.0005098338  -0.0004418883
       -0.0002050878  -0.0008529459  -0.0000704628  -0.0001422345  -0.0000158042
        0.0010536829   0.0005659420  -0.0010444334  -0.0015752323  -0.0006707325
       -0.0457572048   0.0143970938   0.0168076361  -0.1320399189   0.0168685388
        0.1223386825  -0.0116236882   0.0176260708  -0.0149813948   0.0007047727
        0.0005116019   0.0013687368   0.0013083778   0.0019316436  -0.0003664530
       -0.0018016667  -0.0010191252  -0.0001178436   0.0005257713  -0.0002276003
        0.0007726022  -0.0051588086  -0.0038951939  -0.0003325875  -0.0085292681
       -0.0035868913   0.0145711290   0.0047024520   0.0036385722  -0.0111884569
        0.0090052609   0.0010252673  -0.0011709496  -0.0039497008  -0.0006814440
        0.0033348475   0.0035826986   0.0001868266   0.0011033951  -0.0019109030
       -0.0002630269  -0.0001515417  -0.0009569369   0.0002546607  -0.0000117308
       -0.0000232464  -0.0009140219  -0.0006437347   0.0002731763   0.0003887576
        0.0001194088   0.0001505691  -0.0001519566   0.0000361948  -0.0000366236
        0.0000301682   0.0000404012  -0.0001458208  -0.0000205611   0.0000210256
       -0.0002929729   0.0000638201   0.0000607704   0.0001008230  -0.0000560498
        0.0000449844  -0.0004748595   0.0000887928  -0.0000418280  -0.0000708165
        0.0001763813  -0.0000095733  -0.0001636444  -0.0000838401  -0.0000642095
        0.0003431065   0.0001406295   0.0000793549   0.0001450987  -0.0006542586
       -0.0003110138   0.0007108137   0.0009724019   0.0007779771   0.0022959791
       -0.0000103574  -0.0014417799  -0.0040246376  -0.0005897645  -0.0024209891
        0.0066129642  -0.0034780588   0.0125814393  -0.0044189043   0.0049354441
        0.0001439411  -0.0000400062   0.0002816757   0.0001656534   0.0000234227
        0.0000493728   0.0000641961   0.0000336343   0.0000045186   0.0000288454
        0.0000114092  -0.0000280717   0.0000150906   0.0000056863   0.0000183443
        0.0000037726  -0.0000032758  -0.0000323164  -0.0000198747   0.0000105293
       -0.0000279431   0.0000093909  -0.0002186733  -0.0001866687  -0.0000931118
       -0.0042187108   0.0044732985   0.0002570734   0.0059724421  -0.0015408136
       -0.0082701212  -0.0000083764  -0.0000452333   0.0004100053   0.0001157246
       -0.0001600895  -0.0002644568   0.0000815719   0.0000025890   0.0000285419
        0.0000486443   0.0001240883   0.0000607389   0.0000406706  -0.0001766377
        0.0002105232   0.0000069569  -0.0000824910   0.0001075448  -0.0000947903
       -0.0000503898  -0.0000428205   0.0000044493  -0.0000044789  -0.0000527235
        0.0000047019   0.0000122527  -0.0000253439  -0.0000151043   0.0000267405
       -0.0000316593  -0.0000174668  -0.0000039612   0.0000079643  -0.0000207974
       -0.0000150432   0.0000026951  -0.0000007906  -0.0000182862   0.0000003151
        0.0000125632   0.0001155848   0.0000334920   0.0000154024   0.0000672007
       -0.0000569660  -0.0000398208  -0.0001761726  -0.0000611859
       -0.0151120325   0.0147935368  -0.0007179577   0.0312672389  -0.0750793309
        0.0104236589  -0.1219967550   0.1957634857  -0.0945744477   0.0242302465
       -0.0696037582   0.0719481767   0.0287693508  -0.0105881195   0.0029534414
       -0.0081492680  -0.0047132293   0.0067560490  -0.0016525651   0.0002518767
        0.0002776685   0.0000279920  -0.0018523860  -0.0014195301   0.0008423342
        0.0008937186   0.0007116901   0.0006914119  -0.0007951651  -0.0004428366
       -0.0007975539   0.0000160655  -0.0000081363  -0.0001262937   0.0003587000
        0.0002904824  -0.0012229412  -0.0001021117  -0.0002084891   0.0008990929
       -0.0005663522  -0.0003273413  -0.0008142879   0.0011572257   0.0005533712
       -0.0004327289  -0.0002630502  -0.0001722333  -0.0004936096   0.0004148662
        0.0002012128   0.0008916615   0.0000709198   0.0001365237   0.0000421808
       -0.0010360471  -0.0005067325   0.0016323819   0.0017011167   0.0012912983
        0.0087459631  -0.0003200598  -0.0094928551   0.0200017860  -0.0534664264
       -0.0094676815   0.0213069059  -0.0091349953   0.0121366955   0.0008791719
       -0.0033303517   0.0034031442  -0.0002185271  -0.0002330791   0.0003488381
        0.0012400760   0.0005530595   0.0003186883  -0.0005428042   0.0006385963
       -0.0011943766   0.0050570503   0.0005169188   0.0018050831   0.0101220683
        0.0087382818  -0.0133403121  -0.0033244546  -0.0088721784   0.0065497730
       -0.0124829042  -0.0018981704   0.0020956779   0.0046156180   0.0005016034
       -0.0047887699  -0.0047192624  -0.0003421947  -0.0015243962   0.0027193586
        0.0001656282  -0.0002628343   0.0010957002  -0.0003401816   0.0001609738
       -0.0000075005   0.0013776253   0.0007846708  -0.0004414192  -0.0005769176
       -0.0001954302  -0.0002963853   0.0002795459   0.0000247432   0.0002030840
       -0.0000327493  -0.0000449033   0.0002364198  -0.0001114909  -0.0000573936
        0.0006129305   0.0002014274   0.0000808194  -0.0004608439   0.0000659015
       -0.0001294369   0.0007546471  -0.0003388528  -0.0000079302   0.0001605659
       -0.0001729854   0.0000456365   0.0003373398   0.0000132913   0.0000684513
       -0.0006266238  -0.0002116816  -0.0001404453  -0.0002154849   0.0009707007
        0.0004403341  -0.0009854660  -0.0013812320  -0.0009898980  -0.0031566423
        0.0002816880   0.0024664106   0.0053820651   0.0003700228   0.0031776727
       -0.0007351377   0.0013249199   0.0005718104   0.0044497869   0.0063331757
        0.0012516636  -0.0001049085  -0.0001561926  -0.0001253915  -0.0000159164
       -0.0000152242  -0.0000429740  -0.0000367152   0.0000061549  -0.0000112401
       -0.0000191688   0.0000322013  -0.0000054059  -0.0000179608  -0.0000289156
        0.0000026206   0.0000064156   0.0000142510   0.0000231135  -0.0000221094
        0.0000122786  -0.0000391237   0.0002630821   0.0002354217   0.0000679988
        0.0053384058   0.0059681885   0.0009818983  -0.0037754280   0.0015915176
        0.0080296508  -0.0001565840  -0.0001331877  -0.0002785351   0.0001011308
       -0.0002443273   0.0002930650  -0.0000609990  -0.0000271614  -0.0000221926
       -0.0000701862  -0.0002087006  -0.0000148306   0.0000830231   0.0002254114
       -0.0001233260   0.0000011943   0.0001345282  -0.0001208213   0.0000374206