$hessian                                                                        
        0.3865943620  -0.2274331285   0.1739295340  -0.0624372673  -0.0181977566
       -0.0523687374  -0.0032523620   0.0050363336  -0.0237165174  -0.0018233605
       -0.0018622234  -0.0022335271  -0.0402512170   0.0387249006  -0.0194196462
        0.0111489204  -0.0128581336  -0.0078153308  -0.0040782995   0.0043881001
        0.0067767892   0.0043794007  -0.0052449564   0.0029383596  -0.0045829896
        0.0054568628   0.0010121224   0.0012253806  -0.0036504655  -0.0005372248
        0.0019287986   0.0029157454   0.0003699288  -0.0010053967  -0.0025880914
        0.0011262349   0.0014115859   0.0021415623   0.0023831260  -0.0041283654
       -0.0045483482  -0.0001279360   0.0043269340   0.0045448523   0.0020000713
       -0.0017115783  -0.0034220735  -0.0034379907   0.0014752812   0.0028263953
       -0.0010215320  -0.0026533996  -0.0032568610   0.0001525120   0.0040041593
        0.0048464119  -0.0011417969  -0.0029143979  -0.0032803285   0.0030069846
        0.0010945183   0.0028411557  -0.0018607572  -0.0010787202  -0.0019831000
       -0.0017012480  -0.0032583216   0.0003409176  -0.0013593912   0.0024808636
       -0.0020615787   0.0004574813  -0.0022871106  -0.0018191139  -0.0007352205
        0.0029686952   0.0002800037   0.0008944256  -0.0013703899  -0.0000901308
       -0.0004251560  -0.0009054994  -0.0008816533   0.0005473898  -0.0006701766
        0.0008573849  -0.0007379994   0.0003567254  -0.0009108953   0.0007264700
        0.0000623671  -0.0000748705   0.0000881242   0.0006651086  -0.0002021163
        0.0001438843   0.0005253220   0.0012397053  -0.0011386781   0.0000329880
       -0.0013830371   0.0011253446   0.0008731600   0.0000277122  -0.0001599770
       -0.0001729789   0.0002290902  -0.0002088990   0.0010768353   0.0009296086
       -0.0010009882  -0.0010589100  -0.0011578434   0.0008346582  -0.0005305012
        0.0009677429  -0.0005320823  -0.0019180296   0.0018397487  -0.0010632899
        0.0024332528   0.0018154244   0.0010944035  -0.0031166454  -0.0000801278
        0.0012062561   0.0024153120   0.0020057290  -0.0002780577  -0.0019393246
        0.0015893670   0.0007249191   0.0028994275   0.0002556319  -0.0007761787
       -0.0013223705   0.0001171805   0.0004170547  -0.0005408582  -0.0009424683
        0.0005147068  -0.0010751336   0.0011292896  -0.0008219324   0.0010627074
       -0.0009244073   0.0010042112  -0.0001115664  -0.0002306177   0.0002111611
        0.0008708219  -0.0000171086   0.0001611517   0.0000403921   0.0013878524
       -0.0011335912   0.0005473342  -0.0012425900   0.0011431269   0.0006605985
        0.0002100608  -0.0001423850   0.0000754384   0.0000700679  -0.0000830765
        0.0003449770   0.0009055770  -0.0007234435  -0.0006443321  -0.0008579752
        0.0007294754  -0.0009280970   0.0008490449  -0.0005415839  -0.0021807057
       -0.0019442664   0.0009989830   0.0023705113  -0.0018175889  -0.0010488943
        0.0044217187  -0.0035730478  -0.0049648035  -0.0059767179   0.0080435023
       -0.0046852667  -0.1401158834   0.1410334144   0.0361038388  -0.1484845352
        0.0592272352  -0.1190661284   0.0020413660   0.0097994636   0.0127196438
       -0.0005165522  -0.0003168856   0.0015680416   0.0000191378   0.0000009631
        0.0001754473   0.0001148536   0.0000597425   0.0000542930   0.0000651340
       -0.0000131058  -0.0000393159  -0.0002356252   0.0001134389   0.0000472131
        0.0000803405  -0.0002365101   0.0002496172  -0.0001287782  -0.0002123824
        0.0003301883   0.0003154655  -0.0001526710  -0.0000254957  -0.0000862300
        0.0003365374  -0.0002348281  -0.0000121959  -0.0000053274   0.0000337388
        0.0000700571  -0.0001144443  -0.0000575554   0.0000223839   0.0000515339
       -0.0000001179  -0.0000161279  -0.0000259580  -0.0000133412  -0.0000523923
       -0.0000071937  -0.0000045783   0.0000059584   0.0000420833  -0.0000129464
        0.0000410236  -0.0000137388   0.0000177926   0.0000193329  -0.0000079776
       -0.0000336704   0.0000134258   0.0000139930   0.0000326706   0.0000345642
        0.0000194899  -0.0000140705   0.0000079335  -0.0000229170   0.0000219405
       -0.0000603366   0.0000054719  -0.0000045398  -0.0000085080   0.0000242247
        0.0001530901  -0.0000289778  -0.0000012194   0.0002557555   0.0000608266
        0.0000676566  -0.0000535321   0.0000043654   0.0000533839   0.0000065522
       -0.0000583136  -0.0000075583  -0.0000026399   0.0000074091   0.0000269493
       -0.0000292392   0.0000355755  -0.0000180481   0.0000145345   0.0000160812
       -0.0000146339  -0.0000331238   0.0000201924   0.0000072958   0.0000336460
        0.0000441124   0.0000149243  -0.0000177845   0.0000086177  -0.0000380336
        0.0000070051  -0.0000556825   0.0000046873   0.0000009285  -0.0000489176
        0.0000005140  -0.0001654306  -0.0000430394   0.0001534813  -0.0001720062
        0.0000689187   0.0001633813  -0.0000320730  -0.0004124098  -0.0003344070
        0.0000698574   0.0023985557   0.0000470883  -0.0006591283
       -0.2274331285   0.4492440902   0.0878450750   0.0207251222  -0.1058734101
       -0.0542962804  -0.0272329059   0.0240264331  -0.0317561316   0.0079054917
       -0.0169805526   0.0019607778   0.0467586716  -0.0360885082   0.0361978057
       -0.0087183252   0.0177561421   0.0038503578   0.0037086765  -0.0049517274
       -0.0063351852  -0.0038646800   0.0043478505  -0.0017672403   0.0042397064
       -0.0053373095  -0.0010715847  -0.0028172817   0.0052438931   0.0008337151
       -0.0023771950  -0.0036507341  -0.0005156387   0.0016277033   0.0032243598
       -0.0017421412  -0.0020555321  -0.0029331507  -0.0030597349   0.0052741376
        0.0059585952   0.0004096314  -0.0053230713  -0.0059737382  -0.0025019902
        0.0022477441   0.0041728600   0.0042653591  -0.0020522800  -0.0034768838
        0.0012658319   0.0031341406   0.0039086878  -0.0001025876  -0.0045567154
       -0.0056663914   0.0010389660   0.0034792415   0.0039568594  -0.0035495872
       -0.0018833402  -0.0036510453   0.0023034419   0.0016763140   0.0023268316
        0.0023637216   0.0045518433  -0.0004845505   0.0014822828  -0.0030562576
        0.0024836492  -0.0004659136   0.0028016074   0.0021217718   0.0009266564
       -0.0033771328  -0.0002849133  -0.0009932639   0.0015077576   0.0000510320
        0.0003857432   0.0009740408   0.0009603906  -0.0006099829   0.0006914020
       -0.0009165841   0.0007798718  -0.0002952398   0.0009675428  -0.0007659600
       -0.0001157115  -0.0000241174  -0.0000065514  -0.0007577724   0.0003363010
       -0.0002463549  -0.0005395855  -0.0014472319   0.0013290439  -0.0000335032
        0.0016077279  -0.0013095600  -0.0010092012  -0.0001325976   0.0002497460
        0.0000885570  -0.0001487324   0.0001240090  -0.0011059156  -0.0009996446
        0.0010675611   0.0011357865   0.0012447916  -0.0009120870   0.0006122727
       -0.0010295568   0.0006133201   0.0023508046  -0.0021422297   0.0011921925
       -0.0031157268  -0.0021965562  -0.0013279448   0.0044757690  -0.0000182810
       -0.0013922130  -0.0031463736  -0.0024584115   0.0003797267   0.0023683227
       -0.0018680024  -0.0009168375  -0.0033504799  -0.0002832891   0.0008477447
        0.0014705944  -0.0001392737  -0.0003776925   0.0006044912   0.0010307691
       -0.0005951122   0.0011754759  -0.0012112742   0.0008843497  -0.0010952765
        0.0009916875  -0.0010758526   0.0000885649   0.0001577406  -0.0001350799
       -0.0010083229   0.0001087176  -0.0002437240  -0.0000330017  -0.0016017213
        0.0013105821  -0.0005798105   0.0014354702  -0.0013195829  -0.0007449386
       -0.0003323100   0.0002330151  -0.0001208222   0.0000218632   0.0000044713
       -0.0002882383  -0.0009659030   0.0007588758   0.0006589108   0.0009154109
       -0.0007806115   0.0010101227  -0.0009093139   0.0005976123   0.0027320478
        0.0023236652  -0.0011430072  -0.0029975821   0.0022443790   0.0012991087
       -0.0037152457   0.0032262904   0.0036732065   0.0055093042  -0.0061786440
        0.0037532581   0.1132690089  -0.2300535417  -0.0702436725   0.0590632339
       -0.0674614841   0.0574813558   0.0003374831  -0.0137297858  -0.0215367693
        0.0004605674  -0.0003859435  -0.0014410338  -0.0000390582  -0.0002758513
       -0.0002203471  -0.0000579927   0.0000376169  -0.0002453095  -0.0000903145
        0.0000356766  -0.0000649780   0.0002109515  -0.0001582926  -0.0001087592
       -0.0000868140   0.0002902179  -0.0003154306   0.0001547346   0.0002680536
       -0.0003319957  -0.0003955457   0.0002022195   0.0000012543   0.0001129348
       -0.0004232725   0.0002543150  -0.0000622101   0.0000061976   0.0000177634
       -0.0000492012   0.0001283692   0.0001054921   0.0000064213  -0.0000901465
        0.0000020356   0.0000311751   0.0000070165  -0.0000172806   0.0000047486
        0.0000034771   0.0000215114  -0.0000035227  -0.0000360260   0.0000077954
       -0.0000113110   0.0000129673  -0.0000106256   0.0000162485   0.0000208167
        0.0000354180   0.0000207349  -0.0000261913  -0.0000302687  -0.0000030614
       -0.0000107162   0.0000107860  -0.0000052396   0.0000208858  -0.0000092454
        0.0000200716   0.0000186916   0.0000041044  -0.0000014778  -0.0000216105
       -0.0001855798  -0.0000043589  -0.0001112698  -0.0003072375  -0.0000934002
       -0.0001888319   0.0000518841  -0.0000132299  -0.0000589568   0.0000061925
        0.0000193315  -0.0000077284   0.0000084598  -0.0000013755  -0.0000272598
        0.0000246934  -0.0000056711   0.0000097885  -0.0000078583   0.0000168005
        0.0000264340   0.0000338104   0.0000174875  -0.0000193382  -0.0000329738
       -0.0000120383  -0.0000134803   0.0000140247  -0.0000056637   0.0000305302
        0.0000031495   0.0000114205   0.0000048981  -0.0000104786   0.0000533772
       -0.0000351490   0.0001978470   0.0000781502  -0.0001214912   0.0001710978
       -0.0001900579  -0.0001569881   0.0001303739   0.0004641590   0.0003907189
       -0.0001583582   0.0099784721  -0.0141404336  -0.0062167893
        0.1739295340   0.0878450750   0.5397864375  -0.0000997757  -0.1145864204
       -0.2219875193  -0.0628609511   0.0143590949  -0.0772575864   0.0133643096
       -0.0125034385   0.0056948576   0.0071010116  -0.0027134894   0.0144000810
       -0.0149321563   0.0149905624   0.0007096910   0.0046971553  -0.0046523284
       -0.0069201770  -0.0043556684   0.0049384296  -0.0026745726   0.0046923376
       -0.0055013580  -0.0007575055  -0.0015196376   0.0043248797   0.0006625954
       -0.0019813462  -0.0031292353  -0.0004295951   0.0010791453   0.0026597636
       -0.0012302999  -0.0015172637  -0.0022771233  -0.0024179563   0.0040825958
        0.0045575387   0.0003700449  -0.0042101702  -0.0047028213  -0.0021821727
        0.0017979488   0.0033387631   0.0035606253  -0.0016585169  -0.0027595832
        0.0010882875   0.0023764941   0.0032169300   0.0002927594  -0.0031433365
       -0.0043050634   0.0002379055   0.0024576412   0.0028598632  -0.0026833508
       -0.0014109216  -0.0028767810   0.0018754430   0.0011166041   0.0019954679
        0.0016827948   0.0033037465  -0.0004209510   0.0012445781  -0.0024290065
        0.0019934521  -0.0003924453   0.0022617525   0.0017420877   0.0006613776
       -0.0028660418  -0.0002206360  -0.0007942226   0.0013555566   0.0000562363
        0.0002956863   0.0007389356   0.0007477324  -0.0004330498   0.0005591575
       -0.0006945987   0.0005921970  -0.0002342564   0.0007620358  -0.0005975738
       -0.0000138071  -0.0000094165  -0.0000053402  -0.0005928396   0.0001848586
       -0.0001354798  -0.0004293093  -0.0010549075   0.0009743807  -0.0000690047
        0.0011803484  -0.0009644099  -0.0007816699  -0.0000079744   0.0001382158
        0.0001104393  -0.0001387540   0.0001146274  -0.0009072276  -0.0007842183
        0.0008470861   0.0009278433   0.0009766438  -0.0006893370   0.0004884158
       -0.0008202286   0.0004181537   0.0018647176  -0.0017356281   0.0009498947
       -0.0024424463  -0.0017707422  -0.0010493688   0.0031947838   0.0000240074
       -0.0011132729  -0.0024469947  -0.0019817834   0.0002470347   0.0018824089
       -0.0015070757  -0.0006139343  -0.0028088443  -0.0001915622   0.0006561476
        0.0012710832  -0.0001215160  -0.0002904919   0.0004927431   0.0008117577
       -0.0004046466   0.0009568568  -0.0009466742   0.0006678870  -0.0008948970
        0.0007746172  -0.0008509682   0.0001446653   0.0001419624  -0.0001223925
       -0.0007799600  -0.0000094969  -0.0001346058  -0.0000742014  -0.0011845462
        0.0009682830  -0.0004565676   0.0010480429  -0.0009714577  -0.0005854717
       -0.0001885076   0.0001287902  -0.0000232682   0.0000077400   0.0000020314
       -0.0002201119  -0.0007596852   0.0005904417   0.0005321445   0.0006876231
       -0.0005876390   0.0007603404  -0.0007101593   0.0004270488   0.0021702570
        0.0018819244  -0.0008886342  -0.0023512768   0.0017802919   0.0010610214
       -0.0042309396   0.0036278031   0.0041860558   0.0049080656  -0.0060006533
        0.0048800775  -0.0159518034  -0.0070094773  -0.0864210881  -0.1185728963
        0.0552018366  -0.1596596167  -0.0009889354  -0.0072749427  -0.0069900199
        0.0012037244   0.0001781353  -0.0005516422  -0.0001669019  -0.0001936352
       -0.0000662366  -0.0001111697  -0.0000538722  -0.0001641599  -0.0000853269
        0.0000311115  -0.0000656856   0.0002315479  -0.0001398018  -0.0001188027
       -0.0000691770   0.0002557395  -0.0002794568   0.0001128636   0.0001960751
       -0.0002316472  -0.0003562673   0.0001820734  -0.0000290993   0.0001138119
       -0.0003675987   0.0002285350  -0.0000008231   0.0000008279   0.0000302051
       -0.0000690708   0.0001294853   0.0000581223   0.0000118612  -0.0000742334
        0.0000142177   0.0000133378  -0.0000020085  -0.0000038700  -0.0000312010
       -0.0000030326   0.0000169724   0.0000005681  -0.0000308011   0.0000076091
        0.0000242695  -0.0000003311  -0.0000004284   0.0000435709   0.0000210347
        0.0000229434   0.0000450772  -0.0000261464  -0.0000200308   0.0000277724
       -0.0000021430  -0.0000027197   0.0000007771   0.0000115478  -0.0000099343
       -0.0000120864   0.0000155310  -0.0000037940  -0.0000087485  -0.0000096761
       -0.0001459403  -0.0000021554  -0.0000614117  -0.0002480489  -0.0000881660
       -0.0001223433   0.0000429283  -0.0000147607  -0.0000408803   0.0000003964
       -0.0000094818  -0.0000077304   0.0000101294   0.0000056651  -0.0000145490
        0.0000196761   0.0000260096   0.0000013510   0.0000041233   0.0000424756
        0.0000266510   0.0000229798   0.0000440598  -0.0000198858  -0.0000208672
        0.0000238698  -0.0000001533   0.0000021524  -0.0000032456   0.0000277357
       -0.0000004511  -0.0000305188   0.0000081758  -0.0000093725   0.0000384833
       -0.0000386401   0.0001614513   0.0000605164  -0.0000536878   0.0001286609
       -0.0002184342  -0.0000805579   0.0000816288   0.0004830493   0.0002489763
        0.0000107847   0.0129470551  -0.0231569239  -0.0066531377
       -0.0624372673   0.0207251222  -0.0000997757   0.3638051507  -0.2205965238
        0.1246217804  -0.1524831664   0.0327765352  -0.1396178161  -0.0514921013
        0.0598484425   0.0001254318   0.0057115989  -0.0229167704  -0.0045096160
       -0.0070732572   0.0138768687   0.0054426202   0.0039765630  -0.0034757556
       -0.0059183118  -0.0032661571   0.0034792323  -0.0013482251   0.0025964088
       -0.0042628512  -0.0010088154  -0.0010417699   0.0043040665   0.0005383724
       -0.0035300642  -0.0042882977  -0.0005597407   0.0020221681   0.0042619604
       -0.0022109431  -0.0025255265  -0.0038495604  -0.0038941791   0.0064767894
        0.0073544496   0.0007941309  -0.0066365206  -0.0074636721  -0.0031765560
        0.0029829354   0.0050182703   0.0053708411  -0.0027429942  -0.0043947687
        0.0016892119   0.0035692908   0.0047022623   0.0001337628  -0.0048036316
       -0.0064585340   0.0005911245   0.0039102904   0.0045353102  -0.0041582159
       -0.0025092967  -0.0046841290   0.0029230921   0.0020715816   0.0030749175
        0.0026974045   0.0046287291  -0.0004902548   0.0014056167  -0.0035473202
        0.0027851671  -0.0004496629   0.0031734181   0.0023958262   0.0008531186
       -0.0042107677  -0.0000845221  -0.0010340791   0.0019669677   0.0001050403
        0.0003143886   0.0009626078   0.0008626345  -0.0004232184   0.0006995859
       -0.0008387613   0.0007061561  -0.0002439406   0.0009427296  -0.0007265985
        0.0000989734  -0.0000838974   0.0000634072  -0.0007561526   0.0001779342
       -0.0001368799  -0.0005654614  -0.0012979836   0.0012014512  -0.0001722369
        0.0014579256  -0.0011981646  -0.0010090920   0.0000689467   0.0001382541
        0.0001628255  -0.0001241945   0.0000894417  -0.0011667732  -0.0009711099
        0.0010597046   0.0012385102   0.0012263476  -0.0008285023   0.0007134453
       -0.0010015242   0.0004035304   0.0027915986  -0.0025143373   0.0013216130
       -0.0035501305  -0.0024873949  -0.0014403732   0.0045209361   0.0000335026
       -0.0012046352  -0.0035933539  -0.0027813631   0.0003557024   0.0028399465
       -0.0021818788  -0.0007326489  -0.0041500407  -0.0000256704   0.0008915639
        0.0017982301  -0.0001963790  -0.0002912961   0.0007139175   0.0009898270
       -0.0003931040   0.0012670363  -0.0011904527   0.0008052179  -0.0011499201
        0.0009487623  -0.0010588702   0.0003145581   0.0001237371  -0.0000921877
       -0.0010034937  -0.0000812425  -0.0001403015  -0.0001656596  -0.0014728675
        0.0012042467  -0.0005944514   0.0012884274  -0.0012005477  -0.0007388584
       -0.0001914444   0.0001352933   0.0000874748   0.0000908522  -0.0000728333
       -0.0002354659  -0.0009278960   0.0007062183   0.0006472561   0.0008344073
       -0.0007031487   0.0009951298  -0.0008154147   0.0004073250   0.0030372105
        0.0026207427  -0.0012516322  -0.0034811904   0.0024984673   0.0014698545
       -0.0031639114   0.0025972858   0.0037225644   0.0044319137  -0.0051425108
        0.0025910174   0.0044006494   0.0013876818   0.0011105509  -0.0029949019
       -0.0068968833  -0.0155887868  -0.1070555204   0.1132875826   0.0317218590
        0.0029163543   0.0070883282  -0.0024035189  -0.0000969116  -0.0000719058
        0.0002870306  -0.0002040935  -0.0000710624  -0.0002023496  -0.0001496436
        0.0000529936  -0.0002073961   0.0003146557  -0.0002202615  -0.0002854106
       -0.0001203133   0.0004269553  -0.0004492396   0.0001718521   0.0003260572
       -0.0002628723  -0.0005792230   0.0003828837  -0.0000821588   0.0002104419
       -0.0006681092   0.0003411032  -0.0000563591   0.0000212145   0.0001752105
       -0.0001088832   0.0002047937   0.0001081555   0.0000551063  -0.0000912321
        0.0000272717  -0.0000155713  -0.0000123652  -0.0000139532  -0.0001353914
       -0.0000249157   0.0000309178   0.0000098859  -0.0000281458  -0.0000052088
        0.0001019782  -0.0000136505   0.0000088028   0.0001209256   0.0000392504
        0.0000200529   0.0001153834  -0.0000459116  -0.0000169393   0.0001000186
        0.0000099286  -0.0000157882   0.0000157193  -0.0000033435   0.0000015656
       -0.0000971187   0.0000342464  -0.0000173555  -0.0000132352   0.0000073640
       -0.0002209115   0.0000113853  -0.0000832003  -0.0003219997  -0.0000971976
       -0.0001575345   0.0000178662  -0.0000378047  -0.0000435983  -0.0000022496
       -0.0000902332  -0.0000321355   0.0000171509   0.0000234478  -0.0000006073
        0.0000056336   0.0000975968  -0.0000110752   0.0000169672   0.0001104762
        0.0000443607   0.0000214310   0.0001202192  -0.0000410447  -0.0000167731
        0.0000999517   0.0000086608  -0.0000048368   0.0000055629   0.0000145438
        0.0000168667  -0.0001278457   0.0000219150  -0.0000251619   0.0000149708
       -0.0000717416   0.0002456013   0.0001134177   0.0000571510   0.0001799606
       -0.0001334959  -0.0001723202   0.0001551348   0.0004886227   0.0002715845
        0.0006602050   0.0023220467   0.0063595097   0.0000809931
       -0.0181977566  -0.1058734101  -0.1145864204  -0.2205965238   0.4554058843
        0.1175036119   0.0548684401  -0.0706089713   0.0701081713   0.0427350821
       -0.0415069035   0.0014526401  -0.0256162532   0.0283507826  -0.0010204045
        0.0131917895  -0.0221107198  -0.0068654047  -0.0057813860   0.0064327600
        0.0094943366   0.0058032252  -0.0062587415   0.0027904107  -0.0057434040
        0.0074386417   0.0016524127   0.0023363809  -0.0066358298  -0.0009697921
        0.0040850907   0.0055672066   0.0007301725  -0.0023776023  -0.0052007331
        0.0027751912   0.0031324413   0.0046440543   0.0049840641  -0.0083590746
       -0.0094216548  -0.0007044282   0.0085030431   0.0096002937   0.0043387908
       -0.0035214454  -0.0067626419  -0.0071836916   0.0032815814   0.0054882942
       -0.0022238786  -0.0048359140  -0.0065205507  -0.0006205629   0.0063205815
        0.0086205390  -0.0004446555  -0.0049315979  -0.0056906019   0.0055011410
        0.0028661349   0.0058330365  -0.0038064335  -0.0024698696  -0.0037616951
       -0.0037093236  -0.0065328135   0.0006333256  -0.0024639725   0.0050485609
       -0.0040552864   0.0007874247  -0.0045515165  -0.0035908733  -0.0013053905
        0.0061551555   0.0004310742   0.0017291012  -0.0028438964  -0.0002099695
       -0.0007709662  -0.0015795153  -0.0014326080   0.0007844053  -0.0012012246
        0.0013750929  -0.0011923548   0.0005595651  -0.0015821544   0.0012405873
       -0.0001019865  -0.0001739691   0.0001611799   0.0011277569  -0.0000669416
        0.0000274095   0.0010305450   0.0018912901  -0.0017699638   0.0002857749
       -0.0021387329   0.0017643170   0.0014505183  -0.0003299232  -0.0000424171
       -0.0004381702   0.0005018075  -0.0004473886   0.0019817801   0.0016163756
       -0.0017673823  -0.0019326075  -0.0020056106   0.0013596898  -0.0010284328
        0.0016189575  -0.0006968989  -0.0038954142   0.0036594781  -0.0020957288
        0.0049853956   0.0036833258   0.0021267631  -0.0064196025  -0.0001803061
        0.0022355363   0.0050536098   0.0040847326  -0.0005857935  -0.0039886156
        0.0031982786   0.0012941337   0.0060877806   0.0003199493  -0.0015047916
       -0.0027613848   0.0002715454   0.0007417294  -0.0010312135  -0.0016066929
        0.0006872546  -0.0019708134   0.0019629488  -0.0013453881   0.0019649102
       -0.0015993702   0.0017702617  -0.0004438182  -0.0005006454   0.0004446828
        0.0014481100   0.0003367989   0.0000517180   0.0002847994   0.0021592913
       -0.0017835792   0.0010642340  -0.0018966504   0.0017799027   0.0011190745
        0.0000881214  -0.0000315413  -0.0000778548   0.0001601784  -0.0001507245
        0.0005413491   0.0015744276  -0.0012323666  -0.0011469119  -0.0013806730
        0.0011842729  -0.0016097195   0.0013842400  -0.0007780052  -0.0043749248
       -0.0039009362   0.0019857134   0.0049413850  -0.0036233234  -0.0021342243
        0.0056981709  -0.0046130262  -0.0060388739  -0.0075988408   0.0086981785
       -0.0050691359   0.0322227826  -0.0515016963  -0.0136737629   0.0017897681
        0.0033057824   0.0057981990   0.1143282212  -0.2016533268  -0.0550612108
        0.0057731397  -0.0007249038  -0.0015391258  -0.0000017790   0.0000068122
        0.0000702892   0.0001981025  -0.0000177458   0.0002616979   0.0001288234
       -0.0000665773   0.0000585065  -0.0003754313   0.0002836475   0.0001629249
        0.0001251203  -0.0004830615   0.0005302245  -0.0002203591  -0.0003743969
        0.0005246008   0.0006755707  -0.0002899571   0.0000333791  -0.0002048838
        0.0006652828  -0.0004624073   0.0000705049   0.0000151898  -0.0000057514
        0.0000867767  -0.0002471912  -0.0001261229   0.0000019245   0.0001053345
       -0.0000230775  -0.0000210677  -0.0000406405  -0.0000125618  -0.0000067597
        0.0000007477  -0.0000103591   0.0000012181   0.0000777491  -0.0000225174
       -0.0000064523  -0.0000062186   0.0000156214  -0.0000432435  -0.0000305184
       -0.0000428513  -0.0000450419   0.0000442136   0.0000490426  -0.0000079064
        0.0000248509  -0.0000000860   0.0000015676  -0.0000195590   0.0000412826
       -0.0000483371   0.0000020295   0.0000052863  -0.0000404123   0.0000225864
        0.0003351301  -0.0000323142   0.0000667316   0.0005188277   0.0001406803
        0.0001946846  -0.0000530023   0.0000170849   0.0000951340   0.0000261743
       -0.0000519796  -0.0000081141  -0.0000124316  -0.0000051008   0.0000244023
       -0.0000501145  -0.0000041216  -0.0000237756   0.0000021505  -0.0000400631
       -0.0000446176  -0.0000498803  -0.0000408314   0.0000297480   0.0000433848
       -0.0000023284   0.0000081300  -0.0000155117   0.0000101537  -0.0000697285
        0.0000131088  -0.0000107404  -0.0000036445   0.0000014292  -0.0000823972
        0.0000397901  -0.0003638609  -0.0001309388   0.0001578114  -0.0003383028
        0.0002334961   0.0002169127  -0.0001894785  -0.0006611094  -0.0004061548
       -0.0004760219   0.0062865019  -0.0011665073  -0.0041079649
       -0.0523687374  -0.0542962804  -0.2219875193   0.1246217804   0.1175036119
        0.5150127730  -0.1049032624   0.0313397287  -0.1965653962  -0.0331553696
        0.0403685270   0.0039609188  -0.0158531804   0.0127698865  -0.0184521058
        0.0087287238  -0.0088320136  -0.0008326086  -0.0022437771   0.0037049583
        0.0043569481   0.0031944636  -0.0037591426   0.0020764601  -0.0042956876
        0.0040439957   0.0006215977   0.0016048890  -0.0023018342  -0.0004600716
       -0.0000481401   0.0008569028   0.0001058219   0.0000086880  -0.0003753403
        0.0002502345   0.0002351114   0.0001670330   0.0006151417  -0.0011960340
       -0.0011701127   0.0004713427   0.0012221717   0.0010721243   0.0005825638
       -0.0001546483  -0.0013079875  -0.0010709286   0.0000941259   0.0007145315
       -0.0002731006  -0.0013668963  -0.0014201476   0.0002446743   0.0023408067
        0.0022307392  -0.0012228529  -0.0013083158  -0.0012646693   0.0014227810
       -0.0002328157   0.0005339643  -0.0005970783  -0.0000702007  -0.0003224321
       -0.0007907108  -0.0014756318   0.0000851149  -0.0011537998   0.0011307475
       -0.0010586331   0.0003771632  -0.0011078392  -0.0010710091  -0.0004602260
        0.0014934932   0.0004726951   0.0007017781  -0.0006906981  -0.0000945732
       -0.0005554368  -0.0005868681  -0.0006791642   0.0005070412  -0.0005668326
        0.0005817310  -0.0005413609   0.0004132847  -0.0007024480   0.0005752954
        0.0000758278  -0.0003668287   0.0003231479   0.0003708456   0.0001109311
       -0.0001201648   0.0004858723   0.0006090310  -0.0005853143   0.0000686670
       -0.0006974079   0.0005754153   0.0004187989  -0.0002455662   0.0000976612
       -0.0002978209   0.0004672909  -0.0004533648   0.0008796300   0.0007047988
       -0.0007649831  -0.0006992052  -0.0008148832   0.0005766274  -0.0002020890
        0.0006948524  -0.0004172734  -0.0008079504   0.0009682351  -0.0007223567
        0.0010406279   0.0009994557   0.0005815697  -0.0014504049  -0.0001799901
        0.0011198577   0.0010455382   0.0010639711  -0.0002230423  -0.0008431039
        0.0008650504   0.0006470296   0.0014914419   0.0004371180  -0.0006230130
       -0.0008497780   0.0000317987   0.0005554549  -0.0002122208  -0.0006830838
        0.0004128695  -0.0007053870   0.0008066633  -0.0005915296   0.0008794663
       -0.0007193127   0.0007694204  -0.0000404404  -0.0004705762   0.0004478973
        0.0004206888   0.0002412581  -0.0000936994   0.0000849381   0.0006949230
       -0.0005889843   0.0004924338  -0.0006276062   0.0005955893   0.0003830699
       -0.0001121650   0.0001176809   0.0000895911   0.0003595556  -0.0003254149
        0.0004028701   0.0007137860  -0.0005979457  -0.0005737288  -0.0005969015
        0.0005310262  -0.0005816848   0.0006816617  -0.0005159718  -0.0010825826
       -0.0011195007   0.0006824458   0.0010742463  -0.0009218314  -0.0005303473
        0.0031875855  -0.0026366858  -0.0028359625  -0.0037212997   0.0042839773
       -0.0033305920   0.0505778092  -0.0755501364  -0.0143006577  -0.0030763170
       -0.0076215476  -0.0191034659   0.0325455809  -0.0547351104  -0.0553529757
       -0.0024958323  -0.0022169673   0.0034642332  -0.0001687509  -0.0000164046
        0.0005181798  -0.0000351660  -0.0000981600   0.0000080544  -0.0000713092
        0.0000021875  -0.0002926154  -0.0000339257   0.0000426832  -0.0002511682
       -0.0000115413   0.0000079123   0.0000306852  -0.0000750250  -0.0000323390
        0.0003811943   0.0000137671   0.0001968383  -0.0001173803   0.0000717849
       -0.0001110535  -0.0001040108  -0.0000015255   0.0000490922   0.0002949964
       -0.0000492095  -0.0000239328   0.0000091557   0.0001053963  -0.0000049437
        0.0000224925  -0.0000574323  -0.0000721940  -0.0000407171  -0.0002401999
       -0.0000376089   0.0000338669   0.0000192999   0.0000695706  -0.0000444800
        0.0001694571  -0.0000313690   0.0000372103   0.0001465802   0.0000254073
       -0.0000309770   0.0001332957  -0.0000152321   0.0000439143   0.0001605989
        0.0000519544  -0.0000287102   0.0000293684  -0.0000414049   0.0000636583
       -0.0002344818   0.0000568480  -0.0000201899  -0.0000731494   0.0000431689
        0.0000936688  -0.0000344643  -0.0000549066   0.0001957947   0.0000321888
        0.0000075991  -0.0000576383  -0.0000393298   0.0000591202   0.0000271801
       -0.0002255608  -0.0000607110   0.0000094740   0.0000339175   0.0000427536
       -0.0000653069   0.0001623999  -0.0000520859   0.0000337451   0.0001331584
        0.0000124037  -0.0000377106   0.0001497514  -0.0000292385   0.0000371028
        0.0001725344   0.0000263333  -0.0000304913   0.0000238634  -0.0000796230
        0.0000498955  -0.0002348054   0.0000303322  -0.0000364099  -0.0000927112
       -0.0000629368  -0.0000919946   0.0000185378   0.0003381321  -0.0001790812