67
 energy: -110.923223747901 gnorm: 0.000062228141 xtb: 6.7.1 (edcfbbe)
C            2.62724222765632        1.16826306123567       -0.29869588561890
C            2.05004364531385        0.84497474916826        1.08481931853179
O            3.02678260170208        0.28795293762134        1.98339497955659
C            4.21705695398574        0.94810881279599        2.17010029631354
O            5.19392456620953        0.54026083610523        1.21016190329447
C            5.81214526780013        1.48470411574146        0.48487897986847
O            5.61411843093758        2.66920529636092        0.62054178978768
C            6.76198693647022        0.90797725176333       -0.49365450408029
C            6.87373922113911       -0.46693673971994       -0.68540153676671
C            7.77154966982976       -0.95907550599344       -1.61392460079464
C            8.55938880193713       -0.08900555602091       -2.35168719221915
C            8.44908104572342        1.28006696721355       -2.16484692690897
C            7.55227633132183        1.77940868876171       -1.24011114276215
C            1.41582674610697        2.10529548923321        1.71661465521873
C            0.01213352682468        2.38810158866056        1.27119205193057
C           -0.82987567004829        1.42572122406547        0.88841413925968
C           -0.33391048472526        0.07855710690278        0.82790796313038
C            1.00293736436623       -0.21870485795432        0.92190171606700
C            1.14452167774841       -1.61616670609445        0.70889035937727
C            2.23563211326329       -2.48487814827062        0.69919396200046
C            2.00510530232245       -3.82492485088598        0.48851063834479
C            0.71005048216153       -4.31746555075744        0.30859687335555
C           -0.38716135843530       -3.48097357330722        0.31539755499478
C           -0.16252163072904       -2.12237092292401        0.49293313812413
N           -1.05374920649629       -1.07116240358874        0.56283874453442
C           -2.43999394370862       -1.15382379117128        0.43319142244402
C           -3.26735480396971       -0.51874839549939        1.36170253885615
C           -4.64002335614904       -0.59876478137169        1.23018288107217
C           -5.18384934852316       -1.31973455523629        0.18344538411355
S           -6.96942699902678       -1.37769230470476        0.00130175989790
O           -7.29464147780190       -2.37309319245766       -0.98535787289519
O           -7.56696101337666       -1.47835505161697        1.30620740158554
C           -7.32869676991000        0.25082940301841       -0.66993014195051
C           -7.82850310426256        1.23543107380051        0.15891122204176
C           -8.06360374604587        2.49886283235032       -0.35843633959027
C           -7.79175965500488        2.75909276563548       -1.69240862719271
C           -7.29079088714307        1.76170052892641       -2.51530147239494
C           -7.05483570105101        0.49772719501464       -2.00119767078661
C           -4.37812078212957       -1.95510973000943       -0.74187223675788
C           -3.00393222181081       -1.87204444518705       -0.62204452666107
H            1.81224889624465        1.46591410029201       -0.95462564593211
H            3.11399588745019        0.28986201182006       -0.71677262840230
H            3.34153919941475        1.98717305837417       -0.25031613465793
H            4.13017708321158        2.04288046376739        2.13542788839841
H            4.59578861205256        0.63018939044512        3.14934288435426
H            6.25663477175338       -1.13572868834858       -0.10662397497411
H            7.85933120887589       -2.02483989435895       -1.76443590590081
H            9.26066261006640       -0.47943709925741       -3.07445693919914
H            9.06323675644725        1.95581994085198       -2.74102762196789
H            7.44766585564989        2.84135455558749       -1.07690811348011
H            2.04269844124382        2.97550354624965        1.51182588684825
H            1.40175488155027        1.95801202391569        2.80400758279097
H           -0.31269542437616        3.41564750369993        1.33408866304500
H           -1.84800190610811        1.63542338741378        0.59740045955813
H            3.22804848177931       -2.10080119586678        0.87279521351434
H            2.83383772920366       -4.51748345761006        0.47451272709292
H            0.56456300194209       -5.37805277210821        0.16695432011174
H           -1.38510302672821       -3.87623961296335        0.20010194392828
H           -2.82490044270833        0.01507364489517        2.18883627638457
H           -5.29940943085599       -0.13204682654199        1.94471948955445
H           -8.04028445672233        0.99030364236261        1.18791412308208
H           -8.46014112414326        3.27728887465073        0.27573846975164
H           -7.97651012254908        3.74377705215724       -2.09543555449730
H           -7.08746529720393        1.96902699997033       -3.55503909051675
H           -6.67957091249633       -0.30391819766491       -2.61767508969885
H           -4.84363511264841       -2.51281736784870       -1.53926294619542
H           -2.36029591277185       -2.34509294542617       -1.34744527937005
