$hessian                                                                        
        0.4749934249   0.0022051207  -0.0428876146  -0.1312884227  -0.0035507872
       -0.0618949470   0.0034339742   0.0016803755  -0.0027675209   0.0002464836
       -0.0005078828   0.0004827128   0.0002238754  -0.0000219834  -0.0000063501
       -0.0003342243  -0.0001837506   0.0000872869   0.0001346795   0.0001596006
       -0.0000111650   0.0000619559  -0.0000265740  -0.0000553813  -0.0000113941
       -0.0000142545  -0.0000196498  -0.0000182794   0.0000001130   0.0000005999
        0.0000120520   0.0000151229   0.0000087307   0.0000079246  -0.0000203804
       -0.0000140711  -0.0000123473  -0.0000008268   0.0000014291  -0.0044020244
       -0.0045377826  -0.0058040828  -0.0000684609  -0.0005311525  -0.0008056540
        0.0001557620  -0.0000336115   0.0000420508  -0.0012397268   0.0027427472
       -0.0000969831  -0.0294690955   0.0010666705  -0.0128690988   0.0010738837
       -0.0009334149  -0.0007883063  -0.0000892701   0.0009826789   0.0000692238
       -0.0001189674  -0.0000964010  -0.0001407162  -0.0002241601  -0.0000069296
        0.0000483434   0.0000160602   0.0001139161   0.0000998001  -0.0001872578
       -0.0005927887   0.0001053698  -0.0020443520  -0.0002131556   0.0014213220
        0.0000765789  -0.0000009043   0.0003776359  -0.0000184905  -0.0000269548
       -0.0000386720   0.0000190390   0.0000035286   0.0000036747  -0.0000511563
       -0.0000065626   0.0000076466   0.0001656512   0.0000110459   0.0000096727
       -0.0000512134  -0.0000216574  -0.0000266377  -0.0000671337  -0.0000081179
        0.0000303362  -0.0000224819   0.0000050453  -0.0000006666  -0.0000031643
        0.0000022820  -0.0000040852   0.0000012051  -0.0000032295  -0.0000001004
       -0.0000001430  -0.0000003758   0.0000025907   0.0000013055   0.0000005393
        0.0000032898  -0.0000014780   0.0000098195   0.0000049665  -0.0000246219
        0.0000161846   0.0000366549  -0.0001887060  -0.0000398382  -0.0000107268
       -0.0495139994  -0.0392301081  -0.0104433100  -0.2060718010   0.0710703359
        0.0901198961  -0.0550843418  -0.0306519180   0.0454947149   0.0000676657
       -0.0000375873   0.0000977865  -0.0000758264   0.0000139029  -0.0000008858
        0.0000174543   0.0000105677   0.0000078610   0.0000054885   0.0000046032
        0.0000056552  -0.0000078781  -0.0000001633   0.0000017489  -0.0000078064
        0.0000107114   0.0000039647  -0.0000131670  -0.0000009095   0.0000120325
        0.0006546556   0.0011197899  -0.0002012337  -0.0000206293   0.0000849081
        0.0001577111  -0.0001943924  -0.0000835447  -0.0000498708   0.0000899648
       -0.0000154414   0.0000016227  -0.0004745887   0.0000127359   0.0000827601
       -0.0000190892   0.0000410137   0.0000222623  -0.0000428236   0.0000130045
        0.0000357109   0.0000092060  -0.0000037835   0.0000198134   0.0000213211
       -0.0000047458   0.0000553297  -0.0000068081   0.0000027018  -0.0000060779
        0.0000032334  -0.0000011831  -0.0000017931   0.0000011330   0.0000021364
        0.0000023310  -0.0000012301   0.0000042981   0.0000010445  -0.0000016669
        0.0000039252  -0.0000011855  -0.0000008876   0.0000004700   0.0000016344
       -0.0000207651  -0.0000031860   0.0000077964   0.0000002953   0.0000019918
       -0.0000282270
        0.0022051207   0.5385239329  -0.0036062506  -0.0033865717  -0.0607637530
       -0.0066777873   0.0150805411  -0.0034565181   0.0206182021  -0.0010569219
       -0.0015164356   0.0040956029   0.0003489533  -0.0000069435  -0.0002481231
       -0.0004187201  -0.0000909573   0.0001041238   0.0001089635   0.0000996507
       -0.0000465460   0.0000838073  -0.0000004615  -0.0000260916  -0.0000380887
       -0.0000254167  -0.0000142103  -0.0000143763  -0.0000164869  -0.0000076182
        0.0000240338   0.0000140237   0.0000071773   0.0000067582   0.0000022171
        0.0000002056   0.0000260145   0.0000153742  -0.0000096534  -0.0183501722
       -0.0092438400  -0.0177106249   0.0004719201  -0.0027880843  -0.0026431826
        0.0000737588  -0.0003839272  -0.0000771285   0.0009274929  -0.0001653849
       -0.0000188632   0.0059061244   0.0020000286   0.0045207116   0.0000096636
       -0.0000391667   0.0000070572  -0.0008420434   0.0000302235   0.0001063674
        0.0001429912   0.0000723316   0.0000063155   0.0000300523  -0.0000044258
       -0.0000249685  -0.0000293743  -0.0000231882  -0.0000138570  -0.0001302382
        0.0002268711   0.0001077105   0.0005027931   0.0001377342  -0.0002447510
       -0.0000086362  -0.0000001574  -0.0001109640  -0.0000222342   0.0000301184
       -0.0000252796  -0.0000183886   0.0000009968   0.0000138642   0.0000156985
        0.0000124157   0.0000071668   0.0000438021  -0.0000313713  -0.0000005122
       -0.0000102889   0.0000107815   0.0000006691  -0.0000100209   0.0000076975
        0.0000069927  -0.0000050804  -0.0000007287  -0.0000006630   0.0000000045
        0.0000001376   0.0000005620   0.0000009023   0.0000022416   0.0000016179
        0.0000001131   0.0000005486  -0.0000018366   0.0000011449  -0.0000006992
       -0.0000004004  -0.0000006250   0.0000013352  -0.0000005787  -0.0000098421
       -0.0000044264  -0.0000292692   0.0000295975  -0.0000069595   0.0000074568
       -0.0385755365  -0.2680378796  -0.0642748990   0.0703887916  -0.0745626259
       -0.0384352826  -0.0316385603  -0.1165859490   0.1072071124   0.0006275126
       -0.0003423650   0.0008902366  -0.0001170369  -0.0002693217   0.0000476445
       -0.0000076084  -0.0000061650   0.0000045465   0.0000039132  -0.0000054548
       -0.0000031043   0.0000016434  -0.0000038159  -0.0000010553  -0.0000009048
       -0.0000107136  -0.0000019120  -0.0000031018   0.0000097902   0.0000190648
       -0.0023752509   0.0001091792  -0.0018817176  -0.0001709778  -0.0011674603
       -0.0009194075  -0.0011338454  -0.0005114981  -0.0004943221  -0.0000400114
        0.0000158893   0.0001341439   0.0013373566  -0.0012286184  -0.0003911335
        0.0000012455  -0.0000023206   0.0000073983   0.0000217659  -0.0000001825
        0.0000066288  -0.0000207330   0.0000009498  -0.0000035225   0.0000022080
       -0.0000252020   0.0000099050   0.0000068110  -0.0000010669   0.0000032475
       -0.0000003684  -0.0000009379  -0.0000013945  -0.0000007509  -0.0000003483
       -0.0000001685  -0.0000008618  -0.0000007483   0.0000010192  -0.0000003238
       -0.0000001551   0.0000010827   0.0000009773  -0.0000003214   0.0000021241
        0.0000073608   0.0000032672  -0.0000013936  -0.0000023426   0.0000047463
        0.0000025155
       -0.0428876146  -0.0036062506   0.4997091858  -0.0562633753  -0.0072972554
       -0.1070962823  -0.0217171412   0.0099668079  -0.0294022968   0.0016640063
        0.0024998594  -0.0044440142  -0.0009657224   0.0002343651   0.0000528436
        0.0010426013   0.0002771850  -0.0000691715  -0.0003501423  -0.0002969085
       -0.0000313702  -0.0001289150   0.0000772979   0.0000698176   0.0000469294
        0.0000269817   0.0000313508  -0.0000191093   0.0000184087   0.0000136954
       -0.0000032614   0.0000073519   0.0000068353  -0.0000254970  -0.0000111667
       -0.0000032584  -0.0000170737  -0.0000317987  -0.0000090698  -0.0126971525
       -0.0068563758  -0.0106338177   0.0009407757  -0.0015080142  -0.0010882868
       -0.0002008331  -0.0001731876   0.0000157466   0.0009479061  -0.0003973133
       -0.0002147732   0.0051781213   0.0007945238   0.0067129501   0.0002562833
       -0.0000559145   0.0002004328  -0.0000386579   0.0000096205   0.0002467942
       -0.0000710858   0.0000577259   0.0000822471  -0.0000147452   0.0000125191
        0.0000078400  -0.0000444867   0.0000118395   0.0000158194   0.0000731456
        0.0002156939  -0.0000138975   0.0010899513   0.0000269370  -0.0006972870
       -0.0002928913  -0.0000779405  -0.0001664821   0.0000628536   0.0000291749
        0.0000146569  -0.0000427395  -0.0000073821   0.0000172005   0.0000576785
        0.0000025912   0.0000025451  -0.0001492904   0.0000148784  -0.0000335383
        0.0000356776   0.0000100850   0.0000312631   0.0000365410  -0.0000055175
       -0.0000103373   0.0000224736  -0.0000021809   0.0000035717   0.0000033874
       -0.0000004400   0.0000049943  -0.0000032861   0.0000025763   0.0000020302
       -0.0000020298   0.0000022756   0.0000010137  -0.0000046528   0.0000003985
       -0.0000004614   0.0000004279  -0.0000081817  -0.0000041784  -0.0000262723
       -0.0000250289  -0.0000227719   0.0001404985   0.0000147080  -0.0000050607
       -0.0104074200  -0.0645759516  -0.0607213580   0.0900049573  -0.0385711408
       -0.0914127388   0.0466496426   0.1080029787  -0.1996520560  -0.0008344926
        0.0005035014  -0.0011740488   0.0001020121   0.0001886247  -0.0000629014
       -0.0000056259  -0.0000016708  -0.0000173323  -0.0000161124   0.0000077387
        0.0000022748  -0.0000119942   0.0000059529   0.0000011135  -0.0000045259
        0.0000171731   0.0000020670   0.0000113299  -0.0000265607  -0.0000265837
       -0.0009845405   0.0015293907   0.0005186444   0.0000126421  -0.0003467247
       -0.0003383943  -0.0006306141  -0.0003239558  -0.0001917984   0.0000235541
        0.0000274573   0.0000524015   0.0004167078  -0.0003874520  -0.0002362898
       -0.0000123660  -0.0000057595  -0.0000063151   0.0000104650  -0.0000114794
       -0.0000086865   0.0000102196   0.0000054094  -0.0000074026   0.0000184606
        0.0000203536  -0.0000268880   0.0000073308  -0.0000035959   0.0000011587
       -0.0000009342   0.0000019582   0.0000037212   0.0000001295  -0.0000016300
       -0.0000006620   0.0000014106  -0.0000023331   0.0000013635   0.0000007396
       -0.0000016644   0.0000024268  -0.0000002745   0.0000001545  -0.0000027411
        0.0000068813   0.0000014621   0.0000003911  -0.0000008652  -0.0000051849
        0.0000041556
       -0.1312884227  -0.0033865717  -0.0562633753   0.4992393286  -0.0176160065
        0.0121320412  -0.0841269456  -0.0347622082   0.0191607050   0.0135864543
        0.0154826544  -0.0112462893  -0.0032013480   0.0009984962   0.0000482549
        0.0027243273   0.0014497106  -0.0004999649  -0.0008357928  -0.0010775159
        0.0000381513  -0.0002547882   0.0001143870   0.0003103221   0.0001101848
        0.0000107826   0.0000637757  -0.0000263295   0.0000079186   0.0000069349
        0.0000179224   0.0000341571   0.0000335101  -0.0000326215  -0.0000072846
        0.0000132263  -0.0000830620  -0.0001251326  -0.0000123969  -0.0649272899
       -0.0002161781  -0.0010175174   0.0018635667  -0.0206675827  -0.0089178025
        0.0013250192   0.0013732118   0.0000910215  -0.0319925534   0.0015328234
        0.0079229770  -0.1633336623   0.0316835432   0.0455133043  -0.0047718951
        0.0075142302   0.0049979902   0.0005811983  -0.0005713451  -0.0009659382
       -0.0005101190   0.0001316996   0.0002876591   0.0001349380   0.0000090096
       -0.0000615672  -0.0005009551   0.0000947390   0.0003404944   0.0019841004
        0.0002827910   0.0004918042   0.0005562270  -0.0041226290  -0.0008564574
       -0.0023102319  -0.0006746030   0.0007575077   0.0005007344   0.0002057649
        0.0002321219  -0.0002217727   0.0000237501   0.0000593370   0.0004054811
        0.0000265649   0.0000496705  -0.0011012378   0.0000176920  -0.0001568967
        0.0002800262   0.0001092088   0.0001994656   0.0003053831  -0.0000104674
       -0.0001448515   0.0001645503  -0.0000124804   0.0000179195   0.0000261177
       -0.0000131556   0.0000482816  -0.0000087781   0.0000256894   0.0000130414
       -0.0000027694   0.0000269063  -0.0000045083  -0.0000220028   0.0000094552
       -0.0000172484   0.0000057872  -0.0000538286  -0.0000285573  -0.0002633812
       -0.0000854753  -0.0000314165   0.0002392040   0.0000625567  -0.0001904021
       -0.0054457026  -0.0030435935  -0.0055892109  -0.0263577292   0.0012780755
       -0.0164114063   0.0032439713   0.0004185688   0.0023285219  -0.0012677075
        0.0005892207  -0.0029500903   0.0011436329   0.0009256654  -0.0002815841
       -0.0000174630   0.0000064020  -0.0000509175  -0.0000143622   0.0000140290
       -0.0000135538  -0.0000042699  -0.0000018367  -0.0000189312  -0.0000068461
        0.0000238939  -0.0000220481   0.0000412054   0.0000201676  -0.0000463968
       -0.0005127393   0.0107725649   0.0037181363  -0.0010229211   0.0138738785
        0.0083157185  -0.0040120952  -0.0024795971  -0.0007211733   0.0001831581
        0.0005868648  -0.0003558460  -0.0002321925  -0.0005018250  -0.0001818388
       -0.0000495477  -0.0001723771  -0.0000769748  -0.0000150938  -0.0000781725
       -0.0000613195   0.0001513790  -0.0000573281  -0.0000019964  -0.0000075321
        0.0000839820  -0.0000057680   0.0000228474  -0.0000243826   0.0000177458
       -0.0000100410   0.0000112276   0.0000075445  -0.0000054492  -0.0000177765
       -0.0000049837   0.0000043849  -0.0000201731   0.0000115308   0.0000016186
       -0.0000076948   0.0000251477  -0.0000078256   0.0000124181  -0.0000089293
       -0.0000212873  -0.0000122514  -0.0000078774  -0.0000159846  -0.0000252289
       -0.0000278269
       -0.0035507872  -0.0607637530  -0.0072972554  -0.0176160065   0.4049472869
        0.0398048060  -0.0357342266  -0.0954838555   0.0437035788   0.0133713968
       -0.0090916206   0.0137091861  -0.0054514715   0.0009826645   0.0002447434
        0.0065248185   0.0013908548   0.0004095800  -0.0019669703  -0.0017711186
       -0.0004617426  -0.0008351603   0.0005280254   0.0002357739   0.0003204311
        0.0001926848   0.0001281892   0.0000223814   0.0001053185   0.0000835452
       -0.0000089935  -0.0000454939  -0.0000197549  -0.0002020612  -0.0000479898
        0.0000005573  -0.0000437625  -0.0001475643  -0.0001256675   0.0046327321
       -0.1313763040  -0.0381091657  -0.0102009673  -0.0112744148  -0.0062556614
        0.0020077863   0.0004821405   0.0007608718  -0.0084804274   0.0038641612
        0.0053225233   0.0382450249  -0.0702822767  -0.0256299192   0.0188567916
       -0.0046808220  -0.0049592238   0.0009248523   0.0002518256   0.0006863461
        0.0000437158  -0.0001011716  -0.0001566311  -0.0003193643  -0.0001656169
        0.0000844652   0.0007237399   0.0006630979   0.0000836927   0.0018345230
       -0.0025230281  -0.0046923875  -0.0047732730   0.0001317194  -0.0022697525
       -0.0004420801   0.0009734104  -0.0003246576  -0.0000960145  -0.0002725538
       -0.0000925342   0.0000731052  -0.0001030976  -0.0000096918  -0.0000449567
       -0.0000578970   0.0000122994  -0.0001127300   0.0003680754  -0.0001568377
        0.0000468528  -0.0001231544   0.0000241054   0.0000343024  -0.0000967561
        0.0000847224   0.0000138389  -0.0000350963   0.0000098950  -0.0000041783
        0.0000026556  -0.0000076001  -0.0000206479  -0.0000061536  -0.0000039600
       -0.0000167865  -0.0000034810   0.0000024108  -0.0000102417  -0.0000010167
        0.0000106353   0.0000005974  -0.0000108090  -0.0000007508   0.0000850929
       -0.0001104605   0.0000306000  -0.0001121072  -0.0000507501   0.0000984887
       -0.0220166988  -0.0036323410  -0.0190837307   0.0084712141   0.0001087101
        0.0061225476   0.0110391610  -0.0011425344   0.0115615915  -0.0009368275
        0.0017405895  -0.0016080339   0.0008742508   0.0014563995  -0.0019168738
       -0.0000240987  -0.0000150956  -0.0000541129  -0.0000964333   0.0000221425
        0.0000049101  -0.0000653605   0.0000543490   0.0000154051   0.0000044670
        0.0000635799   0.0000124496   0.0000236734  -0.0002552055  -0.0001058083
        0.0037525436  -0.0206135979  -0.0057560943   0.0015762718  -0.0045066862
       -0.0037405657  -0.0000865781   0.0009493813   0.0004362660   0.0003662035
       -0.0001466670  -0.0000876914  -0.0007449970  -0.0003779474  -0.0003812785
       -0.0000574223  -0.0000520146  -0.0000588968  -0.0000571720  -0.0000286667
       -0.0000175357   0.0001924145  -0.0001763358  -0.0002643483   0.0000372308
        0.0002288398  -0.0000602407   0.0000061098   0.0000263314   0.0000053030
        0.0000051724   0.0000019215   0.0000072228   0.0000086067  -0.0000077512
       -0.0000116379   0.0000126182  -0.0000153690   0.0000018297   0.0000103799
       -0.0000071929   0.0000031107   0.0000061458  -0.0000012980  -0.0000103467
       -0.0000019545   0.0000218622  -0.0000040327  -0.0000176890   0.0000469314
        0.0000327704
       -0.0618949470  -0.0066777873  -0.1070962823   0.0121320412   0.0398048060
        0.4056406558   0.0175282425   0.0348048876  -0.0786375711  -0.0087061718
        0.0176006990  -0.0322020124   0.0068210888  -0.0030761929   0.0007787539
       -0.0061836403  -0.0009082200   0.0004544738   0.0022209529   0.0009486871
        0.0000567975   0.0009316426  -0.0005813255  -0.0005951907  -0.0003228390
       -0.0002104535  -0.0001765224  -0.0000270125  -0.0000974390  -0.0000566430
       -0.0000539947   0.0000242334   0.0000067669   0.0001677114   0.0000346138
       -0.0000094244   0.0003134948   0.0002431408   0.0001065835   0.0041007126
       -0.0382575593  -0.0796521903  -0.0069231791  -0.0071772543  -0.0039688179
        0.0016997728   0.0010327423  -0.0011396633   0.0038033380   0.0040885595
        0.0015835113   0.0467495353  -0.0215927915  -0.0750744402   0.0118584353
       -0.0046841910  -0.0088066014  -0.0002166583   0.0012726347  -0.0000266286
        0.0004992855  -0.0002645834  -0.0002856007  -0.0004605294  -0.0000070733
       -0.0001502179   0.0007431743   0.0001822901   0.0001041953   0.0000186965
       -0.0046970877   0.0009961657  -0.0049588312  -0.0004534333   0.0051230302
        0.0010923521  -0.0000863946   0.0011664819  -0.0001101524  -0.0000214989
       -0.0000178308   0.0000652114   0.0000402355  -0.0000418569  -0.0001983143
        0.0000140106  -0.0000795213   0.0006236180  -0.0002393024   0.0002913490
       -0.0001750179   0.0000029181  -0.0001651910  -0.0001671924   0.0000704235
       -0.0000390208  -0.0000954853   0.0000254672  -0.0000192642  -0.0000106195
        0.0000053267  -0.0000152286   0.0000223592  -0.0000063955  -0.0000032771
        0.0000137651  -0.0000051156  -0.0000021227   0.0000190392  -0.0000042842
       -0.0000015882  -0.0000016262   0.0000402450   0.0000117708   0.0000586629
        0.0001350532   0.0001463064  -0.0006922021  -0.0000979143  -0.0000008251
       -0.0084451648  -0.0031521706  -0.0077445758   0.0067876944   0.0001636468
        0.0073106553  -0.0171647015   0.0014595648  -0.0184275709  -0.0030639665
        0.0023170460  -0.0032856557   0.0010588259   0.0005863290   0.0005108254
       -0.0000181805   0.0000117472   0.0000779499   0.0000758782  -0.0000277533
       -0.0000019891   0.0000354109  -0.0000394315  -0.0000057839   0.0000013849
       -0.0000847719  -0.0000151750  -0.0000318833   0.0000804639   0.0001144908
       -0.0016458186   0.0125845346   0.0053908742   0.0032222017  -0.0236716935
       -0.0133430848  -0.0008316832  -0.0008259516   0.0009098540   0.0000745900
       -0.0001841573  -0.0001884817  -0.0001306539  -0.0002127407   0.0001648072
        0.0000265380   0.0000709564   0.0001085794  -0.0000464659   0.0000659182
        0.0000948969   0.0000348507  -0.0001765766   0.0001351876  -0.0001293938
       -0.0001667985   0.0000811273  -0.0000422425  -0.0000033202  -0.0000225118
       -0.0000007801  -0.0000083051  -0.0000094576  -0.0000072186   0.0000150096
        0.0000087992  -0.0000152179   0.0000216433  -0.0000092399  -0.0000138888
        0.0000109289  -0.0000186916  -0.0000054128  -0.0000090478   0.0000108883
       -0.0000397108  -0.0000165228   0.0000096633   0.0000302893  -0.0000332240
       -0.0000596901
        0.0034339742   0.0150805411  -0.0217171412  -0.0841269456  -0.0357342266
        0.0175282425   0.3168132896   0.0264927669   0.0974273403  -0.1546898965
       -0.0168433706  -0.0826703154  -0.0433406553   0.0267122549  -0.0163456623
        0.0024277833   0.0055721556  -0.0012430095  -0.0019422694   0.0003886222
       -0.0001547648  -0.0022952090  -0.0000980145   0.0016814523   0.0002818436
        0.0004180733   0.0003938441  -0.0000493233   0.0002292118  -0.0000490909
        0.0000575286  -0.0000847484  -0.0000431601  -0.0002001483  -0.0000761234
       -0.0001137585  -0.0005171320  -0.0003515703  -0.0002164513   0.0025217630
       -0.0073165638   0.0043309936  -0.0018593248  -0.0011361115  -0.0004387308
        0.0008467253  -0.0005436853  -0.0000169829   0.0007757256   0.0013191080
        0.0025961394  -0.0188218566  -0.0194563447   0.0291052384   0.0007166740
       -0.0016124100  -0.0003778961  -0.0000057393   0.0000439153   0.0003515531
        0.0001486845  -0.0001640780  -0.0000986888  -0.0002024991  -0.0001662959
        0.0000329078   0.0001291286   0.0001562074   0.0000548550  -0.0010477586
       -0.0003640852  -0.0010750113  -0.0026539346   0.0017440510  -0.0000457904
        0.0004846853   0.0007153168  -0.0003946601  -0.0001818513  -0.0002407382
       -0.0001333212   0.0001399758  -0.0000658875  -0.0000275048  -0.0002334167
       -0.0000530164   0.0000085216   0.0007331610   0.0002815506  -0.0000984304
       -0.0002184429  -0.0001622440  -0.0000901062  -0.0002754548  -0.0000849375
        0.0002077673  -0.0001133460  -0.0000004685  -0.0000044757  -0.0000267613
        0.0000187268  -0.0000342372  -0.0000208453  -0.0000257194  -0.0000136390
       -0.0000161143  -0.0000232619   0.0000181743   0.0000022562   0.0000007910
        0.0000333077  -0.0000094576   0.0000338808   0.0000218874   0.0000956897
       -0.0000314589   0.0000402683  -0.0001250293  -0.0000279351   0.0001146539
        0.0004588572   0.0003884458   0.0004132560   0.0013192621  -0.0002056935
        0.0007015526  -0.0032088603   0.0011655075  -0.0045994915   0.0067686556
        0.0017987895   0.0029513931  -0.0230490959   0.0012573053  -0.0266345453
        0.0001081631  -0.0000219861   0.0000165955  -0.0001102168   0.0000596028
        0.0000424071  -0.0000597238   0.0000539854   0.0000694788   0.0000014253
        0.0001199537   0.0000707007  -0.0000490226  -0.0002353436  -0.0001067722
       -0.0000052545  -0.0005652508  -0.0003912035   0.0004822168   0.0009488856
       -0.0007234557   0.0000199954   0.0000684873  -0.0000973831   0.0002593395
        0.0001019304  -0.0000621332   0.0001674364   0.0001417171  -0.0000300164
        0.0000209988   0.0000691801  -0.0000236522   0.0000097102   0.0000279807
       -0.0000171061   0.0000581942   0.0000263733  -0.0000780015   0.0001119994
        0.0001653576  -0.0000138299  -0.0000009472   0.0000329636  -0.0000123685
        0.0000153517  -0.0000046241  -0.0000034561   0.0000180642   0.0000046889
       -0.0000041325   0.0000129152   0.0000074488  -0.0000004161   0.0000100534
        0.0000070759  -0.0000100905   0.0000102243   0.0000021316   0.0000003843
       -0.0000089520   0.0000123051   0.0000143376   0.0000037334   0.0000289043
       -0.0000163697
        0.0016803755  -0.0034565181   0.0099668079  -0.0347622082  -0.0954838555
        0.0348048876   0.0264927669   0.2137009804  -0.1261019713  -0.0000332185
       -0.0605857004   0.0290873407   0.0369191922  -0.0083660352   0.0151354886
       -0.0084252477  -0.0073901529  -0.0011665881   0.0014899091   0.0033370426
        0.0018412896   0.0018448082   0.0000459953  -0.0012877543  -0.0003666173
       -0.0004148689  -0.0003702353   0.0000082694  -0.0001799283  -0.0000041336
       -0.0000209065   0.0000896171   0.0000372492   0.0002205493   0.0000756099
        0.0000791747   0.0001178609   0.0003130088   0.0002181974  -0.0108449312
       -0.0396529136   0.0234246768   0.0019872930  -0.0019577130   0.0000700645
       -0.0003481098  -0.0002502285  -0.0005192309   0.0028812836   0.0006296915
        0.0014023122  -0.0118220266   0.0020294526   0.0089108965   0.0000861564
       -0.0013160768  -0.0013790689  -0.0006306194   0.0003710311  -0.0000502683
        0.0001040469   0.0000390590  -0.0000035239   0.0001292311   0.0001601296
        0.0000104914   0.0002412958  -0.0002673984  -0.0003215355  -0.0014213703
       -0.0000768822   0.0004442540  -0.0014277159   0.0012577932   0.0005282172
        0.0007144469   0.0002489986   0.0001283215  -0.0001800752   0.0001072114
       -0.0000550140   0.0000497907   0.0000231468  -0.0000221505  -0.0001209061
        0.0000495187  -0.0000337280   0.0004004863  -0.0004563123   0.0001991278
       -0.0001009722   0.0001420660  -0.0000527227  -0.0000941471   0.0001273850
       -0.0000608508  -0.0000637908   0.0000395257  -0.0000142837   0.0000032653
        0.0000033334  -0.0000026332   0.0000359918   0.0000019585   0.0000025853
        0.0000219754   0.0000030614  -0.0000095284   0.0000186453   0.0000006332
       -0.0000133938  -0.0000024454   0.0000261848   0.0000071001   0.0000678939
        0.0000353130   0.0000134053  -0.0001858727  -0.0000119491   0.0000637678
        0.0002328072   0.0008226500   0.0001188943  -0.0005762018   0.0000883712
       -0.0006919457   0.0008110668   0.0002757521   0.0005032708   0.0116699740
       -0.0052320459   0.0201856767  -0.0158116386   0.0057868013  -0.0159105402
        0.0000031106   0.0000179878   0.0000461119   0.0001479332  -0.0000495668
       -0.0000168584   0.0000810033  -0.0000625868  -0.0000419293   0.0000038598
       -0.0000843255  -0.0000291471   0.0000522654   0.0003178016   0.0001301292
       -0.0004953441  -0.0071351826  -0.0014390008  -0.0005109539   0.0024685917
        0.0020414378  -0.0007794496  -0.0004517458  -0.0002600080  -0.0000550977
        0.0001611736  -0.0000569570   0.0005575544   0.0003214937   0.0003806073
        0.0000700272   0.0000307893   0.0000428133   0.0000601822   0.0000199212
        0.0000419628  -0.0000310960  -0.0000214443   0.0000271024  -0.0000631762
       -0.0002527394   0.0000668911   0.0000013197  -0.0000155082  -0.0000083875
       -0.0000074289  -0.0000079361  -0.0000106065  -0.0000136549   0.0000184487
        0.0000165241  -0.0000200504   0.0000234901  -0.0000047870  -0.0000144405
        0.0000101969  -0.0000071335  -0.0000072290  -0.0000012425   0.0000176673
        0.0000168491  -0.0000088848   0.0000020588   0.0000134557  -0.0000314751
       -0.0000508874
       -0.0027675209   0.0206182021  -0.0294022968   0.0191607050   0.0437035788
       -0.0786375711   0.0974273403  -0.1261019713   0.3058778240  -0.0783463929
        0.0103997686  -0.1439035615  -0.0220288516   0.0146546785   0.0134622578
        0.0091694164   0.0016159280  -0.0018925705  -0.0033613065  -0.0002618530
        0.0009192572  -0.0016260962   0.0009160848   0.0006454610   0.0005133390
        0.0003785354   0.0003267858   0.0000739939   0.0001435160   0.0001136401
        0.0000747422  -0.0000580376  -0.0000270518  -0.0002440458  -0.0000365109
        0.0000214909  -0.0007165603  -0.0004140578  -0.0001332330  -0.0002168324
        0.0071695426   0.0024119543   0.0002631008   0.0003110170   0.0007653299
       -0.0007012105  -0.0003182803   0.0001407892  -0.0047604464  -0.0007418615
       -0.0028341943   0.0242510017   0.0145372389  -0.0224915712  -0.0004200147
        0.0019079918   0.0014840985  -0.0000900858  -0.0003714771  -0.0002821360
       -0.0001686225   0.0002286340   0.0002104277   0.0000437552  -0.0000152928
        0.0000755780  -0.0002687476   0.0001013006   0.0002595086   0.0015385325
        0.0003841386   0.0001857455   0.0054121980  -0.0024308625  -0.0008968625
       -0.0020451356  -0.0010049015  -0.0000997424   0.0006090768   0.0001278108
        0.0001252815  -0.0002713980   0.0000085141   0.0001366242   0.0004279948
        0.0000000266   0.0001038276  -0.0009741168   0.0003716068  -0.0004554214
        0.0002437273  -0.0000163299   0.0002571984   0.0002319210  -0.0001175376
        0.0000651643   0.0001529334  -0.0000371956   0.0000288856   0.0000108285
       -0.0000080320   0.0000148679  -0.0000396815   0.0000048095   0.0000002794
       -0.0000231251   0.0000053770   0.0000037568  -0.0000350431   0.0000042835
       -0.0000006965   0.0000020082  -0.0000683659  -0.0000202574  -0.0002788286
       -0.0000752162  -0.0001143790   0.0006112111   0.0000398769  -0.0002212602
        0.0013857669   0.0001802600   0.0013457260   0.0002716156   0.0001394425
        0.0007451826  -0.0041921880   0.0008767557  -0.0037863783  -0.0195482634
        0.0117547293  -0.0309561397  -0.0189833686   0.0008953959  -0.0148729744
        0.0001047129   0.0000062215  -0.0001245516  -0.0001388932   0.0000646638
        0.0000148829  -0.0000491829   0.0000842850   0.0000201039  -0.0000064246
        0.0001458149   0.0000420936  -0.0000561492  -0.0001242610  -0.0002410621
        0.0004263392   0.0004351719   0.0000301154  -0.0008661995  -0.0005231589
        0.0014670015   0.0002728487   0.0001606759   0.0003864406   0.0000170719
        0.0001669378  -0.0001167315   0.0000538328   0.0000489748   0.0000216383
       -0.0000548498  -0.0000509678  -0.0000633854   0.0000665371  -0.0000864815
       -0.0001089751   0.0001573850   0.0000217705  -0.0000590433   0.0002207734
        0.0002779104  -0.0001539227   0.0000633264  -0.0000011624   0.0000328026
       -0.0000012487   0.0000137800   0.0000191862   0.0000090947  -0.0000207946
       -0.0000166992   0.0000246190  -0.0000370046   0.0000107706   0.0000241787
       -0.0000201041   0.0000315699   0.0000120331   0.0000159442  -0.0000185369
       -0.0000063712   0.0000127420   0.0000032821  -0.0000407594   0.0000077813
        0.0001243753
        0.0002464836  -0.0010569219   0.0016640063   0.0135864543   0.0133713968
       -0.0087061718  -0.1546898965  -0.0000332185  -0.0783463929   0.4411245567
        0.1054158613  -0.0017322726  -0.0574122315   0.0091652887   0.0133399643
       -0.0492461883   0.0189600186   0.0123100671   0.0008168315   0.0044993634
        0.0013462126  -0.0005501553  -0.0035500249  -0.0033390939  -0.0021617435
        0.0005298386   0.0002814025  -0.0006272121  -0.0004840409  -0.0000965799
       -0.0002284518   0.0001302915   0.0000761153   0.0007909702   0.0001247618