70
 energy: -107.455258581571 gnorm: 0.000187762145 xtb: 6.7.1 (edcfbbe)
C           -1.85996888802322       -0.01869461661765        2.53666903012051
C           -1.00262429249988       -0.01392434692478        1.30924383450286
C            0.37562848246659       -0.01777527124549        1.38591906835567
C            1.16879317605002       -0.01202514672525        0.23146391380815
N            2.59398512004991       -0.01544068308955        0.34489574059011
C            3.21679093814476       -1.24478906683597        0.33792151759109
C            2.47284464601551       -2.42003937933818        0.56889709890445
C            3.06887271639205       -3.65728855872138        0.57404887044601
C            4.44510138192565       -3.79584925455519        0.33539603218813
C            5.19003675317168       -2.65937938409927        0.08844058221792
C            4.59941691646001       -1.41097075251341        0.09582793934153
S            5.59006288054141       -0.01479706652854       -0.34390817415604
O            5.75443511305384       -0.00144449976610       -1.79230229998528
O            6.83173155894505       -0.02394642513614        0.40995761374255
C            4.60452666118805        1.37677261627066        0.12146293404703
C            5.20001078536807        2.62281868164962        0.13664058639638
C            4.45941535707499        3.75756458369628        0.40375665439630
C            3.08257134174949        3.62008696237455        0.63934645775259
C            2.48165987207643        2.38543843571313        0.61158881848720
C            3.22118092340167        1.21162993183996        0.36004296034685
C            0.58178061452826       -0.00251628138139       -1.04222813618082
C            1.43828592461693        0.00395770579170       -2.26847393852540
C           -0.79649130037995        0.00111206088314       -1.12105202551243
C           -1.58748642646701       -0.00449825695639        0.03392437647733
N           -3.00803793322980        0.00091940056779       -0.09238166004828
C           -3.67132888361790       -1.19743695658881       -0.10799207884408
C           -2.93717150840487       -2.40358728713305       -0.08489381810645
C           -3.57563713211375       -3.61512093202688       -0.07951799163020
C           -4.97304803466591       -3.66598022962952       -0.09227833361763
C           -5.70088553988163       -2.48592467030415       -0.11860720195891
C           -5.08979779325985       -1.24431316175588       -0.13123076978028
C           -5.92303511496609        0.01459208017914       -0.15986045601606
C           -6.81901523848539        0.04321307960890        1.09640227122385
C           -6.80188286595414       -0.00510990554457       -1.42841177972388
C           -5.07668475082492        1.26499821804504       -0.17829185488794
C           -5.67542832938173        2.51231875476935       -0.21303566894219
C           -4.93601263324217        3.68518371703788       -0.22629218358567
C           -3.53942883287486        3.62116381896238       -0.20233412943558
C           -2.91295766520367        2.40389499870597       -0.16183308939952
C           -3.65885810079929        1.20503542220976       -0.14952164708804
H           -2.50415516875108        0.86043458635509        2.55601064934493
H           -1.24384459716238       -0.01796052954607        3.43116002347940
H           -2.49800605198222       -0.90240321561167        2.55344710779492
H            0.86533621869096       -0.02476592808799        2.34790620051032
H            1.41396830786803       -2.34016992304803        0.75525266584402
H            2.47120273618031       -4.53515307018905        0.76555688817787
H            4.90853185217730       -4.76887277124473        0.33759981552171
H            6.25016880140831       -2.70517516158512       -0.11381877460270
H            6.26046174250045        2.66811530223979       -0.06392678116150
H            4.92670865609383        4.72852471172988        0.42382633679938
H            2.48810056955724        4.49673186423401        0.84580947629210
H            1.42227888136554        2.30660283903797        0.79546927895758
H            0.82765118875209        0.01174280107050       -3.16707874737659
H            2.08767628689240        0.88014208085426       -2.27750735115484
H            2.08344933163834       -0.87511246286230       -2.28985408706087
H           -1.28256844856256        0.00823496667470       -2.08502230567066
H           -1.85992066669439       -2.35909225168269       -0.07698580654100
H           -3.00086600255512       -4.52850983134346       -0.06544048274645
H           -5.48260027790322       -4.61668576968871       -0.08364258178519
H           -6.77791129189597       -2.54949055758122       -0.12980831784282
H           -7.44964222987479        0.92709258644859        1.09754003172140
H           -7.45881522349030       -0.83337010077460        1.13091815015711
H           -6.20361003375234        0.05706978938848        1.99383112206213
H           -7.44080355561216       -0.88286862115735       -1.43918170215041
H           -7.43309740904378        0.87719680786570       -1.47194985238609
H           -6.17345938447715       -0.02447080352627       -2.31670446569228
H           -6.75171012564951        2.58605883172252       -0.23091227458267
H           -5.43610857779660        4.64050956727772       -0.25467450323120
H           -2.95561548110697        4.52880236158039       -0.21541197597786
H           -1.83628582540698        2.34979758086068       -0.14389955275379
