70
 energy: -110.299518342671 gnorm: 0.000042327439 xtb: 6.7.1 (edcfbbe)
O           -3.72200179913296        3.23127219197062       -1.08858823022897
C           -3.02611479450644        2.76332038643407       -0.20152066021507
C           -1.92308354369731        1.87723609685423       -0.39733358306331
C           -1.61174835160594        1.36355964287399       -1.76585788825314
C           -0.10017140391129        1.29863430695761       -1.93865596912539
C            0.57190639843671        0.40380854960124       -0.88615979413803
C            0.56433069075555       -1.02203335967142       -1.37149366041977
C            1.53749933127318       -1.46985931702693       -2.25746482287090
C            1.50337731722192       -2.75454594653142       -2.76668667734824
C            0.47604217562800       -3.61454246032581       -2.41427350561417
C           -0.51356489050912       -3.17857762308846       -1.55450972189647
C           -0.47113971996731       -1.89018375415525       -1.03198801877565
N           -1.50857026701829       -1.48489794739256       -0.14337906882136
C           -1.49012050990537       -2.03957927176392        1.13187604289589
C           -0.38784425330344       -2.79913254064260        1.54286601973886
C           -0.30320741698216       -3.32326968169008        2.81786286139716
C           -1.31800441533662       -3.10389429816417        3.73351552565642
C           -2.41632497521210       -2.35822072719073        3.34864175991354
C           -2.50842342760609       -1.82887432904273        2.06946158781645
S           -3.97026409799485       -0.91275726745181        1.71210251800901
C           -3.71760356461187       -0.46107117388721        0.01843528812177
C           -4.81496548873167        0.13314314087804       -0.60268561625927
C           -4.77767260180931        0.39273164827409       -1.98257558471299
C           -3.62572063510944        0.24145394047344       -2.67239243002389
C           -2.33471604847915       -0.03931190941545       -1.98181650806473
C           -2.54241126210548       -0.72177668973071       -0.65611482170507
P            2.35415549570740        1.04003264775172       -0.81302696017138
O            2.83838725044517        1.55638419815564       -2.09833195131994
C            2.30529879763516        2.33660634488009        0.46550226870324
C            2.12806864764488        3.63841117525366        0.01621138768090
C            2.05654407996611        4.68214721619973        0.92080519989977
C            2.17466909652020        4.42671496667297        2.27683526510386
C            2.37804705560391        3.13121002578051        2.72546437950067
C            2.44413560710051        2.08468353131136        1.82411183947085
C            3.41066941032588       -0.28588750934668       -0.13671469320103
C            3.01135604724712       -1.24213566828371        0.78732722677034
C            3.91510514407302       -2.19183447584207        1.22867109436228
C            5.21799233921658       -2.18934646497481        0.75764007205002
C            5.62008424124782       -1.23491527497173       -0.16215894577864
C            4.71734652333120       -0.28715184545801       -0.60823090841822
C           -0.04268924384801        0.61627621440124        0.45464111648317
C           -1.12877903834498        1.41412148330259        0.65842014797478
H           -3.21033436652043        3.03263676892385        0.85843079277309
H           -2.03167509598277        2.05176182962857       -2.50535559117446
H            0.17092061985824        0.95590386445801       -2.93935366725116
H            0.29047688844083        2.31496787212286       -1.82114112333809
H            2.32353247599956       -0.79443857080645       -2.56082193343944
H            2.27593704574805       -3.08161797087773       -3.44531392057454
H            0.43880907697822       -4.61610207588957       -2.81401181215436
H           -1.33042787558865       -3.82839514911508       -1.27619137300168
H            0.41561965744328       -2.98604343723789        0.84775358792804
H            0.56379910897103       -3.90458434070903        3.09280324396160
H           -1.25859087840281       -3.50718523593698        4.73178316850637
H           -3.22632420413451       -2.17293167934849        4.03730807194884
H           -5.70733427578810        0.31501556172992       -0.02785292724650
H           -5.68425182856577        0.69736832172153       -2.48073346573580
H           -3.57399034536955        0.43475887287796       -3.73199116388350
H           -1.68902473722604       -0.63739225057633       -2.63201509759841
H            2.06713780488045        3.82114381207925       -1.04716422224130
H            1.91229321741342        5.69297999575806        0.56941967323133
H            2.11950924456958        5.23916787327267        2.98620036891505
H            2.48772129914849        2.93679754881209        3.78245919655635
H            2.61761074193570        1.07742601426717        2.17518617935209
H            1.99821306379832       -1.26053056830251        1.15826601577217
H            3.60003642593010       -2.93747909914223        1.94422328627711
H            5.91830105471596       -2.93365849137603        1.10669372205042
H            6.63474682742246       -1.23143755132931       -0.53180579323135
H            5.00523758110305        0.45986447204367       -1.33420065408603
H            0.45803989401541        0.18051973106720        1.30627372693902
H           -1.42261440170245        1.65676966395412        1.67163999842472
