 Entering Gaussian System
 *********************************************
 Gaussian 98:
 frequency output generated by the xtb code
 *********************************************
                         Standard orientation:
 --------------------------------------------------------------------
  Center     Atomic     Atomic              Coordinates (Angstroms)
  Number     Number      Type              X           Y           Z
 --------------------------------------------------------------------
    1          6             0        2.036743    3.970104    2.748296
    2          6             0        1.197820    3.262624    1.890517
    3          6             0        1.658391    2.184632    1.161620
    4          6             0        2.986815    1.794463    1.306445
    5          6             0        3.829729    2.552832    2.148241
    6          6             0        3.371621    3.632348    2.881519
    7          8             0        5.110941    2.099541    2.112167
    8          6             0        5.125324    1.051712    1.243621
    9          6             0        6.274055    0.366710    0.869046
   10          6             0        6.154564   -0.634196   -0.076551
   11          6             0        4.900132   -0.959300   -0.579566
   12          6             0        4.488739   -1.941482   -1.547147
   13          6             0        5.175114   -2.855628   -2.333604
   14          6             0        4.449845   -3.672532   -3.183005
   15          6             0        3.062149   -3.584365   -3.255243
   16          6             0        2.357653   -2.682508   -2.477052
   17          6             0        3.082868   -1.858652   -1.631347
   18          7             0        2.627356   -0.871232   -0.765371
   19          6             0        1.295631   -0.781775   -0.379172
   20          6             0        0.935250   -0.824437    0.948937
   21          7             0       -0.337387   -0.761132    1.353973
   22          6             0       -1.297813   -0.776298    0.386325
   23          7             0       -2.629632   -0.860254    0.773568
   24          6             0       -3.086435   -1.840158    1.647289
   25          6             0       -2.361999   -2.661269    2.496342
   26          6             0       -3.067719   -3.555427    3.282262
   27          6             0       -4.455927   -3.638904    3.214322
   28          6             0       -5.180405   -2.825101    2.361281
   29          6             0       -4.492752   -1.918733    1.566965
   30          6             0       -4.902983   -0.942116    0.593304
   31          6             0       -6.157495   -0.616889    0.090570
   32          6             0       -6.275793    0.376910   -0.862610
   33          6             0       -5.125646    1.055116   -1.245088
   34          8             0       -5.109834    2.095467   -2.122520
   35          6             0       -3.827126    2.543815   -2.165831
   36          6             0       -3.366965    3.614571   -2.910570
   37          6             0       -2.030411    3.948360   -2.784333
   38          6             0       -1.191885    3.245857   -1.922088
   39          6             0       -1.654571    2.176656   -1.181671
   40          6             0       -2.984782    1.789988   -1.319380
   41          6             0       -3.833915    0.783666   -0.738407
   42          6             0       -3.721216   -0.291227    0.152891
   43          6             0       -0.937537   -0.831317   -0.941342
   44          7             0        0.335227   -0.773674   -1.346919
   45          6             0        3.719582   -0.301294   -0.146627
   46          6             0        3.833871    0.780285    0.736295
   47          1             0        1.643066    4.806449    3.305181
   48          1             0        0.167389    3.568508    1.788424
   49          1             0        1.005695    1.662773    0.482506
   50          1             0        4.040742    4.186416    3.520115
   51          1             0        7.225664    0.637953    1.295454
   52          1             0        7.027124   -1.165105   -0.421574
   53          1             0        6.250832   -2.923207   -2.284133
   54          1             0        4.965773   -4.391011   -3.802135
   55          1             0        2.523210   -4.234408   -3.927985
   56          1             0        1.282664   -2.608466   -2.530867
   57          1             0        1.687103   -0.893467    1.720419
   58          1             0       -1.286605   -2.591020    2.546794
   59          1             0       -2.529357   -4.203127    3.957720
   60          1             0       -4.972868   -4.351304    3.839601
   61          1             0       -6.256466   -2.889247    2.314763
   62          1             0       -7.030960   -1.142347    0.441587
   63          1             0       -7.227359    0.647786   -1.289327
   64          1             0       -4.035763    4.165070   -3.552575
   65          1             0       -1.634908    4.777523   -3.350570
   66          1             0       -0.159986    3.548648   -1.825772
   67          1             0       -1.001943    1.658793   -0.499466
   68          1             0       -1.689533   -0.905830   -1.712179
 --------------------------------------------------------------------
     1 basis functions        1 primitive gaussians
     1 alpha electrons        1 beta electrons
 
 Harmonic frequencies (cm**-1), IR intensities (km*mol⁻¹),
 Raman scattering activities (A**4/amu), Raman depolarization ratios,
 reduced masses (AMU), force constants (mDyne/A) and normal coordinates:
                      1                      2                      3
                        a                      a                      a 
 Frequencies --     9.0047                19.7918                21.1464
 Red. masses --    11.3233                11.4920                11.5431
 Frc consts  --     0.0000                 0.0000                 0.0000
 IR Inten    --     0.0199                 0.0834                 0.0400
 Raman Activ --     0.0000                 0.0000                 0.0000
 Depolar     --     0.0000                 0.0000                 0.0000
 Atom AN      X      Y      Z        X      Y      Z        X      Y      Z
   1   6    -0.01  -0.14   0.23     0.11  -0.02   0.15     0.18   0.08  -0.02
   2   6    -0.01  -0.10   0.19     0.05  -0.05   0.23     0.17   0.13  -0.05
   3   6    -0.01  -0.05   0.12     0.02  -0.03   0.18     0.12   0.10  -0.03
   4   6    -0.01  -0.06   0.10     0.05   0.02   0.05     0.09   0.01   0.02
   5   6    -0.01  -0.10   0.13     0.10   0.05  -0.03     0.11  -0.04   0.05
   6   6    -0.01  -0.14   0.20     0.13   0.03   0.01     0.16  -0.01   0.04
   7   8    -0.01  -0.10   0.12     0.13   0.11  -0.17     0.10  -0.15   0.12
   8   6    -0.01  -0.05   0.05     0.07   0.09  -0.14     0.05  -0.12   0.09
   9   6    -0.00  -0.02   0.01     0.06   0.13  -0.23     0.02  -0.19   0.12
  10   6    -0.00   0.03  -0.04     0.01   0.11  -0.20    -0.01  -0.17   0.10
  11   6    -0.00   0.04  -0.04    -0.02   0.06  -0.09    -0.02  -0.08   0.05
  12   6     0.00   0.08  -0.09    -0.06   0.03  -0.04    -0.05  -0.04   0.03
  13   6     0.00   0.13  -0.13    -0.09   0.04  -0.07    -0.09  -0.07   0.03
  14   6     0.01   0.16  -0.17    -0.12   0.00  -0.01    -0.11  -0.01  -0.00
  15   6     0.01   0.15  -0.15    -0.13  -0.03   0.08    -0.11   0.07  -0.04
  16   6     0.00   0.10  -0.10    -0.10  -0.04   0.11    -0.07   0.10  -0.04
  17   6    -0.00   0.07  -0.07    -0.06  -0.00   0.05    -0.04   0.05  -0.01
  18   7    -0.00   0.03  -0.02    -0.03  -0.00   0.07    -0.01   0.06  -0.01
  19   6    -0.00   0.00  -0.01    -0.02   0.01   0.08    -0.00   0.11  -0.00
  20   6     0.01  -0.00  -0.01    -0.03  -0.02   0.08     0.00   0.12  -0.00
  21   7     0.01  -0.01  -0.00    -0.03  -0.03   0.08     0.00   0.14   0.00
  22   6     0.00   0.00   0.01    -0.03  -0.00   0.07     0.00   0.10   0.01
  23   7     0.01   0.03   0.02    -0.03   0.00   0.06     0.01   0.06   0.01
  24   6     0.01   0.07   0.07    -0.06   0.00   0.04     0.04   0.04   0.01
  25   6     0.01   0.09   0.08    -0.09   0.02   0.08     0.07   0.10   0.04
  26   6     0.01   0.13   0.13    -0.12   0.02   0.06     0.10   0.07   0.04
  27   6     0.00   0.15   0.16    -0.11  -0.01  -0.02     0.11  -0.02   0.00
  28   6     0.00   0.13   0.14    -0.08  -0.03  -0.07     0.08  -0.07  -0.03
  29   6     0.00   0.09   0.09    -0.06  -0.03  -0.04     0.05  -0.04  -0.03
  30   6     0.00   0.05   0.06    -0.02  -0.05  -0.08     0.01  -0.08  -0.05
  31   6    -0.00   0.04   0.06     0.00  -0.09  -0.18     0.01  -0.17  -0.10
  32   6    -0.00  -0.00   0.02     0.05  -0.11  -0.20    -0.02  -0.19  -0.13
  33   6    -0.00  -0.04  -0.03     0.05  -0.09  -0.13    -0.05  -0.12  -0.09
  34   8    -0.00  -0.10  -0.11     0.10  -0.11  -0.17    -0.09  -0.15  -0.12
  35   6     0.00  -0.10  -0.13     0.08  -0.06  -0.05    -0.11  -0.05  -0.06
  36   6     0.00  -0.15  -0.21     0.11  -0.05  -0.02    -0.15  -0.02  -0.04
  37   6     0.01  -0.16  -0.24     0.09  -0.00   0.09    -0.18   0.07   0.01
  38   6     0.01  -0.11  -0.21     0.04   0.03   0.16    -0.16   0.13   0.05
  39   6     0.01  -0.06  -0.13     0.01   0.02   0.13    -0.12   0.10   0.03
  40   6     0.00  -0.06  -0.10     0.04  -0.02   0.02    -0.09   0.01  -0.02
  41   6     0.00  -0.02  -0.04     0.02  -0.04  -0.03    -0.05  -0.04  -0.04
  42   6     0.00   0.02   0.01    -0.01  -0.03  -0.02    -0.01  -0.02  -0.03
  43   6    -0.01  -0.01   0.00    -0.02   0.03   0.07    -0.00   0.11   0.01
  44   7    -0.01  -0.01  -0.01    -0.02   0.03   0.08    -0.01   0.13  -0.00
  45   6    -0.00   0.01  -0.01    -0.00   0.04  -0.01     0.01  -0.02   0.03
  46   6    -0.01  -0.03   0.04     0.03   0.05  -0.03     0.05  -0.04   0.05
  47   1    -0.00  -0.05   0.08     0.04  -0.01   0.06     0.06   0.03  -0.01
  48   1    -0.00  -0.03   0.06     0.01  -0.03   0.10     0.06   0.06  -0.02
  49   1    -0.00  -0.00   0.03    -0.01  -0.02   0.07     0.03   0.04  -0.01
  50   1    -0.00  -0.05   0.07     0.05   0.02  -0.01     0.05  -0.02   0.02
  51   1    -0.00  -0.01   0.01     0.03   0.05  -0.09     0.01  -0.08   0.05
  52   1    -0.00   0.01  -0.02     0.00   0.04  -0.08    -0.01  -0.06   0.04
  53   1     0.00   0.04  -0.04    -0.02   0.02  -0.04    -0.03  -0.04   0.02
  54   1     0.00   0.06  -0.06    -0.04   0.00  -0.01    -0.04  -0.01  -0.00
  55   1     0.00   0.05  -0.05    -0.05  -0.02   0.04    -0.04   0.03  -0.02
  56   1     0.00   0.03  -0.03    -0.03  -0.02   0.05    -0.02   0.05  -0.02
  57   1     0.00  -0.00  -0.00    -0.01  -0.01   0.02     0.00   0.03  -0.00
  58   1     0.00   0.02   0.02    -0.03   0.01   0.04     0.02   0.05   0.02
  59   1     0.00   0.04   0.04    -0.04   0.01   0.03     0.04   0.03   0.02
  60   1     0.00   0.05   0.06    -0.04  -0.00  -0.01     0.04  -0.01  -0.00
  61   1    -0.00   0.04   0.05    -0.02  -0.02  -0.04     0.02  -0.04  -0.02
  62   1    -0.00   0.02   0.03    -0.00  -0.03  -0.07     0.01  -0.06  -0.04
  63   1    -0.00  -0.00   0.00     0.02  -0.04  -0.08    -0.01  -0.08  -0.05
  64   1    -0.00  -0.05  -0.07     0.04  -0.02  -0.02    -0.05  -0.02  -0.02
  65   1     0.00  -0.06  -0.09     0.03   0.00   0.03    -0.06   0.03   0.01
  66   1     0.00  -0.03  -0.07     0.01   0.02   0.07    -0.05   0.06   0.02
  67   1     0.00  -0.01  -0.03    -0.01   0.01   0.06    -0.03   0.04   0.02
  68   1    -0.00  -0.00   0.00    -0.01   0.01   0.02    -0.00   0.03   0.00
                      4                      5                      6
                        a                      a                      a 
 Frequencies --    29.6803                33.9123                53.2471
 Red. masses --    11.3015                11.1037                11.2835
 Frc consts  --     0.0000                 0.0000                 0.0000
 IR Inten    --     0.1151                 0.6808                 0.2136
 Raman Activ --     0.0000                 0.0000                 0.0000
 Depolar     --     0.0000                 0.0000                 0.0000
 Atom AN      X      Y      Z        X      Y      Z        X      Y      Z
   1   6     0.08  -0.07   0.20     0.17   0.20  -0.08     0.13   0.12  -0.11
   2   6     0.05  -0.08   0.24     0.14   0.19  -0.04     0.08   0.01   0.03
   3   6     0.04  -0.04   0.17     0.08   0.13   0.02     0.04  -0.07   0.13
   4   6     0.06   0.00   0.06     0.06   0.08   0.03     0.06  -0.04   0.07
   5   6     0.09   0.01   0.03     0.10   0.07  -0.00     0.09   0.05  -0.04
   6   6     0.10  -0.03   0.09     0.16   0.13  -0.06     0.14   0.13  -0.14
   7   8     0.11   0.06  -0.07     0.09   0.01   0.02     0.11   0.06  -0.06
   8   6     0.07   0.05  -0.06     0.03  -0.01   0.04     0.06  -0.01   0.02
   9   6     0.07   0.07  -0.10     0.01  -0.05   0.05     0.07   0.00   0.01
  10   6     0.05   0.05  -0.07    -0.03  -0.04   0.04     0.06  -0.02   0.03
  11   6     0.03   0.02  -0.01    -0.04   0.00   0.04     0.05  -0.04   0.07
  12   6     0.01  -0.03   0.05    -0.06   0.04   0.01     0.06   0.00   0.03
  13   6     0.00  -0.08   0.09    -0.08   0.06  -0.03     0.09   0.10  -0.06
  14   6    -0.02  -0.13   0.16    -0.09   0.12  -0.07     0.12   0.15  -0.13
  15   6    -0.02  -0.14   0.19    -0.09   0.15  -0.06     0.11   0.11  -0.11
  16   6    -0.00  -0.10   0.15    -0.07   0.12  -0.02     0.09   0.01  -0.02
  17   6     0.01  -0.05   0.08    -0.06   0.08   0.02     0.06  -0.03   0.05
  18   7     0.03  -0.01   0.05    -0.04   0.06   0.06     0.04  -0.11   0.12
  19   6     0.02   0.02   0.02    -0.03   0.05   0.06     0.03  -0.11   0.06
  20   6    -0.01   0.01   0.01    -0.04   0.11   0.06    -0.04  -0.11   0.04
  21   7    -0.03   0.03  -0.03    -0.05   0.07   0.05    -0.07  -0.13  -0.02
  22   6    -0.00   0.04  -0.06    -0.04  -0.04   0.04    -0.03  -0.11  -0.06
  23   7    -0.01   0.02  -0.08    -0.05  -0.06   0.03    -0.04  -0.10  -0.12
  24   6     0.02  -0.01  -0.09    -0.06  -0.09  -0.02    -0.06  -0.03  -0.05
  25   6     0.05  -0.04  -0.14    -0.07  -0.15  -0.08    -0.09   0.01   0.02
  26   6     0.08  -0.07  -0.15    -0.08  -0.20  -0.13    -0.11   0.12   0.11
  27   6     0.08  -0.07  -0.12    -0.08  -0.17  -0.13    -0.12   0.16   0.14
  28   6     0.05  -0.04  -0.06    -0.07  -0.10  -0.07    -0.09   0.10   0.06
  29   6     0.02  -0.01  -0.05    -0.06  -0.06  -0.01    -0.06   0.00  -0.03
  30   6    -0.01   0.02   0.00    -0.05   0.00   0.04    -0.05  -0.04  -0.08
  31   6    -0.04   0.04   0.08    -0.04   0.07   0.08    -0.05  -0.02  -0.04
  32   6    -0.08   0.07   0.12    -0.02   0.09   0.10    -0.07  -0.00  -0.02
  33   6    -0.09   0.06   0.07    -0.00   0.05   0.08    -0.06  -0.01  -0.03
  34   8    -0.16   0.08   0.09     0.03   0.03   0.06    -0.11   0.06   0.06
  35   6    -0.14   0.05  -0.02     0.05  -0.05  -0.00    -0.09   0.05   0.04
  36   6    -0.18   0.03  -0.06     0.10  -0.12  -0.08    -0.14   0.14   0.14
  37   6    -0.17   0.01  -0.18     0.12  -0.21  -0.15    -0.13   0.12   0.11
  38   6    -0.11  -0.01  -0.25     0.11  -0.21  -0.13    -0.08   0.01  -0.03
  39   6    -0.07   0.01  -0.20     0.06  -0.14  -0.05    -0.04  -0.07  -0.12
  40   6    -0.09   0.03  -0.08     0.03  -0.07   0.01    -0.06  -0.04  -0.07
  41   6    -0.06   0.04  -0.02    -0.00  -0.01   0.06    -0.04  -0.07  -0.10
  42   6    -0.02   0.03  -0.03    -0.03  -0.01   0.05    -0.04  -0.08  -0.12
  43   6     0.04   0.06  -0.05    -0.03  -0.11   0.05     0.04  -0.11  -0.04
  44   7     0.05   0.06  -0.01    -0.03  -0.06   0.06     0.07  -0.13   0.02
  45   6     0.04   0.02   0.01    -0.02   0.02   0.06     0.04  -0.08   0.11
  46   6     0.05   0.03  -0.00     0.02   0.02   0.06     0.04  -0.07   0.10
  47   1     0.03  -0.03   0.08     0.06   0.07  -0.04     0.05   0.06  -0.05
  48   1     0.01  -0.03   0.09     0.04   0.07  -0.01     0.02  -0.00   0.02
  49   1     0.00  -0.01   0.06     0.01   0.03   0.02    -0.00  -0.04   0.07
  50   1     0.04  -0.01   0.02     0.05   0.04  -0.03     0.05   0.06  -0.07
  51   1     0.02   0.03  -0.04     0.01  -0.02   0.01     0.02   0.01  -0.01
  52   1     0.01   0.01  -0.03    -0.01  -0.02   0.01     0.02   0.00   0.00
  53   1     0.00  -0.02   0.02    -0.02   0.01  -0.01     0.03   0.04  -0.02
  54   1    -0.01  -0.05   0.05    -0.03   0.04  -0.03     0.04   0.07  -0.06
  55   1    -0.01  -0.05   0.07    -0.03   0.06  -0.03     0.04   0.05  -0.05
  56   1    -0.00  -0.03   0.05    -0.02   0.04  -0.00     0.02  -0.01  -0.00
  57   1    -0.01  -0.00   0.01    -0.01   0.05   0.02    -0.02  -0.03   0.02
  58   1     0.02  -0.01  -0.05    -0.02  -0.05  -0.02    -0.02  -0.01   0.00
  59   1     0.03  -0.03  -0.06    -0.02  -0.07  -0.05    -0.04   0.05   0.05
  60   1     0.03  -0.03  -0.04    -0.03  -0.06  -0.05    -0.04   0.07   0.06
  61   1     0.01  -0.01  -0.01    -0.02  -0.02  -0.02    -0.03   0.04   0.02
  62   1    -0.01   0.01   0.03    -0.02   0.03   0.02    -0.02  -0.00  -0.00
  63   1    -0.03   0.03   0.05    -0.01   0.04   0.04    -0.02   0.01   0.01
  64   1    -0.07   0.01  -0.00     0.03  -0.03  -0.02    -0.05   0.06   0.07
  65   1    -0.06  -0.00  -0.07     0.05  -0.08  -0.06    -0.05   0.06   0.05
  66   1    -0.03  -0.01  -0.10     0.04  -0.08  -0.05    -0.02  -0.00  -0.02
  67   1    -0.00   0.00  -0.07     0.01  -0.04  -0.01     0.00  -0.04  -0.07
  68   1     0.02   0.02  -0.02    -0.01  -0.05   0.01     0.02  -0.03  -0.02
                      7                      8                      9
                        a                      a                      a 
 Frequencies --    61.7430                69.2197                86.9627
 Red. masses --    11.2009                11.5842                10.9221
 Frc consts  --     0.0000                 0.0000                 0.0000
 IR Inten    --     2.5017                 4.6817                 0.3567
 Raman Activ --     0.0000                 0.0000                 0.0000
 Depolar     --     0.0000                 0.0000                 0.0000
 Atom AN      X      Y      Z        X      Y      Z        X      Y      Z
   1   6    -0.04   0.03  -0.17     0.05   0.05   0.03     0.05   0.04  -0.08
   2   6    -0.06  -0.10  -0.05     0.01   0.00   0.11     0.10   0.13  -0.20
   3   6    -0.05  -0.16   0.06    -0.01  -0.00   0.10     0.09   0.08  -0.14
   4   6    -0.03  -0.09   0.04     0.01   0.05   0.01     0.04  -0.01   0.02
   5   6    -0.02   0.01  -0.07     0.04   0.07  -0.03     0.01  -0.09   0.11
   6   6    -0.03   0.09  -0.18     0.06   0.09  -0.04     0.00  -0.08   0.09
   7   8    -0.01   0.06  -0.08     0.04   0.08  -0.06     0.00  -0.15   0.19
   8   6     0.00  -0.02   0.02     0.01   0.04  -0.01     0.03  -0.05   0.07
   9   6     0.01   0.00   0.01    -0.01  -0.02   0.05     0.04   0.02  -0.01
  10   6     0.02  -0.03   0.04    -0.02  -0.07   0.10     0.06   0.13  -0.13
  11   6     0.02  -0.08   0.06    -0.02  -0.02   0.06     0.05   0.11  -0.11
  12   6     0.02  -0.04   0.03    -0.02  -0.02   0.06     0.05   0.10  -0.10
  13   6     0.02   0.04  -0.07    -0.03  -0.13   0.17     0.05   0.16  -0.16
  14   6     0.02   0.11  -0.13    -0.04  -0.10   0.14     0.03   0.04  -0.03
  15   6     0.02   0.08  -0.10    -0.02   0.04  -0.00     0.01  -0.14   0.17
  16   6     0.01  -0.00  -0.00    -0.00   0.15  -0.11     0.01  -0.17   0.20
  17   6     0.02  -0.06   0.05    -0.00   0.10  -0.06     0.03  -0.03   0.06
  18   7     0.02  -0.12   0.11     0.00   0.15  -0.12     0.03  -0.04   0.06
  19   6     0.02  -0.08   0.11    -0.01   0.11  -0.12     0.02  -0.01   0.04
  20   6     0.01  -0.27   0.10    -0.01  -0.18  -0.13    -0.03  -0.01   0.03
  21   7     0.02  -0.20   0.12    -0.00  -0.32  -0.13    -0.04  -0.03  -0.02
  22   6     0.02   0.08   0.10    -0.01  -0.11  -0.12    -0.02  -0.03  -0.04
  23   7     0.02   0.12   0.11     0.00  -0.15  -0.12    -0.03  -0.06  -0.07
  24   6     0.02   0.06   0.05    -0.00  -0.10  -0.06    -0.03  -0.05  -0.05
  25   6     0.01  -0.00  -0.01    -0.01  -0.15  -0.11    -0.03  -0.16  -0.16
  26   6     0.02  -0.09  -0.10    -0.02  -0.05  -0.01    -0.04  -0.12  -0.13
  27   6     0.02  -0.11  -0.14    -0.04   0.09   0.13    -0.06   0.04   0.04
  28   6     0.02  -0.04  -0.07    -0.04   0.12   0.16    -0.06   0.14   0.13
  29   6     0.02   0.04   0.03    -0.02   0.02   0.06    -0.05   0.08   0.07
  30   6     0.02   0.08   0.07    -0.02   0.02   0.06    -0.05   0.09   0.09
  31   6     0.02   0.04   0.04    -0.02   0.07   0.10    -0.05   0.12   0.12
  32   6     0.01   0.00   0.01    -0.01   0.02   0.05    -0.04   0.03   0.03
  33   6     0.00   0.02   0.01     0.01  -0.04  -0.01    -0.03  -0.04  -0.05
  34   8    -0.01  -0.07  -0.08     0.04  -0.08  -0.06    -0.01  -0.13  -0.15
  35   6    -0.02  -0.02  -0.07     0.03  -0.07  -0.03    -0.01  -0.08  -0.09
  36   6    -0.03  -0.09  -0.18     0.05  -0.08  -0.03    -0.01  -0.07  -0.07
  37   6    -0.05  -0.03  -0.16     0.04  -0.04   0.04    -0.05   0.03   0.06
  38   6    -0.06   0.11  -0.04     0.00   0.01   0.11    -0.08   0.10   0.15
  39   6    -0.05   0.17   0.06    -0.01   0.01   0.10    -0.07   0.06   0.10
  40   6    -0.03   0.09   0.03     0.01  -0.05   0.01    -0.03  -0.02  -0.02
  41   6    -0.00   0.10   0.07     0.00  -0.05  -0.01    -0.03  -0.02  -0.02
  42   6     0.01   0.11   0.10    -0.00  -0.06  -0.02    -0.03   0.01   0.01
  43   6     0.02   0.27   0.10    -0.01   0.18  -0.13     0.03   0.02  -0.03
  44   7     0.02   0.20   0.11    -0.01   0.31  -0.13     0.05   0.03   0.01
  45   6     0.01  -0.11   0.10    -0.01   0.06  -0.02     0.04   0.03  -0.02
  46   6    -0.00  -0.10   0.08     0.00   0.05  -0.01     0.04  -0.01   0.02
  47   1    -0.01   0.03  -0.07     0.02   0.02   0.01     0.01   0.02  -0.04
  48   1    -0.02  -0.04  -0.01    -0.00  -0.01   0.05     0.04   0.07  -0.10
  49   1    -0.02  -0.08   0.04    -0.01  -0.02   0.05     0.04   0.04  -0.06
  50   1    -0.01   0.05  -0.08     0.02   0.03  -0.02    -0.01  -0.04   0.05
  51   1     0.00   0.01  -0.01    -0.00  -0.01   0.02     0.01  -0.00   0.00
  52   1     0.01  -0.00   0.01    -0.01  -0.04   0.05     0.02   0.06  -0.06
  53   1     0.01   0.02  -0.03    -0.01  -0.07   0.08     0.02   0.08  -0.09
  54   1     0.01   0.05  -0.06    -0.01  -0.05   0.07     0.01   0.02  -0.02
  55   1     0.01   0.04  -0.04    -0.01   0.02  -0.01    -0.00  -0.07   0.08
  56   1     0.00  -0.00   0.01     0.00   0.07  -0.06    -0.00  -0.09   0.10
  57   1     0.00  -0.13   0.02     0.00  -0.10  -0.04    -0.02  -0.01   0.02
  58   1     0.00   0.00   0.00     0.00  -0.07  -0.06    -0.00  -0.08  -0.07
  59   1     0.01  -0.04  -0.05    -0.01  -0.02  -0.01    -0.01  -0.06  -0.06
  60   1     0.01  -0.05  -0.06    -0.02   0.05   0.06    -0.02   0.02   0.02
  61   1     0.01  -0.02  -0.03    -0.01   0.07   0.08    -0.02   0.07   0.07
  62   1     0.01   0.00   0.01    -0.01   0.04   0.05    -0.02   0.05   0.06
  63   1     0.00  -0.01  -0.01    -0.00   0.01   0.02    -0.01   0.01   0.01
  64   1    -0.01  -0.05  -0.08     0.02  -0.03  -0.02     0.00  -0.03  -0.04
  65   1    -0.02  -0.02  -0.07     0.01  -0.01   0.01    -0.02   0.02   0.03
  66   1    -0.02   0.05  -0.01    -0.01   0.01   0.05    -0.03   0.05   0.08
  67   1    -0.02   0.08   0.04    -0.01   0.02   0.05    -0.03   0.03   0.05
  68   1     0.00   0.13   0.02     0.00   0.09  -0.04     0.02   0.01  -0.02
                     10                     11                     12
                        a                      a                      a 
 Frequencies --    91.3033               109.6197               112.2990
 Red. masses --    11.5661                10.8604                11.1260
 Frc consts  --     0.0000                 0.0000                 0.0000
 IR Inten    --     2.3839                 1.7093                 0.3442
 Raman Activ --     0.0000                 0.0000                 0.0000
 Depolar     --     0.0000                 0.0000                 0.0000
 Atom AN      X      Y      Z        X      Y      Z        X      Y      Z
   1   6     0.02  -0.01   0.09    -0.12  -0.19   0.06    -0.13  -0.05  -0.06
   2   6    -0.02  -0.06   0.17    -0.04  -0.11  -0.09    -0.10  -0.11  -0.03
   3   6    -0.05  -0.03   0.12     0.07   0.01  -0.20    -0.04  -0.11  -0.00
   4   6    -0.02   0.00   0.00     0.07   0.05  -0.13    -0.03  -0.05   0.02
   5   6     0.02   0.05  -0.07     0.02   0.03  -0.05    -0.05   0.02  -0.02
   6   6     0.05   0.05  -0.05    -0.10  -0.09   0.06    -0.10   0.03  -0.06
   7   8     0.02   0.08  -0.15     0.05   0.09  -0.06    -0.03   0.08  -0.02
   8   6    -0.02   0.02  -0.06     0.09   0.08  -0.05     0.00   0.02   0.03
   9   6    -0.02  -0.00  -0.01     0.07   0.02  -0.01    -0.00   0.02   0.01
  10   6    -0.03  -0.07   0.07     0.05  -0.04   0.05    -0.00  -0.02   0.04
  11   6    -0.03  -0.08   0.09     0.05  -0.05   0.05    -0.00  -0.07   0.06
  12   6     0.01  -0.08   0.07    -0.00  -0.06   0.06    -0.06  -0.04   0.04
  13   6     0.06  -0.04   0.08    -0.07  -0.11   0.07    -0.16   0.01  -0.10
  14   6     0.12   0.02  -0.03    -0.11  -0.01   0.01    -0.25   0.10  -0.11
  15   6     0.13   0.05  -0.13    -0.09   0.15  -0.08    -0.26   0.09   0.03
  16   6     0.08  -0.00  -0.12    -0.04   0.17  -0.05    -0.17   0.03   0.17
  17   6     0.02  -0.06  -0.01     0.01   0.05   0.02    -0.07  -0.03   0.13
  18   7    -0.02  -0.08   0.00     0.05   0.06   0.04     0.00  -0.04   0.17
  19   6    -0.03  -0.07  -0.03     0.06   0.04   0.09     0.01   0.05   0.10
  20   6    -0.03   0.20  -0.03     0.06   0.07   0.09    -0.05   0.07   0.08
  21   7    -0.04   0.29  -0.04     0.07   0.01   0.11    -0.08   0.11  -0.01
  22   6    -0.03   0.06  -0.04     0.05  -0.05   0.11     0.01   0.04  -0.09
  23   7    -0.03   0.08  -0.00     0.04  -0.05   0.07     0.01  -0.06  -0.16
  24   6     0.00   0.05  -0.01    -0.02  -0.04   0.05     0.07  -0.04  -0.12
  25   6     0.06  -0.03  -0.14    -0.09  -0.16  -0.00     0.16  -0.02  -0.18
  26   6     0.10  -0.09  -0.16    -0.17  -0.16  -0.06     0.23   0.03  -0.06
  27   6     0.09  -0.03  -0.04    -0.18  -0.02  -0.03     0.22   0.09   0.10
  28   6     0.04   0.07   0.09    -0.11   0.10   0.03     0.14   0.05   0.13
  29   6    -0.01   0.10   0.09    -0.02   0.06   0.06     0.06  -0.01  -0.01
  30   6    -0.04   0.11   0.11     0.04   0.06   0.05     0.01  -0.04  -0.03
  31   6    -0.04   0.11   0.11     0.04   0.05   0.06     0.01   0.01  -0.00
  32   6    -0.03   0.02   0.00     0.06  -0.02  -0.00     0.02   0.02  -0.00
  33   6    -0.03  -0.03  -0.07     0.07  -0.07  -0.04     0.02  -0.00  -0.05
  34   8     0.01  -0.12  -0.19     0.03  -0.11  -0.06     0.04   0.04  -0.01
  35   6     0.01  -0.07  -0.10    -0.00  -0.03  -0.05     0.05   0.00  -0.01
  36   6     0.04  -0.06  -0.07    -0.12   0.08   0.04     0.08   0.04   0.06
  37   6    -0.00   0.03   0.10    -0.15   0.18   0.03     0.09   0.00   0.08
  38   6    -0.06   0.10   0.21    -0.06   0.13  -0.09     0.08  -0.07   0.02
  39   6    -0.07   0.06   0.15     0.05   0.02  -0.18     0.05  -0.10  -0.04
  40   6    -0.03   0.00   0.00     0.05  -0.04  -0.11     0.04  -0.06  -0.06
  41   6    -0.05   0.02  -0.00     0.09  -0.05  -0.06     0.02  -0.06  -0.09
  42   6    -0.05   0.07   0.05     0.07  -0.01   0.02    -0.00  -0.06  -0.10
  43   6    -0.03  -0.20  -0.02     0.05  -0.08   0.11     0.07   0.03  -0.06
  44   7    -0.03  -0.30  -0.04     0.05  -0.04   0.11     0.10   0.08   0.02
  45   6    -0.04  -0.06   0.04     0.08   0.02  -0.00     0.02  -0.06   0.11
  46   6    -0.04  -0.02  -0.01     0.10   0.07  -0.08     0.01  -0.04   0.07
  47   1     0.01  -0.01   0.04    -0.06  -0.09   0.05    -0.05  -0.02  -0.02
  48   1    -0.01  -0.03   0.08    -0.01  -0.04  -0.03    -0.03  -0.05  -0.01
  49   1    -0.03  -0.01   0.05     0.04   0.01  -0.09    -0.00  -0.04  -0.00
  50   1     0.03   0.02  -0.04    -0.05  -0.03   0.05    -0.04   0.03  -0.03
  51   1    -0.01   0.01  -0.01     0.02   0.00  -0.01     0.00   0.01  -0.01
  52   1    -0.01  -0.03   0.03     0.01  -0.02   0.03     0.00   0.00   0.01
  53   1     0.02  -0.01   0.05    -0.02  -0.07   0.03    -0.05  -0.00  -0.06
  54   1     0.05   0.01  -0.01    -0.04  -0.01   0.00    -0.09   0.05  -0.07
  55   1     0.05   0.03  -0.06    -0.04   0.07  -0.04    -0.09   0.04   0.01
  56   1     0.02   0.00  -0.06    -0.01   0.08  -0.03    -0.05   0.02   0.08
  57   1    -0.01   0.10  -0.00     0.02   0.04   0.03    -0.03   0.02   0.03
  58   1     0.02  -0.02  -0.06    -0.02  -0.08  -0.00     0.05  -0.01  -0.08
  59   1     0.04  -0.05  -0.08    -0.06  -0.08  -0.04     0.08   0.01  -0.03
  60   1     0.04  -0.02  -0.02    -0.07  -0.00  -0.02     0.08   0.04   0.06
  61   1     0.01   0.03   0.05    -0.03   0.06   0.01     0.04   0.02   0.07
  62   1    -0.02   0.05   0.05     0.01   0.02   0.03    -0.00   0.02   0.01
  63   1    -0.01  -0.01  -0.01     0.02  -0.00  -0.00     0.00   0.01   0.01
  64   1     0.03  -0.03  -0.05    -0.06   0.02   0.03     0.03   0.03   0.03
  65   1     0.00   0.02   0.04    -0.07   0.08   0.04     0.03   0.01   0.04
  66   1    -0.03   0.05   0.10    -0.02   0.05  -0.03     0.02  -0.03   0.01
  67   1    -0.04   0.02   0.06     0.04  -0.00  -0.08     0.01  -0.04  -0.02
  68   1    -0.01  -0.10  -0.00     0.01  -0.04   0.03     0.03  -0.00  -0.03
                     13                     14                     15
                        a                      a                      a 
 Frequencies --   119.3987               142.2805               144.7541
 Red. masses --    11.1094                10.3831                10.2897
 Frc consts  --     0.0000                 0.0000                 0.0000
 IR Inten    --     0.3375                 0.2882                 3.1056
 Raman Activ --     0.0000                 0.0000                 0.0000
 Depolar     --     0.0000                 0.0000                 0.0000
 Atom AN      X      Y      Z        X      Y      Z        X      Y      Z
   1   6     0.08   0.21  -0.05    -0.00   0.03  -0.13     0.01   0.06  -0.11
   2   6    -0.02   0.11   0.12     0.02  -0.00  -0.13     0.02   0.03  -0.08
   3   6    -0.12  -0.01   0.22     0.03  -0.10   0.02    -0.01  -0.07   0.05
   4   6    -0.11  -0.03   0.12     0.01  -0.11   0.13    -0.03  -0.11   0.12
   5   6    -0.06  -0.01   0.05    -0.01  -0.09   0.12    -0.03  -0.09   0.10
   6   6     0.05   0.13  -0.07    -0.03  -0.02   0.02    -0.02  -0.02   0.00
   7   8    -0.09  -0.07   0.07     0.01  -0.06   0.12    -0.02  -0.07   0.09
   8   6    -0.12  -0.06   0.06     0.04  -0.00   0.05    -0.00  -0.02   0.02
   9   6    -0.12  -0.04   0.04     0.08   0.17  -0.17     0.04   0.15  -0.17
  10   6    -0.09   0.03  -0.03     0.06   0.19  -0.19     0.03   0.16  -0.18
  11   6    -0.08   0.06  -0.06     0.03   0.03  -0.02     0.01   0.01  -0.02
  12   6    -0.06   0.07  -0.08     0.01   0.01   0.01    -0.00  -0.02   0.02
  13   6    -0.06   0.03  -0.05    -0.05  -0.15   0.15    -0.02  -0.13   0.13
  14   6    -0.07  -0.06   0.04    -0.08  -0.12   0.14    -0.01  -0.11   0.11
  15   6    -0.07  -0.10   0.07    -0.05   0.11  -0.06     0.01   0.07  -0.08
  16   6    -0.07  -0.04   0.00    -0.01   0.21  -0.14     0.02   0.13  -0.14
  17   6    -0.06   0.03  -0.07     0.01   0.09  -0.04     0.00   0.04  -0.04
  18   7    -0.06   0.03  -0.08     0.02   0.03   0.03    -0.00  -0.02   0.02
  19   6    -0.04  -0.05  -0.04     0.01  -0.04   0.03     0.00  -0.03   0.03
  20   6     0.04  -0.09  -0.02    -0.02  -0.06   0.02    -0.00   0.04   0.03
  21   7     0.06  -0.11   0.03    -0.03  -0.07  -0.01    -0.00   0.08   0.03
  22   6     0.05  -0.05   0.05    -0.01  -0.03  -0.02     0.00   0.04   0.03
  23   7     0.07   0.03   0.08    -0.02   0.03  -0.03    -0.00   0.02   0.02
  24   6     0.06   0.03   0.08    -0.01   0.08   0.02     0.01  -0.04  -0.05
  25   6     0.06  -0.05  -0.00     0.01   0.19   0.11     0.02  -0.17  -0.18
  26   6     0.06  -0.11  -0.07     0.05   0.11   0.06     0.01  -0.10  -0.11
  27   6     0.06  -0.06  -0.05     0.07  -0.09  -0.11    -0.01   0.12   0.12
  28   6     0.05   0.04   0.05     0.04  -0.14  -0.13    -0.02   0.17   0.17
  29   6     0.06   0.07   0.09    -0.01  -0.00  -0.02    -0.00   0.03   0.03
  30   6     0.09   0.06   0.06    -0.03   0.02   0.00     0.00  -0.00  -0.01
  31   6     0.09   0.03   0.03    -0.05   0.16   0.15     0.04  -0.18  -0.20
  32   6     0.12  -0.04  -0.04    -0.07   0.15   0.15     0.04  -0.18  -0.21
  33   6     0.13  -0.07  -0.06    -0.04   0.01  -0.04    -0.00   0.02   0.02
  34   8     0.10  -0.08  -0.07    -0.01  -0.04  -0.10    -0.03   0.08   0.10
  35   6     0.06  -0.01  -0.05     0.01  -0.07  -0.10    -0.03   0.10   0.11
  36   6    -0.06   0.13   0.07     0.03  -0.02  -0.02    -0.02   0.02   0.01
  37   6    -0.09   0.22   0.05     0.01   0.02   0.11     0.02  -0.07  -0.12
  38   6     0.01   0.11  -0.13    -0.02  -0.00   0.12     0.02  -0.04  -0.10
  39   6     0.12  -0.01  -0.23    -0.03  -0.08  -0.00    -0.01   0.08   0.05
  40   6     0.11  -0.04  -0.13    -0.01  -0.09  -0.10    -0.03   0.12   0.13
  41   6     0.14  -0.05  -0.08    -0.04  -0.06  -0.09    -0.02   0.09   0.10
  42   6     0.10   0.02   0.02    -0.03  -0.02  -0.05    -0.00   0.05   0.06
  43   6    -0.03  -0.10   0.03     0.02  -0.07  -0.02     0.00  -0.03   0.03
  44   7    -0.06  -0.12  -0.02     0.03  -0.09   0.02    -0.00  -0.07   0.03
  45   6    -0.09   0.02  -0.02     0.03  -0.02   0.06    -0.00  -0.04   0.05
  46   6    -0.13  -0.04   0.07     0.03  -0.07   0.11    -0.01  -0.08   0.09
  47   1     0.05   0.09  -0.05    -0.00   0.03  -0.07     0.01   0.04  -0.06
  48   1    -0.00   0.04   0.05     0.01   0.01  -0.07     0.01   0.03  -0.05
  49   1    -0.06  -0.02   0.10     0.02  -0.04   0.00    -0.00  -0.02   0.02
  50   1     0.04   0.05  -0.05    -0.02   0.00   0.00    -0.00   0.00  -0.01
  51   1    -0.04  -0.01   0.02     0.03   0.08  -0.09     0.02   0.08  -0.09
  52   1    -0.02   0.02  -0.02     0.02   0.09  -0.10     0.02   0.08  -0.09
  53   1    -0.02   0.02  -0.02    -0.02  -0.09   0.07    -0.01  -0.07   0.07
  54   1    -0.02  -0.03   0.03    -0.03  -0.07   0.08    -0.01  -0.06   0.06
  55   1    -0.02  -0.05   0.04    -0.02   0.05  -0.03     0.00   0.04  -0.04
  56   1    -0.02  -0.02   0.01     0.00   0.10  -0.07     0.01   0.07  -0.07
  57   1     0.02  -0.02  -0.02    -0.01  -0.02   0.01    -0.00   0.02   0.01
  58   1     0.02  -0.02  -0.01    -0.00   0.09   0.05     0.01  -0.08  -0.08
  59   1     0.02  -0.06  -0.05     0.02   0.05   0.03     0.01  -0.06  -0.06
  60   1     0.02  -0.03  -0.03     0.03  -0.06  -0.06    -0.01   0.07   0.07
  61   1     0.02   0.02   0.02     0.02  -0.08  -0.07    -0.01   0.09   0.09
  62   1     0.02   0.02   0.02    -0.02   0.08   0.08     0.02  -0.09  -0.10
  63   1     0.04  -0.01  -0.02    -0.03   0.07   0.08     0.02  -0.09  -0.10
  64   1    -0.04   0.05   0.06     0.02   0.00  -0.01    -0.00  -0.00  -0.00
  65   1    -0.05   0.10   0.05     0.00   0.03   0.06     0.01  -0.05  -0.07
  66   1     0.00   0.04  -0.05    -0.01   0.01   0.06     0.02  -0.03  -0.06
  67   1     0.06  -0.02  -0.11    -0.02  -0.03   0.00    -0.00   0.03   0.02
  68   1    -0.02  -0.03   0.02     0.01  -0.02  -0.01    -0.00  -0.02   0.01
                     16                     17                     18
                        a                      a                      a 
 Frequencies --   155.9668               164.4326               166.2094
 Red. masses --    10.7466                11.4455                11.7336
 Frc consts  --     0.0000                 0.0000                 0.0000
 IR Inten    --     4.8539                 0.0041                 1.4430
 Raman Activ --     0.0000                 0.0000                 0.0000
 Depolar     --     0.0000                 0.0000                 0.0000
 Atom AN      X      Y      Z        X      Y      Z        X      Y      Z
   1   6    -0.06  -0.00  -0.13    -0.05  -0.09  -0.05     0.02   0.03   0.13
   2   6    -0.08  -0.19   0.05    -0.02  -0.17  -0.01     0.05   0.18  -0.02
   3   6    -0.03  -0.21   0.11     0.07  -0.10  -0.04     0.02   0.20  -0.08
   4   6     0.01  -0.08   0.07     0.11   0.03  -0.04    -0.01   0.12  -0.06
   5   6    -0.00   0.01  -0.01     0.07   0.06  -0.03    -0.01   0.05   0.01
   6   6    -0.03   0.11  -0.17    -0.01   0.05  -0.07    -0.00  -0.05   0.16
   7   8     0.01   0.01   0.05     0.09   0.05   0.04    -0.01   0.05  -0.01
   8   6     0.03  -0.04   0.09     0.10   0.01   0.06    -0.03   0.07  -0.04
   9   6     0.02  -0.07   0.12     0.06  -0.12   0.17    -0.04   0.04  -0.01
  10   6     0.03  -0.01   0.04     0.04  -0.05   0.10    -0.04  -0.00   0.03
  11   6     0.06   0.05  -0.06     0.06   0.10  -0.06    -0.04  -0.02   0.05
  12   6     0.03   0.10  -0.11     0.03   0.14  -0.10    -0.04  -0.05   0.07
  13   6    -0.04   0.03  -0.10    -0.02   0.07  -0.06    -0.08  -0.04   0.02
  14   6    -0.11  -0.05   0.04    -0.08  -0.03   0.08    -0.10   0.04  -0.04
  15   6    -0.11  -0.05   0.11    -0.08  -0.03   0.14    -0.10   0.07  -0.04
  16   6    -0.04   0.06   0.04    -0.02   0.10   0.04    -0.07   0.02   0.04
  17   6     0.03   0.11  -0.07     0.03   0.16  -0.07    -0.03  -0.04   0.07
  18   7     0.05   0.11  -0.05     0.04   0.16  -0.06    -0.02  -0.04   0.06
  19   6     0.05   0.06  -0.04     0.02  -0.06  -0.00    -0.02  -0.17   0.05
  20   6     0.06   0.18  -0.04     0.01  -0.16  -0.01    -0.01  -0.23   0.04
  21   7     0.06   0.15  -0.05     0.01  -0.23  -0.01    -0.03  -0.35  -0.00
  22   6     0.05  -0.05  -0.04    -0.02  -0.06   0.00     0.02  -0.17  -0.05
  23   7     0.05  -0.11  -0.05    -0.04   0.16   0.06     0.02  -0.04  -0.06
  24   6     0.03  -0.12  -0.07    -0.03   0.16   0.07     0.03  -0.04  -0.07
  25   6    -0.05  -0.07   0.04     0.02   0.11  -0.03     0.07   0.02  -0.04
  26   6    -0.12   0.05   0.12     0.08  -0.02  -0.13     0.10   0.07   0.04
  27   6    -0.12   0.06   0.05     0.08  -0.04  -0.09     0.10   0.05   0.04
  28   6    -0.05  -0.03  -0.09     0.02   0.06   0.05     0.08  -0.04  -0.02
  29   6     0.03  -0.10  -0.11    -0.03   0.14   0.10     0.04  -0.05  -0.07
  30   6     0.06  -0.05  -0.06    -0.06   0.10   0.06     0.04  -0.02  -0.05
  31   6     0.04   0.00   0.03    -0.04  -0.04  -0.09     0.04  -0.00  -0.03
  32   6     0.02   0.07   0.11    -0.06  -0.10  -0.16     0.04   0.04   0.01
  33   6     0.03   0.04   0.10    -0.10   0.01  -0.07     0.03   0.07   0.04
  34   8     0.01  -0.01   0.06    -0.09   0.05  -0.04     0.01   0.05   0.01
  35   6    -0.00  -0.00  -0.00    -0.07   0.06   0.02     0.00   0.05  -0.01
  36   6    -0.03  -0.11  -0.17     0.01   0.05   0.06     0.00  -0.05  -0.16
  37   6    -0.06  -0.00  -0.14     0.05  -0.08   0.05    -0.02   0.02  -0.13
  38   6    -0.08   0.19   0.05     0.02  -0.16   0.02    -0.05   0.18   0.02
  39   6    -0.03   0.21   0.11    -0.07  -0.10   0.04    -0.02   0.21   0.08
  40   6     0.01   0.09   0.07    -0.11   0.03   0.03     0.01   0.13   0.06
  41   6     0.05   0.05   0.08    -0.12   0.05   0.00     0.03   0.09   0.06
  42   6     0.06  -0.03  -0.01    -0.06   0.10   0.04     0.03   0.02  -0.02
  43   6     0.06  -0.17  -0.03    -0.01  -0.16   0.01     0.02  -0.23  -0.04
  44   7     0.05  -0.14  -0.05    -0.01  -0.23   0.02     0.03  -0.35   0.00
  45   6     0.06   0.03  -0.01     0.06   0.10  -0.05    -0.03   0.02   0.02
  46   6     0.05  -0.05   0.07     0.12   0.06  -0.01    -0.03   0.09  -0.05
  47   1    -0.02   0.02  -0.07    -0.03  -0.03  -0.01     0.01  -0.01   0.07
  48   1    -0.03  -0.09   0.03    -0.02  -0.08   0.01     0.02   0.07  -0.02
  49   1    -0.01  -0.08   0.05     0.04  -0.05  -0.01     0.00   0.07  -0.03
  50   1    -0.01   0.07  -0.08    -0.02   0.04  -0.02    -0.00  -0.05   0.08
  51   1     0.01  -0.04   0.05     0.02  -0.07   0.08    -0.01   0.01  -0.00
  52   1     0.01  -0.00   0.02     0.00  -0.04   0.05    -0.01  -0.01   0.02
  53   1    -0.01   0.00  -0.05    -0.01   0.02  -0.03    -0.02  -0.02   0.00
  54   1    -0.04  -0.04   0.03    -0.03  -0.04   0.05    -0.03   0.02  -0.03
  55   1    -0.05  -0.04   0.07    -0.04  -0.03   0.08    -0.03   0.04  -0.03
  56   1    -0.01   0.02   0.03    -0.01   0.03   0.03    -0.02   0.02   0.02
  57   1     0.02   0.09  -0.01     0.00  -0.04  -0.00    -0.01  -0.05   0.01
  58   1    -0.01  -0.03   0.03     0.01   0.04  -0.02     0.02   0.01  -0.02
  59   1    -0.05   0.04   0.07     0.03  -0.03  -0.07     0.03   0.04   0.03
  60   1    -0.05   0.04   0.03     0.03  -0.04  -0.05     0.03   0.02   0.03
  61   1    -0.01   0.00  -0.04     0.01   0.01   0.02     0.02  -0.02  -0.00
  62   1     0.01  -0.00   0.01    -0.01  -0.03  -0.04     0.01  -0.01  -0.02
  63   1     0.01   0.03   0.04    -0.02  -0.07  -0.07     0.01   0.01   0.00
  64   1    -0.01  -0.07  -0.08     0.02   0.03   0.02     0.00  -0.05  -0.08
  65   1    -0.02  -0.02  -0.07     0.03  -0.03   0.02    -0.01  -0.01  -0.07
  66   1    -0.03   0.09   0.03     0.01  -0.08  -0.01    -0.02   0.07   0.01
  67   1    -0.01   0.09   0.05    -0.04  -0.05   0.01    -0.00   0.07   0.03
  68   1     0.02  -0.09  -0.01    -0.00  -0.03   0.00     0.01  -0.05  -0.01
                     19                     20                     21
                        a                      a                      a 
 Frequencies --   209.2407               211.8052               253.9333
 Red. masses --    11.4598                11.2772                11.3532
 Frc consts  --     0.0000                 0.0000                 0.0000
 IR Inten    --     4.2057                26.5378                 0.0811
 Raman Activ --     0.0000                 0.0000                 0.0000
 Depolar     --     0.0000                 0.0000                 0.0000
 Atom AN      X      Y      Z        X      Y      Z        X      Y      Z
   1   6     0.03   0.05   0.06     0.02   0.14   0.05     0.01   0.03   0.08
   2   6    -0.02   0.06   0.11    -0.02   0.14   0.08    -0.04   0.00   0.14
   3   6    -0.08   0.09   0.02    -0.10   0.09   0.10    -0.05   0.11  -0.03
   4   6    -0.07   0.05  -0.09    -0.10  -0.00   0.02    -0.03   0.09  -0.15
   5   6    -0.05   0.02  -0.07    -0.10  -0.01   0.03    -0.04   0.05  -0.10
   6   6     0.03   0.02  -0.04    -0.02   0.02   0.04     0.03   0.07  -0.10
   7   8    -0.08  -0.05  -0.02    -0.12   0.01   0.04    -0.09  -0.08   0.08
   8   6    -0.08  -0.04  -0.02    -0.07   0.04  -0.01    -0.06  -0.06   0.07
   9   6    -0.09  -0.11   0.10    -0.04   0.10  -0.00    -0.04  -0.07   0.13
  10   6    -0.00  -0.02  -0.01     0.07   0.03   0.05     0.08   0.10  -0.07
  11   6     0.03   0.07  -0.15     0.10  -0.08   0.02     0.11   0.07  -0.14
  12   6     0.03   0.07  -0.15     0.09  -0.14   0.04     0.09   0.02  -0.11
  13   6     0.01  -0.05  -0.03    -0.04  -0.15  -0.09     0.01  -0.11  -0.05
  14   6     0.01  -0.15   0.07    -0.15  -0.01  -0.15    -0.04  -0.14   0.02
  15   6     0.02  -0.04  -0.05    -0.15   0.02  -0.06    -0.03   0.03  -0.08
  16   6     0.03   0.07  -0.15    -0.03  -0.03   0.09     0.04   0.07  -0.07
  17   6     0.02   0.05  -0.12     0.09  -0.11   0.06     0.08  -0.03  -0.01
  18   7     0.03  -0.05   0.01     0.14  -0.05  -0.02     0.08  -0.17   0.15
  19   6     0.09  -0.10   0.20     0.14   0.03  -0.08     0.07  -0.05   0.13
  20   6     0.10  -0.08   0.21     0.15   0.04  -0.08    -0.09   0.06   0.09
  21   7     0.09   0.03   0.23     0.16   0.00  -0.09    -0.15   0.04  -0.06
  22   6     0.09   0.10   0.20     0.14  -0.03  -0.07    -0.07  -0.06  -0.13
  23   7     0.03   0.05   0.00     0.14   0.05  -0.02    -0.08  -0.17  -0.15
  24   6     0.02  -0.05  -0.12     0.09   0.11   0.06    -0.08  -0.03   0.01
  25   6     0.03  -0.08  -0.16    -0.04   0.04   0.10    -0.04   0.07   0.07
  26   6     0.02   0.03  -0.05    -0.16  -0.02  -0.06     0.03   0.03   0.08
  27   6     0.01   0.15   0.07    -0.15   0.01  -0.15     0.04  -0.14  -0.02
  28   6     0.01   0.06  -0.02    -0.05   0.14  -0.10    -0.01  -0.11   0.05
  29   6     0.03  -0.07  -0.15     0.09   0.14   0.04    -0.09   0.03   0.11
  30   6     0.03  -0.07  -0.15     0.10   0.08   0.02    -0.11   0.07   0.14
  31   6    -0.00   0.01  -0.01     0.06  -0.03   0.05    -0.08   0.10   0.07
  32   6    -0.08   0.11   0.09    -0.04  -0.09  -0.00     0.04  -0.07  -0.13
  33   6    -0.08   0.04  -0.02    -0.07  -0.04  -0.01     0.06  -0.06  -0.07
  34   8    -0.08   0.06  -0.02    -0.12  -0.01   0.04     0.09  -0.08  -0.08
  35   6    -0.05  -0.02  -0.07    -0.10   0.01   0.03     0.04   0.05   0.10
  36   6     0.03  -0.02  -0.04    -0.02  -0.02   0.04    -0.03   0.07   0.10
  37   6     0.03  -0.05   0.06     0.02  -0.14   0.05    -0.01   0.03  -0.08
  38   6    -0.02  -0.06   0.11    -0.02  -0.14   0.08     0.04   0.00  -0.14
  39   6    -0.08  -0.09   0.02    -0.10  -0.09   0.10     0.05   0.11   0.03
  40   6    -0.07  -0.05  -0.09    -0.10   0.00   0.02     0.03   0.09   0.15
  41   6    -0.06  -0.03  -0.09    -0.06  -0.01  -0.02     0.02   0.03   0.07
  42   6     0.02  -0.03  -0.10     0.09   0.03  -0.02    -0.08  -0.02   0.04
  43   6     0.10   0.08   0.21     0.15  -0.04  -0.08     0.09   0.06  -0.09
  44   7     0.09  -0.02   0.24     0.16  -0.01  -0.09     0.15   0.05   0.06
  45   6     0.02   0.02  -0.09     0.09  -0.03  -0.02     0.08  -0.02  -0.04
  46   6    -0.06   0.03  -0.09    -0.06   0.01  -0.02    -0.02   0.02  -0.07
  47   1     0.02   0.01   0.03     0.02   0.05   0.01     0.01  -0.01   0.05
  48   1    -0.01   0.01   0.06    -0.00   0.06   0.02    -0.02  -0.02   0.09
  49   1    -0.04   0.03   0.02    -0.05   0.04   0.04    -0.03   0.04  -0.00
  50   1     0.03  -0.01  -0.02     0.01  -0.01   0.01     0.03   0.01  -0.04
  51   1    -0.04  -0.06   0.07    -0.02   0.05   0.00    -0.03  -0.04   0.08
  52   1     0.00  -0.01   0.01     0.04   0.02   0.03     0.04   0.06  -0.03
  53   1     0.00  -0.03   0.00    -0.01  -0.07  -0.05     0.00  -0.06  -0.02
  54   1    -0.00  -0.08   0.06    -0.06   0.02  -0.08    -0.03  -0.07   0.03
  55   1     0.00  -0.02  -0.01    -0.06   0.03  -0.03    -0.02   0.03  -0.03
  56   1     0.01   0.03  -0.06    -0.01   0.01   0.06     0.01   0.04  -0.02
  57   1     0.03  -0.03   0.06     0.04   0.01  -0.02    -0.06   0.03   0.06
  58   1     0.01  -0.03  -0.06    -0.01  -0.01   0.06    -0.01   0.04   0.02
  59   1     0.01   0.01  -0.01    -0.07  -0.03  -0.02     0.02   0.03   0.04
  60   1    -0.00   0.08   0.06    -0.06  -0.02  -0.08     0.03  -0.08  -0.03
  61   1     0.00   0.03   0.01    -0.01   0.07  -0.06    -0.00  -0.06   0.01
  62   1     0.00   0.01   0.01     0.04  -0.02   0.03    -0.04   0.06   0.03
  63   1    -0.04   0.06   0.07    -0.02  -0.05   0.00     0.02  -0.04  -0.08
  64   1     0.03   0.01  -0.02     0.01   0.01   0.01    -0.03   0.02   0.04
  65   1     0.02  -0.01   0.03     0.02  -0.05   0.01    -0.01  -0.01  -0.05
  66   1    -0.01  -0.01   0.06    -0.00  -0.06   0.02     0.02  -0.02  -0.09
  67   1    -0.04  -0.03   0.02    -0.05  -0.04   0.04     0.03   0.04   0.00
  68   1     0.03   0.03   0.06     0.04  -0.01  -0.02     0.05   0.03  -0.06
                     22                     23                     24
                        a                      a                      a 
 Frequencies --   261.5611               262.1664               278.6566
 Red. masses --    11.7744                11.7844                10.9684
 Frc consts  --     0.0000                 0.0000                 0.0000
 IR Inten    --     1.4239                 4.1698                 0.1581
 Raman Activ --     0.0000                 0.0000                 0.0000
 Depolar     --     0.0000                 0.0000                 0.0000
 Atom AN      X      Y      Z        X      Y      Z        X      Y      Z
   1   6     0.01   0.04  -0.05     0.02   0.03  -0.10    -0.02  -0.12   0.03
   2   6    -0.01  -0.03   0.02    -0.06  -0.18   0.15    -0.02  -0.12   0.04
   3   6     0.00  -0.04   0.04     0.00  -0.05   0.01     0.06   0.05  -0.14
   4   6     0.02   0.01   0.00     0.06   0.11  -0.13     0.06   0.09  -0.09
   5   6    -0.00  -0.02   0.05     0.02  -0.02   0.02     0.08   0.07  -0.09
   6   6    -0.00   0.02  -0.01     0.05   0.12  -0.16     0.05   0.08  -0.13
   7   8    -0.01  -0.05   0.10    -0.06  -0.28   0.33     0.03  -0.11   0.07
   8   6     0.02   0.04  -0.01     0.02  -0.04   0.04    -0.02  -0.13   0.10
   9   6     0.02   0.04  -0.01     0.02  -0.01   0.00    -0.03  -0.06  -0.05
  10   6     0.02   0.01   0.02     0.02   0.10  -0.12    -0.10   0.07  -0.17
  11   6     0.02   0.00   0.00     0.01   0.08  -0.08    -0.16   0.03   0.03
  12   6     0.02  -0.08   0.07    -0.02  -0.14   0.16    -0.16   0.06   0.05
  13   6    -0.01  -0.07   0.03    -0.01  -0.13   0.18    -0.03   0.11   0.14
  14   6    -0.02   0.05  -0.07     0.03   0.11  -0.09     0.07   0.09   0.10
  15   6    -0.02   0.04  -0.03     0.03   0.14  -0.12     0.07   0.04   0.02
  16   6    -0.01  -0.05   0.08    -0.01  -0.12   0.14    -0.06  -0.02  -0.01
  17   6     0.03  -0.05   0.06    -0.02  -0.14   0.17    -0.15   0.02   0.03
  18   7     0.02   0.06  -0.07    -0.01   0.06  -0.04    -0.12   0.00   0.06
  19   6     0.01  -0.00  -0.06    -0.01   0.07  -0.02    -0.08  -0.00   0.04
  20   6     0.04  -0.05  -0.06     0.01   0.02  -0.01    -0.01   0.02   0.05
  21   7     0.06  -0.01  -0.00     0.01  -0.05   0.03    -0.01  -0.05   0.04
  22   6     0.01   0.06   0.05    -0.02  -0.04   0.04     0.08  -0.01  -0.03
  23   7    -0.01   0.09   0.08    -0.02   0.01   0.04     0.12  -0.01  -0.06
  24   6     0.01  -0.15  -0.18    -0.04   0.04   0.05     0.15   0.01  -0.03
  25   6     0.01  -0.13  -0.17    -0.00   0.03   0.01     0.06  -0.02   0.01
  26   6    -0.01   0.13   0.11     0.04  -0.05  -0.04    -0.07   0.04  -0.02
  27   6    -0.01   0.12   0.11     0.04  -0.02   0.01    -0.07   0.09  -0.10
  28   6     0.01  -0.14  -0.16     0.00   0.02   0.08     0.03   0.11  -0.14
  29   6     0.01  -0.16  -0.18    -0.03   0.01   0.03     0.15   0.06  -0.05
  30   6    -0.02   0.06   0.06    -0.02  -0.04  -0.04     0.16   0.02  -0.04
  31   6    -0.03   0.08   0.08    -0.01  -0.05  -0.08     0.10   0.07   0.17
  32   6    -0.03   0.01   0.01    -0.01   0.04   0.01     0.03  -0.06   0.05
  33   6    -0.03  -0.00  -0.01    -0.01   0.05   0.03     0.02  -0.14  -0.11
  34   8     0.05  -0.26  -0.32    -0.02   0.12   0.10    -0.03  -0.11  -0.07
  35   6    -0.01  -0.03  -0.05     0.01  -0.01  -0.03    -0.08   0.08   0.09
  36   6    -0.04   0.11   0.14     0.03  -0.05  -0.09    -0.05   0.08   0.13
  37   6    -0.02   0.05   0.12     0.01   0.01  -0.02     0.02  -0.12  -0.04
  38   6     0.06  -0.16  -0.14    -0.03   0.08   0.07     0.02  -0.12  -0.04
  39   6    -0.00  -0.07  -0.04     0.00  -0.01  -0.03    -0.06   0.05   0.15
  40   6    -0.06   0.10   0.11     0.02  -0.05  -0.08    -0.06   0.10   0.09
  41   6    -0.07   0.19   0.21     0.01  -0.04  -0.06     0.03  -0.04  -0.07
  42   6    -0.04   0.19   0.21    -0.01  -0.04  -0.04     0.14  -0.04  -0.11
  43   6    -0.03  -0.01   0.04    -0.03  -0.05   0.04     0.01   0.01  -0.04
  44   7    -0.05  -0.05  -0.02    -0.05   0.02   0.01     0.01  -0.05  -0.04
  45   6     0.03   0.07  -0.08     0.02   0.18  -0.20    -0.14  -0.03   0.10
  46   6     0.04   0.07  -0.07     0.06   0.17  -0.21    -0.03  -0.03   0.07
  47   1     0.00   0.03  -0.03     0.01   0.03  -0.05    -0.02  -0.07   0.05
  48   1    -0.01  -0.02   0.01    -0.04  -0.10   0.10    -0.02  -0.07   0.05
  49   1    -0.00  -0.02   0.02     0.00  -0.03   0.01     0.03   0.02  -0.06
  50   1    -0.00   0.01  -0.01     0.02   0.06  -0.07     0.01   0.04  -0.04
  51   1     0.01   0.00   0.00     0.00  -0.03   0.03     0.00  -0.01  -0.04
  52   1     0.01  -0.01   0.02     0.00   0.03  -0.04    -0.04   0.05  -0.11
  53   1    -0.00  -0.03   0.01    -0.00  -0.05   0.07    -0.01   0.05   0.07
  54   1    -0.01   0.04  -0.05     0.02   0.08  -0.08     0.04   0.03   0.03
  55   1    -0.01   0.03  -0.02     0.02   0.10  -0.09     0.04   0.01  -0.01
  56   1    -0.00  -0.01   0.04    -0.00  -0.05   0.05    -0.02  -0.03  -0.03
  57   1     0.02  -0.02  -0.02     0.01   0.01  -0.01     0.01   0.02   0.00
  58   1     0.00  -0.05  -0.06    -0.00   0.02  -0.00     0.02  -0.03   0.02
  59   1    -0.01   0.09   0.09     0.02  -0.03  -0.03    -0.04   0.01   0.01
  60   1    -0.01   0.09   0.09     0.02  -0.02  -0.00    -0.04   0.03  -0.04
  61   1     0.00  -0.05  -0.06    -0.00   0.00   0.04     0.01   0.05  -0.07
  62   1    -0.00   0.01   0.02    -0.00  -0.02  -0.04     0.04   0.06   0.12
  63   1    -0.00  -0.03  -0.03    -0.00   0.02   0.01    -0.00  -0.01   0.04
  64   1    -0.01   0.06   0.06     0.01  -0.03  -0.04    -0.01   0.04   0.04
  65   1    -0.01   0.04   0.07     0.00   0.01  -0.00     0.02  -0.07  -0.05
  66   1     0.04  -0.09  -0.09    -0.02   0.05   0.05     0.02  -0.07  -0.05
  67   1     0.00  -0.03  -0.02     0.00  -0.00  -0.01    -0.03   0.02   0.06
  68   1    -0.02  -0.00   0.02    -0.01  -0.02   0.02    -0.01   0.01  -0.00
                     25                     26                     27
                        a                      a                      a 
 Frequencies --   279.8575               298.3695               304.7629
 Red. masses --    11.0490                11.4529                11.0770
 Frc consts  --     0.0000                 0.0000                 0.0000
 IR Inten    --     0.0152                27.6580                 0.2104
 Raman Activ --     0.0000                 0.0000                 0.0000
 Depolar     --     0.0000                 0.0000                 0.0000
 Atom AN      X      Y      Z        X      Y      Z        X      Y      Z
   1   6     0.04   0.07  -0.13    -0.03   0.06  -0.07    -0.04  -0.02   0.11
   2   6     0.01   0.04  -0.07     0.01  -0.00  -0.06    -0.00  -0.00   0.06
   3   6    -0.08  -0.14   0.14     0.05  -0.08   0.10     0.06   0.11  -0.08
   4   6    -0.07  -0.13   0.09     0.07   0.03   0.09     0.04   0.06  -0.03
   5   6    -0.06  -0.15   0.10     0.03   0.03   0.13     0.01   0.11  -0.05
   6   6    -0.03  -0.13   0.08    -0.05   0.01   0.12     0.01   0.12  -0.05
   7   8    -0.01  -0.01  -0.09     0.07   0.09   0.06    -0.01   0.04   0.10
   8   6     0.02   0.09  -0.19     0.07   0.14  -0.05    -0.01  -0.05   0.17
   9   6    -0.00  -0.01  -0.08     0.02  -0.01   0.09     0.04   0.13  -0.01
  10   6    -0.03  -0.16   0.09    -0.03  -0.01   0.08     0.06   0.11   0.00
  11   6    -0.01  -0.01  -0.02     0.01   0.11  -0.10     0.06  -0.13   0.13
  12   6    -0.05  -0.03   0.04     0.04   0.00  -0.03     0.10  -0.08   0.01
  13   6     0.01   0.03   0.05    -0.02  -0.08  -0.00     0.00  -0.07  -0.13
  14   6     0.07   0.06  -0.02    -0.05  -0.04  -0.02    -0.06  -0.04  -0.12
  15   6     0.06   0.00   0.01    -0.05   0.03  -0.08    -0.07  -0.10   0.01
  16   6     0.00  -0.05   0.03    -0.00  -0.02   0.01     0.04  -0.02   0.00
  17   6    -0.05   0.02   0.01     0.04  -0.06   0.02     0.10  -0.01  -0.06
  18   7    -0.01   0.14  -0.08    -0.01  -0.09   0.01     0.05   0.04  -0.14
  19   6     0.04   0.15   0.09    -0.06  -0.28  -0.04     0.01   0.00  -0.17
  20   6     0.06   0.12   0.10    -0.08  -0.21  -0.05     0.10   0.02  -0.14
  21   7     0.04  -0.08   0.12    -0.07   0.22  -0.05     0.16  -0.03   0.04
  22   6     0.04  -0.15   0.09    -0.06   0.28  -0.03    -0.00  -0.00   0.17
  23   7    -0.01  -0.14  -0.07    -0.02   0.09   0.02    -0.05   0.04   0.14
  24   6    -0.06  -0.02   0.01     0.03   0.06   0.02    -0.10  -0.01   0.06
  25   6    -0.00   0.05   0.02    -0.00   0.01   0.00    -0.04  -0.02  -0.00
  26   6     0.07  -0.00   0.02    -0.05  -0.03  -0.08     0.07  -0.10  -0.01
  27   6     0.07  -0.06  -0.01    -0.05   0.04  -0.02     0.06  -0.04   0.12
  28   6     0.01  -0.03   0.05    -0.02   0.08   0.00    -0.00  -0.07   0.13
  29   6    -0.06   0.03   0.04     0.04  -0.01  -0.03    -0.10  -0.08  -0.01
  30   6    -0.02   0.01  -0.02     0.00  -0.11  -0.10    -0.06  -0.13  -0.13
  31   6    -0.03   0.16   0.08    -0.03   0.01   0.08    -0.06   0.11  -0.01
  32   6    -0.00   0.01  -0.08     0.02   0.02   0.09    -0.04   0.13   0.00
  33   6     0.02  -0.09  -0.19     0.07  -0.14  -0.05     0.01  -0.05  -0.17
  34   8    -0.01   0.01  -0.10     0.07  -0.09   0.05     0.01   0.04  -0.10
  35   6    -0.05   0.15   0.09     0.03  -0.02   0.14    -0.01   0.11   0.04
  36   6    -0.03   0.13   0.07    -0.05  -0.00   0.12    -0.01   0.12   0.05
  37   6     0.04  -0.06  -0.13    -0.02  -0.07  -0.08     0.04  -0.02  -0.11
  38   6     0.01  -0.04  -0.07     0.01  -0.00  -0.06     0.00  -0.00  -0.06
  39   6    -0.08   0.14   0.13     0.05   0.09   0.10    -0.06   0.11   0.08
  40   6    -0.07   0.13   0.09     0.07  -0.03   0.09    -0.04   0.06   0.03
  41   6     0.00  -0.06  -0.11     0.08  -0.14  -0.09    -0.01  -0.10  -0.13
  42   6     0.01  -0.11  -0.14    -0.01  -0.13  -0.11    -0.03  -0.12  -0.11
  43   6     0.06  -0.12   0.11    -0.08   0.22  -0.05    -0.09   0.01   0.14
  44   7     0.04   0.08   0.12    -0.07  -0.22  -0.05    -0.15  -0.02  -0.04
  45   6     0.02   0.11  -0.15    -0.01   0.13  -0.11     0.03  -0.12   0.12
  46   6     0.00   0.06  -0.12     0.08   0.13  -0.09     0.00  -0.10   0.14
  47   1     0.04   0.06  -0.09    -0.01   0.04  -0.06    -0.03  -0.04   0.07
  48   1     0.02   0.05  -0.06     0.01   0.00  -0.04    -0.01  -0.02   0.04
  49   1    -0.03  -0.04   0.05     0.03  -0.06   0.04     0.02   0.04  -0.04
  50   1    -0.01  -0.05   0.03    -0.04   0.01   0.05     0.01   0.04  -0.02
  51   1    -0.00  -0.02  -0.00     0.00  -0.05   0.06     0.02   0.09  -0.05
  52   1    -0.02  -0.11   0.09    -0.02  -0.05   0.07     0.04   0.09  -0.04
  53   1     0.00   0.02   0.03    -0.01  -0.04  -0.00     0.00  -0.03  -0.06
  54   1     0.03   0.04  -0.02    -0.02  -0.02  -0.01    -0.02  -0.00  -0.05
  55   1     0.03  -0.00  -0.00    -0.02   0.03  -0.04    -0.04  -0.04   0.03
  56   1    -0.00  -0.03   0.00     0.00   0.01   0.01     0.01   0.01   0.02
  57   1     0.02   0.05   0.03    -0.03  -0.07  -0.01     0.05   0.01  -0.06
  58   1    -0.00   0.03  -0.00    -0.00  -0.01   0.01    -0.01   0.01  -0.02
  59   1     0.03   0.00   0.00    -0.02  -0.03  -0.04     0.04  -0.04  -0.03
  60   1     0.03  -0.04  -0.02    -0.02   0.02  -0.00     0.02  -0.00   0.05
  61   1     0.00  -0.03   0.03    -0.01   0.04  -0.00    -0.00  -0.03   0.06
  62   1    -0.02   0.11   0.08    -0.02   0.05   0.07    -0.04   0.09   0.04
  63   1    -0.00   0.02  -0.01     0.00   0.06   0.06    -0.02   0.09   0.05
  64   1    -0.00   0.04   0.02    -0.04  -0.01   0.05    -0.00   0.04   0.02
  65   1     0.03  -0.06  -0.09    -0.01  -0.04  -0.06     0.03  -0.04  -0.06
  66   1     0.02  -0.05  -0.06     0.01  -0.00  -0.04     0.01  -0.02  -0.03
  67   1    -0.03   0.04   0.05     0.03   0.06   0.04    -0.02   0.04   0.04
  68   1     0.02  -0.05   0.03    -0.03   0.07  -0.01    -0.05   0.01   0.06
                     28                     29                     30
                        a                      a                      a 
 Frequencies --   321.1945               330.7892               338.2373
 Red. masses --    10.3760                11.6152                11.5733
 Frc consts  --     0.0000                 0.0000                 0.0000
 IR Inten    --     4.6038                 7.1478                16.6760
 Raman Activ --     0.0000                 0.0000                 0.0000
 Depolar     --     0.0000                 0.0000                 0.0000
 Atom AN      X      Y      Z        X      Y      Z        X      Y      Z
   1   6    -0.01   0.02  -0.02    -0.12   0.03   0.01     0.13  -0.04  -0.03
   2   6    -0.01  -0.01   0.01    -0.02  -0.01  -0.06     0.04   0.01   0.01
   3   6    -0.00  -0.02   0.02     0.12  -0.01   0.05    -0.11  -0.04  -0.02
   4   6    -0.00  -0.02   0.03     0.12   0.07   0.16    -0.10  -0.07  -0.12
   5   6    -0.01  -0.02   0.04     0.08   0.15   0.14    -0.05  -0.13  -0.12
   6   6    -0.01   0.01   0.00    -0.09   0.12   0.11     0.09  -0.15  -0.05
   7   8     0.00   0.01   0.01     0.13   0.18   0.06    -0.08  -0.12  -0.11
   8   6     0.01   0.02  -0.02     0.06   0.08   0.08    -0.04  -0.05  -0.09
   9   6     0.01   0.01  -0.03    -0.03  -0.06   0.07     0.02  -0.00   0.03
  10   6    -0.01  -0.03   0.02    -0.10   0.02  -0.03     0.08   0.02   0.02
  11   6     0.00  -0.02   0.00    -0.07   0.06  -0.13     0.06   0.07   0.04
  12   6    -0.01  -0.02  -0.00    -0.06  -0.03  -0.09     0.08   0.09   0.07
  13   6    -0.00  -0.01  -0.01    -0.06  -0.11  -0.02     0.05   0.09   0.08
  14   6     0.01  -0.01  -0.02     0.02  -0.12  -0.08    -0.05   0.13   0.14
  15   6     0.01  -0.02  -0.01     0.02  -0.08  -0.18    -0.05   0.17   0.14
  16   6     0.01  -0.02  -0.01     0.00  -0.15  -0.09    -0.02   0.16   0.13
  17   6    -0.01   0.00  -0.01    -0.06  -0.12  -0.03     0.08   0.07   0.08
  18   7     0.00   0.02  -0.01    -0.04  -0.12   0.03     0.01  -0.01   0.05
  19   6     0.01  -0.03   0.02    -0.03  -0.04  -0.00    -0.03  -0.12  -0.05
  20   6     0.00   0.48   0.04    -0.00   0.01   0.01    -0.05  -0.11  -0.06
  21   7    -0.02  -0.39   0.02     0.01   0.07   0.03    -0.04   0.12  -0.07
  22   6    -0.01  -0.03  -0.02     0.03  -0.04   0.00    -0.03   0.12  -0.05
  23   7    -0.00   0.02   0.01     0.04  -0.12  -0.03     0.01   0.01   0.05
  24   6     0.01   0.01   0.02     0.06  -0.12   0.02     0.08  -0.07   0.09
  25   6    -0.01  -0.02   0.01    -0.00  -0.15   0.09    -0.02  -0.17   0.13
  26   6    -0.01  -0.02   0.01    -0.02  -0.07   0.18    -0.05  -0.17   0.15
  27   6    -0.01  -0.01   0.02    -0.02  -0.12   0.08    -0.05  -0.12   0.14
  28   6     0.00  -0.01   0.01     0.06  -0.11   0.02     0.05  -0.09   0.08
  29   6     0.01  -0.02   0.01     0.06  -0.03   0.09     0.08  -0.09   0.07
  30   6    -0.00  -0.03  -0.00     0.07   0.07   0.13     0.06  -0.07   0.04
  31   6     0.01  -0.03  -0.02     0.10   0.03   0.03     0.08  -0.02   0.02
  32   6    -0.01   0.01   0.03     0.03  -0.07  -0.07     0.02   0.00   0.03
  33   6    -0.01   0.02   0.02    -0.06   0.08  -0.08    -0.04   0.05  -0.10
  34   8    -0.00   0.01  -0.01    -0.13   0.18  -0.06    -0.08   0.12  -0.11
  35   6     0.01  -0.02  -0.04    -0.08   0.15  -0.14    -0.05   0.13  -0.13
  36   6     0.01   0.01  -0.00     0.09   0.12  -0.11     0.09   0.15  -0.06
  37   6     0.01   0.02   0.02     0.12   0.03  -0.00     0.13   0.04  -0.03
  38   6     0.01  -0.01  -0.00     0.02  -0.01   0.06     0.04  -0.01   0.01
  39   6     0.00  -0.02  -0.02    -0.12  -0.02  -0.05    -0.11   0.04  -0.02
  40   6     0.00  -0.02  -0.03    -0.12   0.07  -0.16    -0.10   0.07  -0.13
  41   6    -0.01   0.01   0.00    -0.05   0.04  -0.08    -0.04   0.01  -0.09
  42   6    -0.01   0.00   0.01     0.05   0.05   0.03     0.01   0.01  -0.00
  43   6    -0.00   0.48  -0.05     0.00   0.01  -0.00    -0.05   0.10  -0.06
  44   7     0.02  -0.39  -0.02    -0.01   0.07  -0.02    -0.04  -0.12  -0.07
  45   6     0.01   0.00  -0.01    -0.05   0.05  -0.02     0.01  -0.01  -0.00
  46   6     0.01   0.01  -0.00     0.05   0.04   0.08    -0.04  -0.01  -0.09
  47   1    -0.00   0.01  -0.02    -0.06   0.00  -0.01     0.06  -0.00  -0.01
  48   1    -0.00  -0.00  -0.00    -0.01  -0.02  -0.05     0.02   0.03   0.02
  49   1     0.00   0.00  -0.00     0.06  -0.03   0.00    -0.06  -0.00   0.01
  50   1    -0.00   0.01  -0.01    -0.06   0.06   0.05     0.05  -0.07  -0.02
  51   1     0.00   0.00  -0.01     0.00  -0.07   0.02    -0.01   0.01   0.04
  52   1    -0.00  -0.02   0.01    -0.03  -0.00  -0.00     0.02   0.00   0.00
  53   1    -0.00  -0.00  -0.00    -0.02  -0.04   0.01     0.02   0.01   0.01
  54   1     0.00  -0.00  -0.01     0.02  -0.03  -0.01    -0.03   0.02   0.04
  55   1     0.00  -0.01   0.00     0.01  -0.00  -0.07    -0.01   0.05   0.04
  56   1     0.00  -0.01  -0.00    -0.00  -0.06  -0.03    -0.01   0.07   0.05
  57   1     0.01   0.32   0.02     0.00  -0.00  -0.00    -0.02  -0.03  -0.02
  58   1    -0.00  -0.01   0.00     0.00  -0.06   0.03    -0.00  -0.07   0.05
  59   1    -0.00  -0.01  -0.00    -0.01  -0.00   0.08    -0.01  -0.05   0.04
  60   1    -0.00  -0.00   0.01    -0.02  -0.03   0.01    -0.03  -0.02   0.04
  61   1     0.00  -0.00   0.00     0.02  -0.04  -0.01     0.02  -0.02   0.01
  62   1     0.00  -0.02  -0.01     0.03  -0.00   0.00     0.02   0.00   0.01
  63   1    -0.00   0.00   0.01    -0.00  -0.07  -0.03    -0.01  -0.01   0.04
  64   1     0.00   0.01   0.01     0.06   0.06  -0.05     0.05   0.07  -0.02
  65   1     0.00   0.01   0.02     0.06   0.00   0.01     0.06   0.00  -0.01
  66   1     0.00  -0.00   0.00     0.01  -0.02   0.05     0.02  -0.02   0.03
  67   1    -0.00   0.00   0.00    -0.06  -0.03  -0.00    -0.06   0.00   0.01
  68   1    -0.01   0.32  -0.03    -0.00  -0.00   0.01    -0.02   0.03  -0.02
                     31                     32                     33
                        a                      a                      a 
 Frequencies --   346.7049               353.3120               375.2112
 Red. masses --    11.4509                11.1815                11.3579
 Frc consts  --     0.0000                 0.0000                 0.0000
 IR Inten    --    32.1200                 0.0798                34.4300
 Raman Activ --     0.0000                 0.0000                 0.0000
 Depolar     --     0.0000                 0.0000                 0.0000
 Atom AN      X      Y      Z        X      Y      Z        X      Y      Z
   1   6     0.01   0.04  -0.04    -0.03   0.07  -0.06    -0.02  -0.05   0.05
   2   6    -0.03  -0.05   0.08    -0.05  -0.06   0.07     0.00   0.01  -0.02
   3   6     0.01   0.03  -0.02     0.03   0.02   0.01     0.02   0.03  -0.04
   4   6     0.03   0.08  -0.08     0.06   0.11  -0.05    -0.01  -0.02   0.06
   5   6    -0.01  -0.03   0.05     0.00  -0.00   0.11     0.02   0.03  -0.02
   6   6     0.01   0.04  -0.04    -0.03   0.07  -0.00     0.02   0.03  -0.03
   7   8    -0.04  -0.14   0.20    -0.02  -0.12   0.24     0.02   0.02  -0.05
   8   6     0.02   0.06  -0.06     0.04   0.10  -0.08    -0.04  -0.07   0.06
   9   6     0.04   0.16  -0.17     0.03   0.12  -0.17    -0.03  -0.00  -0.05
  10   6    -0.01  -0.08   0.09    -0.04  -0.12   0.08    -0.05  -0.01  -0.03
  11   6    -0.03  -0.17   0.19    -0.05  -0.16   0.13    -0.06  -0.01   0.03
  12   6    -0.02  -0.06   0.07    -0.06  -0.07   0.03    -0.05   0.03   0.00
  13   6     0.00   0.11  -0.12    -0.01   0.13  -0.17    -0.03  -0.09   0.18
  14   6    -0.01   0.01  -0.01     0.02  -0.08   0.00     0.01   0.15  -0.08
  15   6    -0.02  -0.12   0.12     0.01  -0.16   0.07     0.00   0.03   0.00
  16   6     0.00   0.09  -0.10     0.01   0.08  -0.20    -0.05  -0.13   0.14
  17   6     0.00   0.06  -0.08    -0.05   0.01  -0.05    -0.02   0.13  -0.14
  18   7    -0.01   0.08  -0.09    -0.01  -0.02   0.04     0.01   0.22  -0.23
  19   6     0.01  -0.12   0.02     0.01  -0.02   0.08     0.08  -0.15   0.03
  20   6     0.02  -0.11   0.02    -0.05  -0.05   0.07     0.12  -0.18   0.03
  21   7     0.01   0.10   0.04    -0.08   0.05  -0.04     0.11   0.18   0.04
  22   6     0.01   0.12   0.03    -0.01  -0.01  -0.08     0.08   0.15   0.03
  23   7    -0.01  -0.07  -0.09     0.01  -0.03  -0.04     0.01  -0.22  -0.23
  24   6    -0.00  -0.07  -0.09     0.05   0.01   0.05    -0.02  -0.12  -0.13
  25   6     0.01  -0.09  -0.13    -0.01   0.07   0.19    -0.05   0.13   0.14
  26   6    -0.02   0.14   0.12    -0.02  -0.15  -0.05    -0.00  -0.03   0.01
  27   6    -0.00   0.00  -0.01    -0.02  -0.08  -0.00     0.01  -0.15  -0.08
  28   6    -0.00  -0.12  -0.13     0.01   0.12   0.15    -0.03   0.09   0.18
  29   6    -0.02   0.07   0.06     0.06  -0.06  -0.01    -0.05  -0.02   0.01
  30   6    -0.04   0.19   0.20     0.05  -0.15  -0.11    -0.06   0.01   0.02
  31   6    -0.02   0.10   0.11     0.04  -0.12  -0.07    -0.04   0.01  -0.03
  32   6     0.04  -0.17  -0.18    -0.02   0.10   0.15    -0.03   0.01  -0.05
  33   6     0.02  -0.07  -0.06    -0.04   0.10   0.07    -0.04   0.08   0.06
  34   8    -0.04   0.15   0.22     0.01  -0.11  -0.21     0.02  -0.02  -0.06
  35   6    -0.01   0.02   0.06    -0.01   0.00  -0.10     0.02  -0.03  -0.02
  36   6     0.01  -0.06  -0.04     0.03   0.07  -0.00     0.02  -0.03  -0.03
  37   6     0.00  -0.05  -0.04     0.03   0.07   0.05    -0.01   0.05   0.05
  38   6    -0.03   0.06   0.08     0.05  -0.05  -0.06     0.00  -0.01  -0.03
  39   6     0.02  -0.03  -0.02    -0.03   0.02  -0.01     0.01  -0.03  -0.04
  40   6     0.04  -0.09  -0.08    -0.05   0.10   0.04    -0.01   0.02   0.06
  41   6     0.03  -0.10  -0.11    -0.05   0.12   0.11    -0.05   0.08   0.11
  42   6    -0.01   0.03   0.04     0.01  -0.02  -0.04    -0.03  -0.04  -0.02
  43   6     0.01   0.12   0.03     0.05  -0.04  -0.07     0.13   0.18   0.03
  44   7     0.00  -0.11   0.04     0.08   0.04   0.04     0.12  -0.18   0.04
  45   6    -0.01  -0.02   0.03    -0.00  -0.02   0.03    -0.03   0.04  -0.02
  46   6     0.03   0.08  -0.10     0.05   0.14  -0.13    -0.05  -0.08   0.11
  47   1     0.01   0.02  -0.03    -0.01   0.04  -0.04    -0.01  -0.03   0.03
  48   1    -0.02  -0.04   0.05    -0.03  -0.05   0.04     0.00   0.01  -0.01
  49   1     0.01   0.01  -0.01     0.02  -0.00  -0.00     0.01   0.01  -0.03
  50   1     0.01   0.02  -0.02    -0.02   0.03  -0.00     0.00   0.02  -0.02
  51   1     0.02   0.08  -0.09     0.02   0.04  -0.08    -0.00   0.02  -0.05
  52   1    -0.01  -0.04   0.04    -0.02  -0.06   0.05    -0.02   0.00  -0.03
  53   1     0.00   0.06  -0.07     0.00   0.09  -0.09    -0.01  -0.08   0.12
  54   1    -0.00   0.01  -0.01     0.01  -0.03   0.02     0.01   0.07  -0.05
  55   1    -0.01  -0.08   0.08     0.00  -0.08   0.06     0.01  -0.01   0.01
  56   1     0.00   0.05  -0.05     0.01   0.05  -0.11    -0.02  -0.10   0.09
  57   1     0.00  -0.03   0.01    -0.03  -0.03   0.03     0.03  -0.05   0.01
  58   1     0.00  -0.05  -0.06    -0.01   0.04   0.10    -0.02   0.10   0.09
  59   1    -0.01   0.09   0.08    -0.00  -0.08  -0.05     0.01   0.00   0.01
  60   1     0.00  -0.00  -0.00    -0.01  -0.03  -0.02     0.01  -0.08  -0.05
  61   1     0.00  -0.07  -0.07    -0.00   0.08   0.08    -0.01   0.08   0.11
  62   1    -0.01   0.04   0.04     0.02  -0.06  -0.04    -0.01  -0.01  -0.03
  63   1     0.02  -0.09  -0.10    -0.02   0.04   0.07    -0.00  -0.02  -0.04
  64   1     0.00  -0.03  -0.02     0.02   0.03   0.00     0.00  -0.02  -0.02
  65   1     0.00  -0.03  -0.03     0.01   0.04   0.04    -0.01   0.03   0.03
  66   1    -0.02   0.04   0.05     0.02  -0.04  -0.04     0.00  -0.01  -0.01
  67   1     0.01  -0.01  -0.01    -0.02  -0.00   0.00     0.01  -0.01  -0.02
  68   1    -0.00   0.03   0.01     0.03  -0.02  -0.03     0.03   0.05   0.01
                     34                     35                     36
                        a                      a                      a 
 Frequencies --   396.6338               407.0058               408.5192
 Red. masses --    10.8090                 9.5295                 9.6443
 Frc consts  --     0.0000                 0.0000                 0.0000
 IR Inten    --     3.6629                 4.4522                 1.0500
 Raman Activ --     0.0000                 0.0000                 0.0000
 Depolar     --     0.0000                 0.0000                 0.0000
 Atom AN      X      Y      Z        X      Y      Z        X      Y      Z
   1   6     0.05   0.00  -0.08     0.01  -0.12   0.13     0.01  -0.08   0.07
   2   6     0.03  -0.03  -0.03     0.03  -0.07   0.06     0.02  -0.05   0.03
   3   6    -0.01  -0.10   0.06     0.09   0.16  -0.24     0.06   0.09  -0.15
   4   6     0.04   0.06  -0.07    -0.08  -0.22   0.25    -0.05  -0.12   0.16
   5   6     0.04   0.02  -0.04    -0.07  -0.18   0.21    -0.03  -0.11   0.14
   6   6     0.01  -0.08   0.08     0.12   0.17  -0.22     0.08   0.11  -0.13
   7   8     0.02  -0.01  -0.01    -0.03   0.01  -0.02    -0.01  -0.00  -0.02
   8   6    -0.00   0.02  -0.01    -0.01   0.10  -0.11    -0.02   0.06  -0.08
   9   6    -0.00  -0.02   0.10     0.00   0.10  -0.03    -0.01   0.05  -0.01
  10   6    -0.01   0.10  -0.01    -0.02  -0.06   0.15    -0.03  -0.03   0.08
  11   6    -0.02   0.08   0.01     0.03   0.09  -0.07    -0.01   0.08  -0.04
  12   6     0.05  -0.02   0.09     0.05   0.03  -0.02     0.03   0.01   0.01
  13   6     0.03   0.13  -0.09     0.01  -0.01  -0.02     0.01   0.04  -0.02
  14   6    -0.06  -0.03   0.15    -0.02  -0.03   0.03    -0.03  -0.02   0.06
  15   6    -0.05   0.04   0.04    -0.01   0.03  -0.03    -0.02   0.04  -0.00
  16   6    -0.01   0.14  -0.07     0.02   0.01   0.02    -0.01   0.04  -0.01
  17   6     0.04  -0.16   0.16     0.04  -0.04   0.04     0.02  -0.07   0.06
  18   7    -0.04  -0.21   0.10    -0.01  -0.06   0.03    -0.01  -0.08   0.03
  19   6    -0.10  -0.09  -0.17    -0.03  -0.02  -0.01    -0.02  -0.05  -0.04
  20   6     0.08   0.07  -0.13    -0.04   0.01  -0.00     0.03  -0.01  -0.03
  21   7     0.17   0.02   0.15    -0.03  -0.03   0.01     0.05   0.02   0.03
  22   6     0.10  -0.09   0.17    -0.02  -0.01   0.01     0.03  -0.05   0.03
  23   7     0.04  -0.22  -0.11    -0.01   0.02   0.01     0.01  -0.10  -0.04
  24   6    -0.05  -0.16  -0.16     0.02   0.00   0.01    -0.03  -0.08  -0.07
  25   6     0.01   0.15   0.07     0.02   0.01   0.02    -0.00   0.04  -0.00
  26   6     0.05   0.04  -0.04    -0.00  -0.02  -0.03     0.02   0.05   0.02
  27   6     0.06  -0.04  -0.15    -0.01   0.02  -0.01     0.03  -0.03  -0.06
  28   6    -0.03   0.14   0.10     0.00   0.03  -0.01    -0.02   0.03   0.03
  29   6    -0.05  -0.01  -0.09     0.03  -0.02  -0.03    -0.04   0.03   0.00
  30   6     0.02   0.08  -0.02     0.03  -0.05  -0.04    -0.01   0.11   0.07
  31   6     0.01   0.10   0.01    -0.00   0.05   0.10     0.03  -0.06  -0.14
  32   6    -0.00  -0.01  -0.10     0.01  -0.07  -0.02     0.01   0.09   0.02
  33   6     0.00   0.02   0.02    -0.00  -0.07  -0.06     0.02   0.10   0.11
  34   8    -0.02  -0.01   0.01    -0.03  -0.01  -0.01     0.02  -0.00   0.02
  35   6    -0.03   0.02   0.03    -0.05   0.12   0.13     0.06  -0.17  -0.21
  36   6    -0.01  -0.07  -0.07     0.07  -0.12  -0.15    -0.12   0.18   0.21
  37   6    -0.05   0.01   0.08     0.01   0.07   0.09    -0.01  -0.13  -0.12
  38   6    -0.03  -0.03   0.03     0.02   0.04   0.04    -0.03  -0.08  -0.05
  39   6     0.01  -0.10  -0.05     0.05  -0.11  -0.15    -0.09   0.15   0.24
  40   6    -0.04   0.05   0.07    -0.06   0.15   0.16     0.08  -0.21  -0.25
  41   6    -0.00   0.06   0.08    -0.02   0.03   0.02     0.04  -0.03  -0.02
  42   6     0.07  -0.03  -0.03     0.01  -0.04  -0.06     0.03   0.08   0.09
  43   6    -0.07   0.07   0.13    -0.05  -0.01   0.01    -0.01  -0.00   0.03
  44   7    -0.17   0.02  -0.15    -0.05   0.03  -0.01    -0.03   0.00  -0.04
  45   6    -0.07  -0.02   0.03    -0.00   0.07  -0.10    -0.03   0.05  -0.06
  46   6     0.00   0.05  -0.07    -0.03  -0.03   0.03    -0.03  -0.01   0.01
  47   1     0.01   0.01  -0.03     0.00  -0.03   0.03    -0.00  -0.02   0.02
  48   1     0.01  -0.01  -0.00     0.02   0.01   0.00     0.01   0.00  -0.00
  49   1    -0.01  -0.06   0.05     0.07   0.15  -0.20     0.05   0.09  -0.13
  50   1    -0.01  -0.05   0.06     0.08   0.15  -0.20     0.05   0.09  -0.12
  51   1    -0.01  -0.03   0.06    -0.01   0.03   0.01    -0.01   0.01   0.01
  52   1    -0.01   0.03  -0.02    -0.01  -0.07   0.11    -0.02  -0.05   0.06
  53   1     0.02   0.08  -0.10     0.00  -0.01  -0.02     0.01   0.02  -0.03
  54   1    -0.03  -0.03   0.05    -0.01  -0.02   0.02    -0.01  -0.01   0.02
  55   1    -0.01   0.03  -0.01    -0.01   0.02  -0.02    -0.00   0.02  -0.02
  56   1     0.00   0.12  -0.07     0.01   0.02   0.01     0.00   0.04  -0.01
  57   1     0.07   0.04  -0.08    -0.01  -0.01  -0.00     0.02  -0.01  -0.02
  58   1    -0.00   0.12   0.07     0.00   0.01   0.02    -0.00   0.04   0.01
  59   1     0.01   0.03   0.01    -0.00  -0.01  -0.01     0.01   0.03   0.02
  60   1     0.03  -0.03  -0.06    -0.00   0.01   0.00     0.01  -0.02  -0.03
  61   1    -0.02   0.09   0.10     0.00   0.02   0.00    -0.01   0.02   0.03
  62   1     0.01   0.03   0.01    -0.00   0.05   0.07     0.02  -0.07  -0.10
  63   1     0.01  -0.02  -0.06    -0.00  -0.02   0.00     0.01   0.02  -0.01
  64   1     0.01  -0.05  -0.05     0.05  -0.10  -0.13    -0.07   0.15   0.19
  65   1    -0.01   0.01   0.04     0.00   0.02   0.02     0.00  -0.04  -0.03
  66   1    -0.01  -0.01   0.00     0.01  -0.00   0.00    -0.02   0.00   0.00
  67   1     0.01  -0.06  -0.05     0.04  -0.11  -0.13    -0.08   0.15   0.20
  68   1    -0.07   0.04   0.08    -0.02   0.00   0.01    -0.01  -0.01   0.02
                     37                     38                     39
                        a                      a                      a 
 Frequencies --   418.9463               433.5405               437.6626
 Red. masses --    11.1608                10.8560                11.0475
 Frc consts  --     0.0000                 0.0000                 0.0000
 IR Inten    --    10.8713                 0.1939                 0.0886
 Raman Activ --     0.0000                 0.0000                 0.0000
 Depolar     --     0.0000                 0.0000                 0.0000
 Atom AN      X      Y      Z        X      Y      Z        X      Y      Z
   1   6     0.09   0.01  -0.01    -0.08  -0.00   0.07     0.10  -0.09   0.01
   2   6     0.09  -0.02   0.02    -0.05   0.08  -0.03     0.12  -0.04  -0.06
   3   6    -0.02  -0.06  -0.01    -0.01   0.05   0.04     0.01  -0.09  -0.04
   4   6    -0.00  -0.03  -0.12    -0.03  -0.05   0.09    -0.01  -0.07   0.01
   5   6    -0.06  -0.02  -0.08     0.00   0.03  -0.02    -0.01   0.01  -0.07
   6   6     0.05  -0.07   0.01    -0.05   0.03  -0.03     0.10  -0.03   0.00
   7   8    -0.08   0.04   0.05     0.03   0.05  -0.09    -0.03   0.10  -0.05
   8   6     0.02   0.06   0.05    -0.00  -0.11   0.08    -0.06  -0.02   0.12
   9   6     0.07   0.16   0.09    -0.01  -0.14   0.01    -0.03   0.08   0.15
  10   6     0.06   0.10   0.15     0.05   0.01  -0.15    -0.03   0.19   0.03
  11   6     0.09  -0.03   0.06     0.03  -0.00  -0.08    -0.01   0.07   0.01
  12   6     0.08   0.06  -0.10    -0.04  -0.23   0.20    -0.01  -0.16   0.20
  13   6    -0.03  -0.16   0.00     0.02   0.08  -0.11    -0.03   0.05  -0.08
  14   6    -0.00  -0.04  -0.16     0.03  -0.05   0.01    -0.02  -0.03  -0.03
  15   6    -0.00  -0.07  -0.07     0.03  -0.05   0.07    -0.03  -0.11   0.01
  16   6     0.09  -0.10   0.06     0.03   0.11  -0.11     0.02   0.04  -0.12
  17   6     0.06   0.14  -0.14    -0.04  -0.16   0.21    -0.01  -0.14   0.11
  18   7    -0.06   0.07  -0.05     0.04   0.18  -0.10    -0.03   0.13  -0.17
  19   6    -0.12   0.02   0.05     0.06   0.16   0.05    -0.01  -0.03   0.03
  20   6    -0.19   0.05   0.06    -0.02  -0.05   0.03     0.00  -0.04   0.04
  21   7    -0.21  -0.07   0.09    -0.04  -0.08  -0.06    -0.01   0.06   0.07
  22   6    -0.12  -0.02   0.05    -0.06   0.16  -0.04     0.00  -0.00   0.04
  23   7    -0.06  -0.07  -0.05    -0.04   0.15   0.05    -0.02  -0.16  -0.18
  24   6     0.06  -0.14  -0.14     0.04  -0.13  -0.18    -0.02   0.17   0.15
  25   6     0.09   0.10   0.06    -0.02   0.11   0.09     0.03  -0.08  -0.14
  26   6     0.00   0.07  -0.07    -0.03  -0.02  -0.06    -0.02   0.11   0.03
  27   6    -0.00   0.04  -0.17    -0.03  -0.05  -0.03    -0.01   0.04  -0.02
[...]
  42   6     0.00  -0.00   0.00     0.00   0.00  -0.00    -0.00  -0.00   0.00
  43   6    -0.00  -0.00  -0.00    -0.00  -0.00  -0.00    -0.00  -0.00  -0.00
  44   7    -0.00  -0.00  -0.00     0.00  -0.00  -0.00    -0.00  -0.00  -0.00
  45   6     0.00  -0.00  -0.00     0.00   0.00   0.00    -0.00   0.00   0.00
  46   6    -0.00   0.00   0.00     0.00  -0.00  -0.00    -0.00   0.00   0.00
  47   1    -0.01   0.02   0.01     0.00  -0.01  -0.00    -0.00   0.00   0.00
  48   1    -0.02   0.01  -0.00     0.01  -0.00   0.00     0.00  -0.00   0.00
  49   1     0.00   0.00   0.00     0.00   0.00   0.00     0.00   0.00   0.00
  50   1    -0.01  -0.01  -0.01     0.00   0.00   0.00     0.01   0.01   0.01
  51   1    -0.02  -0.01  -0.01    -0.00  -0.00  -0.00     0.03   0.01   0.01
  52   1     0.06  -0.04  -0.02    -0.00   0.00   0.00    -0.09   0.05   0.03
  53   1    -0.62   0.04  -0.03    -0.01   0.00  -0.00     0.42  -0.03   0.02
  54   1    -0.13   0.18   0.15    -0.00   0.01   0.00     0.21  -0.29  -0.25
  55   1    -0.08  -0.10  -0.10     0.01   0.01   0.01    -0.24  -0.28  -0.29
  56   1    -0.65   0.04  -0.04     0.02  -0.00   0.00    -0.48   0.03  -0.03
  57   1     0.00  -0.00   0.00     0.01  -0.00   0.01     0.01  -0.00   0.01
  58   1    -0.00  -0.00   0.00    -0.60  -0.04  -0.03    -0.21  -0.01  -0.01
  59   1     0.00  -0.00   0.00    -0.02   0.03  -0.03    -0.07   0.09  -0.09
  60   1    -0.00  -0.00   0.00    -0.17  -0.23   0.20     0.06   0.08  -0.07
  61   1    -0.01  -0.00  -0.00    -0.65  -0.04  -0.03     0.10   0.01   0.00
  62   1    -0.00  -0.00   0.00     0.07   0.04  -0.03    -0.01  -0.01   0.00
  63   1    -0.00   0.00  -0.00    -0.02   0.01  -0.01     0.01  -0.00   0.00
  64   1     0.01  -0.01   0.01    -0.00   0.00  -0.00     0.02  -0.01   0.02
  65   1     0.01   0.03  -0.02    -0.00  -0.01   0.01     0.00   0.00  -0.00
  66   1     0.03   0.01   0.00    -0.01  -0.00  -0.00     0.01   0.00   0.00
  67   1    -0.00   0.00  -0.00     0.00  -0.00   0.00    -0.00   0.00  -0.00
  68   1     0.01   0.00   0.01     0.00   0.00   0.00     0.01   0.00   0.01
                    190                    191                    192
                        a                      a                      a 
 Frequencies --  3101.4921              3104.8744              3104.9819
 Red. masses --     1.9045                 1.7985                 1.7995
 Frc consts  --     0.0000                 0.0000                 0.0000
 IR Inten    --    70.0936                73.4752                23.3923
 Raman Activ --     0.0000                 0.0000                 0.0000
 Depolar     --     0.0000                 0.0000                 0.0000
 Atom AN      X      Y      Z        X      Y      Z        X      Y      Z
   1   6     0.00  -0.00  -0.00    -0.00   0.00   0.00    -0.00   0.00   0.00
   2   6    -0.00   0.00  -0.00    -0.00   0.00  -0.00     0.00  -0.00   0.00
   3   6     0.00   0.00   0.00     0.00   0.00   0.00    -0.00  -0.00  -0.00
   4   6     0.00   0.00   0.00    -0.00   0.00   0.00     0.00  -0.00  -0.00
   5   6    -0.00   0.00  -0.00    -0.00   0.00   0.00     0.00  -0.00  -0.00
   6   6    -0.00  -0.00  -0.00     0.00   0.00   0.00     0.00   0.00   0.00
   7   8    -0.00  -0.00  -0.00     0.00  -0.00   0.00    -0.00   0.00   0.00
   8   6     0.00   0.00   0.00    -0.00  -0.00  -0.00     0.00   0.00   0.00
   9   6     0.00   0.00   0.00    -0.08  -0.02  -0.04     0.06   0.02   0.03
  10   6    -0.01   0.01   0.01     0.16  -0.10  -0.06    -0.11   0.07   0.04
  11   6    -0.00   0.00   0.00     0.00  -0.00  -0.00    -0.00   0.00   0.00
  12   6     0.00   0.00   0.00     0.00   0.00   0.00    -0.00  -0.00  -0.00
  13   6     0.04  -0.00   0.00     0.03  -0.00   0.00    -0.02   0.00  -0.00
  14   6     0.02  -0.03  -0.02     0.01  -0.01  -0.01    -0.01   0.01   0.01
  15   6    -0.02  -0.03  -0.03    -0.00  -0.00  -0.00     0.01   0.01   0.01
  16   6    -0.04   0.00  -0.00    -0.00   0.00  -0.00     0.01  -0.00   0.00
  17   6    -0.00   0.00   0.00     0.00   0.00   0.00     0.00  -0.00  -0.00
  18   7    -0.00  -0.00   0.00     0.00  -0.00  -0.00    -0.00   0.00   0.00
  19   6     0.00   0.00  -0.00    -0.00  -0.00   0.00    -0.00  -0.00  -0.00
  20   6    -0.00   0.00  -0.00    -0.00  -0.00  -0.00    -0.00  -0.00  -0.00
  21   7     0.00   0.00  -0.00     0.00  -0.00  -0.00    -0.00   0.00   0.00
  22   6    -0.00  -0.00   0.00    -0.00   0.00   0.00     0.00  -0.00   0.00
  23   7     0.00  -0.00   0.00     0.00   0.00  -0.00     0.00   0.00  -0.00
  24   6     0.00   0.00  -0.00     0.00  -0.00  -0.00    -0.00  -0.00   0.00
  25   6     0.17   0.01   0.01    -0.00  -0.00  -0.00    -0.01  -0.00  -0.00
  26   6     0.07  -0.08   0.09    -0.00   0.00  -0.00    -0.01   0.01  -0.01
  27   6    -0.06  -0.08   0.07     0.00   0.00  -0.00     0.01   0.01  -0.01
  28   6    -0.10  -0.01  -0.00     0.02   0.00   0.00     0.03   0.00   0.00
  29   6    -0.00   0.00  -0.00     0.00  -0.00   0.00     0.00  -0.00   0.00
  30   6     0.00   0.00  -0.00     0.00   0.00  -0.00     0.00   0.00  -0.00
  31   6     0.03   0.02  -0.01     0.11   0.07  -0.05     0.16   0.10  -0.06
  32   6    -0.01   0.00  -0.00    -0.05   0.02  -0.02    -0.08   0.02  -0.04
  33   6    -0.00   0.00  -0.00    -0.00   0.00  -0.00    -0.00   0.00  -0.00
  34   8     0.00  -0.00   0.00     0.00   0.00   0.00     0.00   0.00  -0.00
  35   6    -0.00  -0.00   0.00    -0.00   0.00   0.00    -0.00  -0.00   0.00
  36   6    -0.00   0.00  -0.00     0.00  -0.00   0.00     0.00   0.00  -0.00
  37   6     0.00   0.00  -0.00    -0.00  -0.00   0.00    -0.00  -0.00   0.00
  38   6     0.00   0.00   0.00    -0.00  -0.00  -0.00    -0.00  -0.00  -0.00
  39   6    -0.00   0.00  -0.00     0.00  -0.00   0.00     0.00  -0.00   0.00
  40   6     0.00   0.00  -0.00    -0.00  -0.00   0.00    -0.00  -0.00   0.00
  41   6     0.00  -0.00   0.00     0.00  -0.00   0.00     0.00  -0.00   0.00
  42   6    -0.00  -0.00   0.00    -0.00  -0.00   0.00    -0.00  -0.00   0.00
  43   6    -0.00  -0.00  -0.00    -0.00   0.00  -0.00    -0.00   0.00   0.00
  44   7     0.00   0.00   0.00     0.00   0.00  -0.00     0.00   0.00  -0.00
  45   6     0.00  -0.00  -0.00    -0.00   0.00   0.00     0.00  -0.00  -0.00
  46   6    -0.00   0.00  -0.00     0.00   0.00   0.00    -0.00  -0.00  -0.00
  47   1     0.00  -0.00  -0.00     0.00  -0.01  -0.01     0.00  -0.00  -0.00
  48   1     0.01  -0.00   0.00     0.00  -0.00   0.00    -0.00   0.00  -0.00
  49   1    -0.00  -0.00  -0.00    -0.00  -0.00  -0.00     0.00   0.00   0.00
  50   1     0.01   0.01   0.01    -0.01  -0.01  -0.01    -0.01  -0.00  -0.01
  51   1    -0.01  -0.00  -0.01     0.30   0.08   0.13    -0.21  -0.06  -0.09
  52   1     0.05  -0.03  -0.02    -0.57   0.35   0.23     0.39  -0.24  -0.15
  53   1    -0.14   0.01  -0.01    -0.10   0.01  -0.00     0.09  -0.01   0.00
  54   1    -0.07   0.09   0.08    -0.02   0.03   0.02     0.02  -0.03  -0.02
  55   1     0.08   0.10   0.10     0.01   0.02   0.02    -0.02  -0.02  -0.02
  56   1     0.15  -0.01   0.01     0.02  -0.00   0.00    -0.02   0.00  -0.00
  57   1     0.00  -0.00   0.00     0.00   0.00   0.00     0.00  -0.00   0.00
  58   1    -0.57  -0.03  -0.03     0.01   0.00   0.00     0.03   0.00   0.00
  59   1    -0.23   0.28  -0.29     0.01  -0.01   0.01     0.02  -0.03   0.03
  60   1     0.18   0.25  -0.22    -0.01  -0.01   0.01    -0.03  -0.04   0.03
  61   1     0.35   0.02   0.02    -0.07  -0.00  -0.00    -0.12  -0.01  -0.00
  62   1    -0.10  -0.06   0.04    -0.40  -0.24   0.16    -0.57  -0.34   0.23
  63   1     0.03  -0.01   0.01     0.20  -0.06   0.09     0.30  -0.08   0.13
  64   1     0.00  -0.00   0.00    -0.01   0.01  -0.01     0.00  -0.00   0.00
  65   1    -0.00  -0.00   0.00     0.00   0.01  -0.00     0.00   0.00  -0.00
  66   1    -0.00  -0.00  -0.00     0.00   0.00   0.00     0.00   0.00   0.00
  67   1     0.00  -0.00   0.00    -0.00   0.00  -0.00    -0.00   0.00  -0.00
  68   1     0.00   0.00   0.00     0.00  -0.00   0.00    -0.00  -0.00  -0.00
                    193                    194                    195
                        a                      a                      a 
 Frequencies --  3107.7291              3107.9086              3117.0444
 Red. masses --     1.8836                 1.8843                 1.8793
 Frc consts  --     0.0000                 0.0000                 0.0000
 IR Inten    --    95.5001                71.9485                83.2989
 Raman Activ --     0.0000                 0.0000                 0.0000
 Depolar     --     0.0000                 0.0000                 0.0000
 Atom AN      X      Y      Z        X      Y      Z        X      Y      Z
   1   6     0.04  -0.08  -0.06    -0.02   0.04   0.03    -0.00   0.00   0.00
   2   6     0.04  -0.01   0.01    -0.02   0.00  -0.00    -0.00   0.00   0.00
   3   6    -0.01  -0.01  -0.01     0.01   0.00   0.01     0.00   0.00   0.00
   4   6     0.00   0.00   0.00    -0.00   0.00  -0.00    -0.00   0.00   0.00
   5   6    -0.01   0.00   0.00     0.00  -0.00  -0.00    -0.00  -0.00  -0.00
   6   6    -0.14  -0.12  -0.14     0.06   0.05   0.06     0.00   0.00   0.00
   7   8     0.00  -0.00  -0.00    -0.00   0.00   0.00     0.00  -0.00  -0.00
   8   6     0.00   0.00   0.00    -0.00  -0.00  -0.00    -0.00   0.01   0.01
   9   6     0.00   0.00   0.00    -0.00  -0.00  -0.00     0.19   0.05   0.08
  10   6     0.01  -0.00  -0.00     0.00  -0.00  -0.00     0.08  -0.05  -0.03
  11   6    -0.00  -0.00  -0.00     0.00   0.00   0.00    -0.00  -0.00  -0.00
  12   6     0.00   0.00   0.00    -0.00   0.00   0.00     0.00   0.00   0.00
  13   6     0.00  -0.00   0.00     0.00  -0.00   0.00     0.00  -0.00   0.00
  14   6     0.00  -0.00  -0.00     0.00  -0.00  -0.00     0.00  -0.00  -0.00
  15   6    -0.00  -0.00  -0.00    -0.00  -0.00  -0.00    -0.00  -0.00  -0.00
  16   6    -0.00   0.00  -0.00    -0.00   0.00  -0.00    -0.00  -0.00  -0.00
  17   6    -0.00   0.00  -0.00     0.00   0.00  -0.00     0.00   0.00   0.00
  18   7    -0.00  -0.00  -0.00     0.00   0.00  -0.00     0.00  -0.00  -0.00
  19   6    -0.00  -0.00   0.00     0.00  -0.00   0.00    -0.00   0.00   0.00
  20   6     0.00  -0.00   0.00     0.00  -0.00   0.00    -0.00   0.00  -0.00
  21   7     0.00  -0.00  -0.00    -0.00   0.00   0.00     0.00   0.00  -0.00
  22   6    -0.00   0.00   0.00    -0.00   0.00  -0.00    -0.00  -0.00   0.00
  23   7    -0.00  -0.00  -0.00    -0.00   0.00  -0.00     0.00   0.00  -0.00
  24   6    -0.00  -0.00   0.00    -0.00   0.00   0.00    -0.00  -0.00   0.00
  25   6    -0.00  -0.00  -0.00    -0.00  -0.00  -0.00    -0.00   0.00  -0.00
  26   6    -0.00   0.00  -0.00    -0.00   0.00   0.00     0.00  -0.00   0.00
  27   6     0.00   0.00  -0.00     0.00  -0.00   0.00     0.00  -0.00   0.00
  28   6     0.00   0.00   0.00     0.00   0.00  -0.00     0.00   0.00   0.00
  29   6     0.00  -0.00   0.00     0.00  -0.00   0.00     0.00  -0.00   0.00
  30   6    -0.00   0.00  -0.00    -0.00   0.00  -0.00    -0.00   0.00  -0.00
  31   6     0.00   0.00  -0.00     0.00   0.00  -0.00     0.05   0.03  -0.02
  32   6    -0.00   0.00  -0.00     0.00  -0.00   0.00     0.12  -0.03   0.05
  33   6     0.00  -0.00   0.00     0.00  -0.00   0.00    -0.00  -0.00   0.00
  34   8     0.00   0.00  -0.00     0.00   0.00  -0.00     0.00   0.00  -0.00
  35   6    -0.00  -0.00   0.00    -0.01  -0.00   0.00    -0.00   0.00  -0.00
  36   6    -0.07   0.05  -0.06    -0.14   0.12  -0.14     0.00  -0.00   0.00
  37   6     0.02   0.04  -0.03     0.04   0.08  -0.06     0.00   0.00  -0.00
  38   6     0.02   0.00   0.00     0.04   0.01   0.00     0.00   0.00   0.00
  39   6    -0.01   0.00  -0.01    -0.01   0.01  -0.01    -0.00   0.00  -0.00
  40   6     0.00  -0.00   0.00     0.00  -0.00   0.00    -0.00  -0.00   0.00
  41   6    -0.00  -0.00  -0.00    -0.00  -0.00  -0.00    -0.00   0.00  -0.00
  42   6     0.00  -0.00   0.00     0.00  -0.00   0.00    -0.00  -0.00   0.00
  43   6     0.00   0.00   0.00    -0.00   0.00   0.00    -0.00  -0.00  -0.00
  44   7     0.00  -0.00  -0.00     0.00   0.00  -0.00     0.00   0.00  -0.00
  45   6     0.00   0.00   0.00    -0.00  -0.00  -0.00    -0.00   0.00   0.00
  46   6    -0.00   0.00  -0.00     0.00  -0.00   0.00    -0.00  -0.00  -0.00
  47   1    -0.13   0.27   0.18     0.06  -0.13  -0.09     0.00  -0.00  -0.00
  48   1    -0.11   0.03  -0.01     0.06  -0.02   0.01     0.00  -0.00   0.00
  49   1     0.05   0.04   0.05    -0.02  -0.02  -0.02    -0.00  -0.00  -0.00
  50   1     0.48   0.40   0.46    -0.22  -0.19  -0.21    -0.01  -0.01  -0.01
  51   1    -0.00  -0.00  -0.00     0.02   0.00   0.01    -0.65  -0.18  -0.29
  52   1    -0.02   0.01   0.01    -0.00   0.00   0.00    -0.28   0.17   0.11
  53   1    -0.01   0.00  -0.00    -0.01   0.00  -0.00    -0.02   0.00  -0.00
  54   1    -0.00   0.01   0.01    -0.00   0.00   0.00    -0.00   0.00   0.00
  55   1     0.01   0.01   0.01     0.00   0.01   0.01     0.00   0.00   0.00
  56   1     0.01  -0.00   0.00     0.01  -0.00   0.00     0.00  -0.00   0.00
  57   1    -0.00   0.00  -0.00    -0.00   0.00  -0.00     0.00  -0.00   0.00
  58   1     0.01   0.00   0.00     0.00   0.00   0.00     0.00  -0.00   0.00
  59   1     0.01  -0.01   0.01    -0.00   0.00  -0.00    -0.00   0.00  -0.00
  60   1    -0.01  -0.01   0.01    -0.00  -0.00   0.00    -0.00  -0.00   0.00
  61   1    -0.01  -0.00  -0.00    -0.00  -0.00   0.00    -0.01  -0.00  -0.00
  62   1    -0.02  -0.01   0.01    -0.01  -0.01   0.00    -0.18  -0.10   0.07
  63   1     0.01  -0.00   0.00    -0.01   0.00  -0.01    -0.41   0.12  -0.18
  64   1     0.22  -0.19   0.22     0.48  -0.40   0.47    -0.00   0.00  -0.00
  65   1    -0.06  -0.12   0.09    -0.13  -0.27   0.19    -0.00  -0.00   0.00
  66   1    -0.05  -0.01  -0.00    -0.12  -0.03  -0.01    -0.00  -0.00  -0.00
  67   1     0.02  -0.02   0.02     0.05  -0.04   0.05     0.00  -0.00   0.00
  68   1    -0.00  -0.00  -0.00    -0.00  -0.00  -0.00     0.00   0.00   0.00
                    196                    197                    198
                        a                      a                      a 
 Frequencies --  3117.3205              3123.4335              3124.2389
 Red. masses --     1.8798                 1.8459                 1.8306
 Frc consts  --     0.0000                 0.0000                 0.0000
 IR Inten    --     3.8480                66.0704                 1.6373
 Raman Activ --     0.0000                 0.0000                 0.0000
 Depolar     --     0.0000                 0.0000                 0.0000
 Atom AN      X      Y      Z        X      Y      Z        X      Y      Z
   1   6     0.00  -0.00  -0.00     0.00  -0.01  -0.01    -0.00   0.01   0.01
   2   6     0.00  -0.00   0.00     0.04  -0.01   0.00    -0.03   0.01  -0.00
   3   6    -0.00  -0.00  -0.00     0.13   0.10   0.14    -0.10  -0.08  -0.10
   4   6     0.00  -0.00  -0.00    -0.00   0.01   0.00     0.00  -0.00  -0.00
   5   6    -0.00   0.00   0.00    -0.00  -0.00  -0.00     0.00   0.00   0.00
   6   6    -0.00  -0.00  -0.00    -0.01  -0.00  -0.00     0.00   0.00   0.00
   7   8    -0.00   0.00   0.00     0.00  -0.00   0.00    -0.00   0.00  -0.00
   8   6     0.00  -0.00  -0.00     0.00   0.00   0.00    -0.00   0.00  -0.00
   9   6    -0.12  -0.03  -0.05    -0.00  -0.00  -0.00     0.00   0.00   0.00
  10   6    -0.05   0.03   0.02    -0.00   0.00   0.00     0.00  -0.00  -0.00
  11   6     0.00   0.00   0.00     0.00   0.00   0.00    -0.00  -0.00  -0.00
  12   6    -0.00  -0.00  -0.00    -0.00   0.00   0.00     0.00  -0.00   0.00
  13   6    -0.00   0.00  -0.00     0.00   0.00   0.00     0.00  -0.00   0.00
  14   6    -0.00   0.00   0.00     0.00  -0.00  -0.00     0.00  -0.00  -0.00
  15   6     0.00   0.00   0.00    -0.00  -0.00  -0.00    -0.00  -0.00  -0.00
  16   6     0.00  -0.00   0.00     0.00   0.00   0.00     0.00  -0.00  -0.00
  17   6    -0.00  -0.00  -0.00     0.00  -0.00  -0.00    -0.00   0.00   0.00
  18   7    -0.00   0.00   0.00     0.00  -0.00  -0.00    -0.00   0.00   0.00
  19   6     0.00  -0.00  -0.00    -0.00   0.00   0.00     0.00  -0.00  -0.00
  20   6    -0.00   0.00  -0.00    -0.00   0.00  -0.00     0.00  -0.00   0.00
  21   7    -0.00  -0.00   0.00    -0.00   0.00  -0.00    -0.00  -0.00   0.00
  22   6    -0.00  -0.00   0.00    -0.00  -0.00   0.00    -0.00  -0.00   0.00
  23   7     0.00   0.00  -0.00     0.00   0.00  -0.00     0.00   0.00  -0.00
  24   6     0.00  -0.00   0.00     0.00   0.00  -0.00     0.00   0.00  -0.00
  25   6    -0.00  -0.00  -0.00     0.00  -0.00   0.00     0.00  -0.00   0.00
  26   6    -0.00   0.00  -0.00    -0.00   0.00  -0.00     0.00  -0.00   0.00
  27   6     0.00   0.00  -0.00     0.00   0.00  -0.00    -0.00  -0.00   0.00
  28   6     0.01   0.00   0.00     0.00   0.00   0.00    -0.00  -0.00  -0.00
  29   6     0.00  -0.00   0.00    -0.00  -0.00   0.00    -0.00  -0.00  -0.00
  30   6    -0.00   0.00  -0.00     0.00  -0.00   0.00     0.00  -0.00   0.00
  31   6     0.09   0.05  -0.03     0.00   0.00  -0.00    -0.00  -0.00   0.00
  32   6     0.19  -0.05   0.08     0.00  -0.00   0.00    -0.00   0.00  -0.00
  33   6    -0.00  -0.01   0.01     0.00  -0.00   0.00     0.00  -0.00   0.00
  34   8     0.00   0.00  -0.00     0.00   0.00  -0.00     0.00   0.00   0.00
  35   6     0.00   0.00  -0.00    -0.00   0.00  -0.00    -0.00   0.00  -0.00
  36   6     0.00  -0.00   0.00    -0.00   0.00  -0.00    -0.01   0.00  -0.01
  37   6    -0.00  -0.00   0.00     0.00   0.01  -0.01     0.00   0.01  -0.01
  38   6    -0.00  -0.00  -0.00     0.03   0.01   0.00     0.04   0.01   0.00
  39   6     0.00  -0.00   0.00     0.10  -0.08   0.10     0.13  -0.10   0.14
  40   6    -0.00  -0.00   0.00    -0.00  -0.00   0.00    -0.00  -0.01   0.00
  41   6    -0.00   0.00  -0.00    -0.00  -0.00   0.00    -0.00  -0.00   0.00
  42   6    -0.00  -0.00   0.00     0.00   0.00  -0.00     0.00   0.00  -0.00
  43   6    -0.00   0.00   0.00    -0.00  -0.00  -0.00    -0.00  -0.00  -0.00
  44   7     0.00  -0.00  -0.00    -0.00  -0.00  -0.00    -0.00  -0.00  -0.00
  45   6     0.00  -0.00  -0.00     0.00  -0.00  -0.00    -0.00   0.00   0.00
  46   6     0.00   0.00   0.00    -0.00   0.00   0.00     0.00  -0.00  -0.00
  47   1    -0.00   0.00   0.00    -0.02   0.04   0.03     0.01  -0.03  -0.02
  48   1    -0.00   0.00  -0.00    -0.13   0.04  -0.01     0.08  -0.03   0.01
  49   1     0.01   0.01   0.01    -0.46  -0.37  -0.48     0.34   0.27   0.35
  50   1     0.01   0.01   0.01     0.02   0.01   0.02    -0.01  -0.01  -0.01
  51   1     0.41   0.12   0.18     0.00   0.00   0.00    -0.01  -0.00  -0.01
  52   1     0.18  -0.11  -0.07     0.00  -0.00  -0.00    -0.01   0.00   0.00
  53   1     0.02  -0.00   0.00    -0.00   0.00  -0.00    -0.00   0.00  -0.00
  54   1     0.00  -0.01  -0.00    -0.00   0.00   0.00    -0.00   0.00   0.00
  55   1    -0.00  -0.00  -0.01     0.00   0.00   0.00     0.00   0.00   0.00
  56   1    -0.00   0.00  -0.00    -0.00   0.00   0.00    -0.00   0.00   0.00
  57   1     0.00   0.00   0.00     0.01  -0.00   0.01    -0.01   0.00  -0.01
  58   1     0.01   0.00   0.00    -0.00  -0.00   0.00     0.00   0.00  -0.00
  59   1     0.00  -0.00   0.01     0.00  -0.00   0.00    -0.00   0.00  -0.00
  60   1    -0.00  -0.01   0.01    -0.00  -0.00   0.00     0.00   0.00  -0.00
  61   1    -0.02  -0.00  -0.00    -0.00  -0.00  -0.00     0.00   0.00   0.00
  62   1    -0.28  -0.17   0.11    -0.00  -0.00   0.00     0.01   0.00  -0.00
  63   1    -0.65   0.18  -0.29    -0.00   0.00  -0.00     0.01  -0.00   0.01
  64   1    -0.01   0.01  -0.01     0.01  -0.01   0.01     0.02  -0.01   0.02
  65   1     0.00   0.01  -0.00    -0.01  -0.03   0.02    -0.02  -0.04   0.03
  66   1     0.00   0.00   0.00    -0.10  -0.03  -0.01    -0.12  -0.03  -0.01
  67   1    -0.01   0.01  -0.01    -0.34   0.27  -0.35    -0.47   0.37  -0.48
  68   1     0.00   0.00   0.00     0.01   0.00   0.01     0.01   0.00   0.01
