99
 energy: -164.684684683044 gnorm: 0.000036815051 xtb: 6.7.1 (edcfbbe)
C            7.72027770484671       -1.32097514842789        1.29999112714942
C            6.49737991953554       -0.68025022656881        1.22853054776998
C            5.32196720259578       -1.41315157951211        1.21939516830135
C            5.34839443742669       -2.80318323570760        1.27305654083605
C            6.59409764522595       -3.44130131473831        1.37633743178986
C            7.76526213688953       -2.70453037745677        1.38307323012744
O            6.71246247667497       -4.80453805914802        1.48702710348597
C            5.55667793783829       -5.54545831368920        1.46914870591956
C            5.68939757864054       -6.91940904310101        1.56300729177446
C            4.56753132494289       -7.73330727785660        1.52345897811364
C            3.31653497283465       -7.16442612187525        1.37380137127877
C            3.17689812197863       -5.78926967822672        1.28146137657800
C            4.28890007765191       -4.95557529855089        1.34661193597225
N            4.18569191390255       -3.56946832324987        1.26040493219412
C            2.91982190365391       -2.94817841260810        1.12144687189017
C            1.98871514808503       -3.00925365724622        2.15434438562484
C            0.75666856769996       -2.40521761967583        2.01049412774841
C            0.43506421563308       -1.70647128093434        0.84461325298135
C           -0.88215346620402       -1.09239131950966        0.70034577469445
N           -1.92728300339404       -1.78500849512344        1.16065887049138
C           -3.17629048228799       -1.36062494291326        0.92848687530640
C           -4.28821395187906       -2.05221837347981        1.41190092232311
C           -5.57286248259708       -1.64810139523451        1.08458552261086
C           -5.76819477703184       -0.54016766155155        0.27155835583020
N           -7.08878174534912       -0.14661497412143       -0.07712539121631
C           -7.93036406699609        0.41383232502607        0.87378400118556
C           -7.50692887121410        0.67758714365625        2.17327026696906
C           -8.37225337670260        1.23765031424824        3.09781456951713
C           -9.67180089680355        1.55054475016557        2.74195850264362
C          -10.10596632837576        1.31075960864447        1.44701952715880
C           -9.24599806367377        0.75282527495237        0.51785602591465
O           -9.73279948981027        0.55826061314577       -0.75044141307939
C           -8.88236758332765        0.01578698218197       -1.68101253918262
C           -9.38098625665484       -0.17487028814231       -2.95740295456702
C           -8.57995595792683       -0.73311136066104       -3.94211303749511
C           -7.28319024128401       -1.10699683847708       -3.63950599951724
C           -6.77791873688066       -0.91961805369277       -2.36389220242360
C           -7.56223613281268       -0.34661967962469       -1.36677520454002
C           -4.68185349641711        0.19242270933710       -0.20467884956946
C           -3.38232737509385       -0.18742274985127        0.12003030219906
N           -2.32118133530085        0.53904089563156       -0.26209289846361
C           -1.08457014984557        0.14273730611730        0.05268868198015
C            0.00608427124141        1.05938113352451       -0.26410821845348
C           -0.04108896408081        1.82015347579525       -1.43537848257152
C            0.97040899794631        2.70603055327131       -1.74326280506802
C            2.04505919927375        2.86552865875560       -0.87319014491100
N            3.09072892875368        3.77045679948044       -1.18492825746763
C            4.37162819230159        3.29756878631538       -1.45541396888831
C            4.66975666555706        1.93896128338282       -1.48485407068608
C            5.95584256519001        1.50099346253932       -1.75516091849823
C            6.96552165388582        2.41080149200062       -2.00798524169041
C            6.68120952133770        3.76821961442331       -2.00834655982414
C            5.39803274072912        4.21118538928294       -1.74086913791842
O            5.18256170869678        5.56655834817704       -1.78057004305723
C            3.91378993119179        6.01593116838879       -1.50872340589190
C            3.71091306117218        7.38407816101160       -1.53718667123161
C            2.46095640897268        7.91020230081937       -1.24751784766561
C            1.42164809749819        7.06039105541878       -0.91762736357017
C            1.61772065871934        5.68932138743892       -0.88963568677755
C            2.85878493085590        5.14279608498731       -1.20071285770528
C            2.08492408195049        2.13731624908279        0.31355779255288
C            1.07735286925863        1.24654948475548        0.61463673827015
C            1.36968802169123       -1.66772127644721       -0.19400186835974
C            2.59609211379233       -2.28152483298954       -0.05826495768368
H            8.63774477151735       -0.75418403729066        1.30177920602668
H            6.44881090376657        0.39633734341424        1.17708479648722
H            4.37203461238013       -0.90595277202340        1.17432576108776
H            8.70172612610511       -3.23449434171090        1.45774945813432
H            6.68115491546428       -7.33172260016288        1.66171973551575
H            4.67939473752693       -8.80319608178738        1.60002619675860
H            2.43686313641659       -7.78750206577264        1.32481695308360
H            2.19755989705479       -5.35664523771586        1.15223824672202
H            2.23671813538787       -3.53194210576966        3.06657573867602
H            0.02806456070844       -2.45506513906147        2.80526435701735
H           -4.12443568445612       -2.92506214558325        2.02442592364984
H           -6.42576190344548       -2.19877403667192        1.45270350923400
H           -6.49199270668586        0.44172926172049        2.45208868036965
H           -8.02093290689182        1.43015110241177        4.09979218221822
H          -10.34811880184006        1.98426295800316        3.46134127696569
H          -11.10974847925788        1.55265669027678        1.13513027899412
H          -10.39943226223196        0.11804949258071       -3.15803560969257
H           -8.97519425033855       -0.87783603361051       -4.93505317712539
H           -6.65431306198345       -1.55109966316587       -4.39566543119550
H           -5.76879548315802       -1.22049024187707       -2.13071572408250
H           -4.83619361807126        1.07221491348993       -0.81003847923987
H           -0.87960758762516        1.69410569230756       -2.10305071683260
H            0.93522672775952        3.27870597079842       -2.65853915835284
H            3.88499305488907        1.22399340559293       -1.29851961391474
H            6.16208329125364        0.44203146760627       -1.76427288235776
H            7.96902572676312        2.07386687819923       -2.21397192426811
H            7.44236147633708        4.50329938930695       -2.21738922784836
H            4.54636386563538        8.02020680043709       -1.78368939293705
H            2.31049875297511        8.97783561283468       -1.27368247506474
H            0.44823590511469        7.45838243196025       -0.67564678891381
H            0.80379220680674        5.03494746646366       -0.62040547326747
H            2.90525603152608        2.28574545282129        1.00041105594149
H            1.10368232518527        0.70436602731162        1.54800452794229
H            1.11840255410943       -1.17160806663221       -1.11958931428835
H            3.30836924941843       -2.26081835927476       -0.86998409336025
