$hessian                                                                        
        0.5975370336  -0.1550969135   0.0810657042  -0.1139753956   0.0743361381
        0.0848329174  -0.0402618991   0.0192160748   0.0092830424   0.0187836526
       -0.0083644782   0.0009791352  -0.0040974076  -0.0025925247  -0.0016441982
        0.0036880425  -0.0000566107   0.0012584050  -0.0014031788  -0.0019984676
       -0.0007771363   0.0023181885  -0.0001534737   0.0025103780  -0.0018329228
        0.0006127014  -0.0018362617   0.0004375271   0.0002917086   0.0008200577
       -0.0021750080   0.0013236385  -0.0017231605   0.0049934102   0.0047131103
        0.0030000836  -0.0025640183  -0.0044111380  -0.0014510311   0.0022696762
        0.0020503529  -0.0004769965  -0.0044447113  -0.0017927467   0.0009735057
        0.0001904817   0.0056896278  -0.0005310643  -0.0033366652  -0.0047979505
       -0.0002446816   0.0023693851   0.0013647634   0.0006147617  -0.0019745366
        0.0028204696  -0.0007718446   0.0049206186  -0.0003102998   0.0021989096
       -0.0046168071  -0.0007957676  -0.0015069007   0.0001499202   0.0013754529
       -0.0007450425  -0.0021368572  -0.0015291953   0.0000008141   0.0041397592
       -0.0023893538   0.0028539732  -0.0050866893   0.0020908678  -0.0030497459
       -0.0000603378  -0.0027360394   0.0011790453  -0.0015013669  -0.0005367164
       -0.0002737953   0.0023000626  -0.0012573497   0.0013833288  -0.0005105730
        0.0025403670  -0.0013926488   0.0041639958   0.0018848091  -0.0004308947
       -0.0511857481   0.0131713957  -0.0185653748  -0.1379442264  -0.0317383996
       -0.1269527096  -0.2717558099   0.0838978289  -0.0249590625   0.0059648275
       -0.0079468049  -0.0116654967  -0.0040858964   0.0044214518  -0.0018643538
       -0.0002060495  -0.0004290091   0.0000728031  -0.0000471174   0.0000019077
       -0.0000078083   0.0000346961  -0.0000939141  -0.0001712768  -0.0000061304
        0.0000301595  -0.0001213066  -0.0000321030   0.0000430290  -0.0000984883
       -0.0000359667   0.0003047437  -0.0001041115  -0.0000096433   0.0000888917
        0.0002478302   0.0000583798   0.0000806273   0.0002226281  -0.0001417067
       -0.0000422985  -0.0000760426  -0.0000050910   0.0001554756   0.0000432699
       -0.0000392716   0.0000007881  -0.0000187720  -0.0001202780   0.0000071721
       -0.0000410296  -0.0000382895   0.0000635722   0.0000078218   0.0000104444
       -0.0000326181  -0.0001073172  -0.0000368359  -0.0000815178  -0.0000064679
       -0.0000247574  -0.0000881610   0.0001174799  -0.0000389678   0.0001564544
       -0.0000777310  -0.0044089964   0.0039435241  -0.0013738369   0.0058111585
        0.0025946443   0.0094006940
       -0.1550969135   0.2709983506   0.1797389215   0.0397530755  -0.1240118525
       -0.1123144491   0.0469754519  -0.0166173336   0.0006995399  -0.0095692764
       -0.0066247266  -0.0066009405   0.0014110238   0.0005964315   0.0015942448
       -0.0016029933   0.0000117470  -0.0008339780   0.0007981833   0.0011273715
        0.0007909300  -0.0013081763  -0.0001922671  -0.0012631329   0.0008319118
       -0.0000635258   0.0008097686  -0.0007280877  -0.0005731846  -0.0006647626
        0.0017380214  -0.0002521371   0.0013265337  -0.0013669610  -0.0002715221
       -0.0014095242   0.0003497044  -0.0003935805   0.0003578325  -0.0012716325
        0.0004591465   0.0003494853   0.0011700655  -0.0003765479  -0.0001864301
        0.0003459957  -0.0000473030   0.0005634558   0.0025954804   0.0004606546
       -0.0007949625  -0.0010331986  -0.0008320811  -0.0002719970   0.0009479820
       -0.0012143012   0.0003095305  -0.0024923475   0.0000647510  -0.0010815925
        0.0024253335   0.0006154713   0.0007388510  -0.0000817826  -0.0009056265
        0.0004205637   0.0010233919   0.0008258268  -0.0000612121  -0.0020167566
        0.0009384884  -0.0011472237   0.0022450329  -0.0008259544   0.0013826972
        0.0000832083   0.0011022896  -0.0004776529   0.0005704556   0.0001403800
       -0.0000734178  -0.0009196778   0.0007899811  -0.0005104293   0.0002378021
       -0.0013828126   0.0007131490  -0.0019986860  -0.0008108261   0.0000153599
       -0.0166235628   0.0094115957   0.0030514412   0.0048908336  -0.0715157105
       -0.0425556505   0.0841049644  -0.0634553876   0.0038453937   0.0023092891
       -0.0041928994  -0.0066692158   0.0041234628   0.0054896899  -0.0023376720
        0.0000209442   0.0002335360  -0.0000605103   0.0000338921   0.0000173305
       -0.0000196660  -0.0000040141   0.0000448985   0.0000441716  -0.0000058424
       -0.0000044808   0.0000781196   0.0000311745  -0.0000394557   0.0000100620
       -0.0000173498  -0.0000588863  -0.0000340455  -0.0000222261  -0.0000499450
       -0.0001591663  -0.0000022397  -0.0000527461  -0.0000054053   0.0000704085
        0.0000138568   0.0000202473  -0.0000044295  -0.0000690878  -0.0000279906
        0.0000222375  -0.0000002549   0.0000206942   0.0000610907   0.0000018593
        0.0000233694   0.0000205032  -0.0000193309  -0.0000022235  -0.0000032598
        0.0000392383   0.0000730658   0.0000417583   0.0000364787  -0.0000410500
       -0.0000012800   0.0000753919   0.0000065132   0.0000853099  -0.0001162876
        0.0000400617   0.0044778336   0.0054666647  -0.0022827304  -0.0076251283
       -0.0039913747  -0.0151369719
        0.0810657042   0.1797389215   0.4965035197   0.0196308086  -0.0855686798
       -0.1858775190   0.0551463788  -0.0191401407   0.0083599538   0.0017723649
       -0.0058520526  -0.0156886911  -0.0002606836  -0.0002633520   0.0014159896
       -0.0005662747  -0.0002504175  -0.0006876532   0.0002003338   0.0007729982
        0.0008918129  -0.0007262700  -0.0004462675  -0.0004248155   0.0002078203
        0.0004593660   0.0001354229  -0.0011038241  -0.0010922849  -0.0006417077
        0.0018360535   0.0004581326   0.0013690071   0.0016228491   0.0028829436
       -0.0001616303  -0.0012168987  -0.0042210424  -0.0003894675  -0.0004886320
        0.0024608832   0.0002474593  -0.0013909729  -0.0020910478   0.0003683826
        0.0007925585   0.0043780513   0.0006262481   0.0020172638  -0.0029289503
       -0.0015700661  -0.0000495123  -0.0004238395  -0.0001127101   0.0002718595
       -0.0000906189  -0.0000061532  -0.0008810153  -0.0001258115  -0.0003477736
        0.0009992459   0.0005285962   0.0002067057  -0.0000494088  -0.0006264784
        0.0002115103   0.0003085974   0.0003646470  -0.0001224677  -0.0006311756
       -0.0000809573   0.0000719271   0.0002913047   0.0000782828   0.0002119947
        0.0001128658  -0.0000312271   0.0000376118  -0.0001033391  -0.0001494296
       -0.0003384010  -0.0000300798   0.0005288447   0.0001294006   0.0000630057
       -0.0005374429   0.0002618896  -0.0005691946  -0.0001401591  -0.0002451638
       -0.0709239606   0.0243462689  -0.0077254412  -0.0567197678  -0.0698631664
       -0.2182526001  -0.0249408525   0.0038913902  -0.0436735897   0.0079129394
       -0.0156948583  -0.0197840093  -0.0019082031  -0.0015571511   0.0025628206
       -0.0002101566   0.0000991567  -0.0000458172   0.0000129549   0.0000199346
       -0.0000319085   0.0000226374  -0.0000093194  -0.0000438986  -0.0000231426
       -0.0000036584   0.0000527752   0.0000436234  -0.0000447624  -0.0000606433
        0.0000768986   0.0000333378  -0.0001266498  -0.0000390101  -0.0000413729
       -0.0001282968   0.0000520764  -0.0000314447   0.0001410211   0.0000226145
       -0.0000055779  -0.0000366423  -0.0000163901  -0.0000154485  -0.0000321941
        0.0000130138  -0.0000089832   0.0000070992   0.0000167953   0.0000067683
        0.0000171881   0.0000042894   0.0000122654   0.0000087582  -0.0000069905
        0.0000588384   0.0000804106   0.0000422193  -0.0000007840  -0.0000647506
       -0.0000276774   0.0000839244   0.0001453722   0.0001490826  -0.0001030511
       -0.0000182072  -0.0010662674  -0.0022057435   0.0026656694  -0.0107584591
       -0.0075580305  -0.0200910818
       -0.1139753956   0.0397530755   0.0196308086   0.5881317965  -0.1363269882
        0.1071569512  -0.2990587455   0.1109603629   0.0063889862  -0.0560385438
       -0.0094608350  -0.0569584569   0.0054594021   0.0031118710   0.0008070867
       -0.0051922411  -0.0002628011  -0.0026693481   0.0014272068   0.0027749607
        0.0011758576  -0.0028668268   0.0000170875  -0.0028947000   0.0020288337
       -0.0005078699   0.0020565429  -0.0010570798  -0.0008585871  -0.0012310396
        0.0033299520  -0.0014676983   0.0026724877  -0.0047560955  -0.0043223293
       -0.0037978042   0.0023107678   0.0030024714   0.0018604650  -0.0021579775
       -0.0015740299   0.0004380735   0.0041024871   0.0012460802  -0.0009693561
        0.0001574825  -0.0047112189   0.0008020806   0.0040390367   0.0041218740
       -0.0000015898  -0.0024741299  -0.0015841054  -0.0007455554   0.0024673709
       -0.0031848097   0.0009175689  -0.0059193892   0.0002748935  -0.0026257214
        0.0057026502   0.0012368174   0.0017753065  -0.0002326949  -0.0018814327
        0.0009213029   0.0024787723   0.0018175691  -0.0000069989  -0.0049021370
        0.0025713882  -0.0031687846   0.0057043196  -0.0022695182   0.0035019928
        0.0001511905   0.0029788320  -0.0012874910   0.0015122693   0.0004586287
        0.0001956880  -0.0025257513   0.0017163148  -0.0015864761   0.0007078416
       -0.0031424586   0.0016063444  -0.0047888383  -0.0020286119   0.0004017452
       -0.0230091857   0.0085634502   0.0036532271   0.0405068449  -0.0067104702
        0.0182148338  -0.0136792045   0.0168746163   0.0193649830  -0.1141839405
       -0.0289442280  -0.1120494887  -0.0139559812   0.0062273356   0.0009610496
       -0.0001042939   0.0004502343  -0.0001602776   0.0000242236   0.0000750481
       -0.0000174408   0.0000054080   0.0000637941   0.0001341912   0.0000314051
       -0.0000699791   0.0001561125   0.0000580518  -0.0001828482   0.0000903772
       -0.0001345391   0.0000676363  -0.0001662878  -0.0000611592  -0.0000821146
       -0.0002929117   0.0000262574  -0.0000607743  -0.0001968665   0.0001517696
        0.0000086821   0.0000333171  -0.0000098939  -0.0001712206  -0.0000309232
        0.0000547778  -0.0000355906   0.0000219245   0.0001564304   0.0000002617
        0.0000539999   0.0000364189   0.0000126263  -0.0000147722   0.0000224289
        0.0000884821   0.0001600482   0.0000345169   0.0001251151  -0.0000570920
        0.0000019421   0.0000683871  -0.0000009708  -0.0000323443  -0.0000194514
        0.0001077925   0.0002727182   0.0005508342   0.0000362751   0.0000218153
        0.0006412403  -0.0043670671
        0.0743361381  -0.1240118525  -0.0855686798  -0.1363269882   0.2707632519
        0.1873447127   0.0691573226  -0.0860243213  -0.0224748269   0.0157935893
        0.0053343933   0.0197504004  -0.0040104206   0.0025318224  -0.0051068067
        0.0031011176  -0.0002553523   0.0007680660  -0.0010315349  -0.0016951902
       -0.0009016748   0.0019614796   0.0001035209   0.0019861928  -0.0014253141
        0.0003095541  -0.0014091956   0.0007863759   0.0005296703   0.0009588429
       -0.0025608774   0.0007841276  -0.0018061713   0.0033607050   0.0031452382
        0.0024524440  -0.0017191847  -0.0031013803  -0.0010981925   0.0018248105
        0.0012997088  -0.0002663285  -0.0033346722  -0.0009827074   0.0006499082
       -0.0002077593   0.0038410469  -0.0007270884  -0.0035105174  -0.0036333072
        0.0004672025   0.0021901839   0.0015474528   0.0005184585  -0.0018687685
        0.0024720231  -0.0007083276   0.0045778216  -0.0001295620   0.0019885966
       -0.0044234600  -0.0008870240  -0.0014051864   0.0001060710   0.0015247130
       -0.0007593197  -0.0018327411  -0.0015064182   0.0001296557   0.0036445239
       -0.0020097765   0.0023278093  -0.0044238606   0.0015639608  -0.0025932098
       -0.0002629695  -0.0021793682   0.0008748869  -0.0011035925  -0.0003325457
       -0.0000324670   0.0020730127  -0.0013478796   0.0011657497  -0.0005852422
        0.0023823221  -0.0012616995   0.0037734718   0.0016803624  -0.0002516975
        0.0137102083  -0.0061130701   0.0053295962  -0.0270954685  -0.0080460382
       -0.0374876014   0.0057839506  -0.0058251740  -0.0075342795  -0.0280064056
       -0.0501372925  -0.0519917760   0.0169347564  -0.0060674093  -0.0005370686
       -0.0000137731  -0.0003230715   0.0000544188  -0.0000260032  -0.0000231733
        0.0000175816  -0.0000005082  -0.0000499505  -0.0000849725   0.0000147270
        0.0000363318  -0.0001353537  -0.0000462896   0.0000916904  -0.0000542753
        0.0002214736  -0.0000924093   0.0000617135   0.0000612763   0.0000685619
        0.0002401306   0.0000285377   0.0000305658   0.0001447884  -0.0001014754
       -0.0000125913  -0.0000352008   0.0000059890   0.0001278891   0.0000199800
       -0.0000193816   0.0000118134  -0.0000145709  -0.0000908900   0.0000115878
       -0.0000471864  -0.0000186720   0.0000448055   0.0000100856   0.0000166185
       -0.0000420377  -0.0001410625  -0.0000453083  -0.0000293741   0.0000616239
       -0.0000034194  -0.0000317458  -0.0000237077  -0.0000407664   0.0000417929
        0.0000317132  -0.0001148161  -0.0005158478   0.0004963034   0.0007869196
        0.0051276636  -0.0033929342
        0.0848329174  -0.1123144491  -0.1858775190   0.1071569512   0.1873447127
        0.5373978585  -0.0646973192   0.0047987998  -0.0830929029  -0.0139401001
        0.0047988965  -0.0043156807  -0.0054682412  -0.0055925094  -0.0045993905
        0.0005702448   0.0001327815   0.0004276519  -0.0009902738  -0.0010727069
       -0.0008859560   0.0014639534   0.0002219421   0.0013918481  -0.0009854115
        0.0001692746  -0.0009529700   0.0007836010   0.0004643809   0.0006804753
       -0.0021319971   0.0001970452  -0.0015378778   0.0032415623   0.0010016445
        0.0022781407  -0.0008694324  -0.0003254691  -0.0007861396   0.0021959479
       -0.0001850626  -0.0005666944  -0.0027030556   0.0001095283   0.0005437207
       -0.0003739852   0.0013955139  -0.0007328105  -0.0042833778  -0.0016504500
        0.0011168168   0.0018134640   0.0011855406   0.0004962487  -0.0015105990
        0.0020534744  -0.0005356933   0.0040081228  -0.0000369835   0.0016807868
       -0.0039140290  -0.0008380713  -0.0012435488   0.0000218395   0.0014766887
       -0.0007471187  -0.0014893836  -0.0014732169   0.0001949689   0.0031040961
       -0.0016684572   0.0019911849  -0.0038265684   0.0012342420  -0.0022414909
       -0.0002854668  -0.0018639122   0.0007164832  -0.0009756737  -0.0003347122
        0.0000196952   0.0018330255  -0.0010874077   0.0010271416  -0.0003668829
        0.0019985858  -0.0011943698   0.0032950395   0.0016747088  -0.0002429195
        0.0121465195   0.0024709005   0.0080469040  -0.0216045752  -0.0215745362
       -0.0541211249  -0.0002098024   0.0004661778   0.0015415242  -0.1120043678
       -0.0513190379  -0.2150112487   0.0203465412  -0.0080716613   0.0005380934
       -0.0000561036  -0.0003018338   0.0000483275  -0.0000266289   0.0000043349
       -0.0000086585   0.0000056508  -0.0000422524  -0.0000599216   0.0000101000
        0.0000075861  -0.0001213278  -0.0000392835   0.0000361059   0.0000096727
        0.0000368539   0.0002233570   0.0000578187   0.0000400902   0.0000300063
        0.0002457634   0.0000372340   0.0000265280   0.0000867543  -0.0000943406
       -0.0000325013  -0.0000235891  -0.0000085716   0.0001027701   0.0000602763
       -0.0000087973  -0.0000136286   0.0000082698  -0.0000650442   0.0000102712
       -0.0000082396  -0.0000023792   0.0000535234  -0.0000083554   0.0000427334
       -0.0000224641  -0.0001092787  -0.0000157533  -0.0000220769   0.0000035835
        0.0000227769  -0.0000818721   0.0000034565  -0.0002928496  -0.0000407396
        0.0000823233   0.0001391357   0.0000704954   0.0006394054  -0.0039081065
       -0.0037938043  -0.0023103679
       -0.0402618991   0.0469754519   0.0551463788  -0.2990587455   0.0691573226
       -0.0646973192   0.5880307933  -0.1710664169   0.0462195245  -0.1023167304
       -0.0077679976  -0.0548599161  -0.0455575797  -0.0065666309  -0.0309495956
        0.0027285606   0.0046425656   0.0018384162  -0.0011345333  -0.0026579181
       -0.0010870104   0.0033205421  -0.0001915382   0.0032725823  -0.0023817579
        0.0007912174  -0.0024483049   0.0006443982   0.0007925237   0.0009531353
       -0.0051732583   0.0008890907  -0.0036250385   0.0057441881   0.0063173559
        0.0021131585  -0.0044723486  -0.0068569302  -0.0028700879   0.0017578846
        0.0040407703  -0.0001905873  -0.0055835903  -0.0032553479   0.0012154999
        0.0002457834   0.0093189091  -0.0006320977  -0.0026464265  -0.0085129731
       -0.0011701773   0.0033546057   0.0021020223   0.0008779072  -0.0028304876
        0.0038236211  -0.0010595665   0.0069949119  -0.0002585042   0.0031123572
       -0.0067637033  -0.0013512371  -0.0021003703   0.0001908821   0.0023254326
       -0.0012132980  -0.0026546938  -0.0022719839   0.0001828337   0.0054256356
       -0.0030711560   0.0037034703  -0.0067075428   0.0026365197  -0.0039784534
       -0.0004412388  -0.0034434717   0.0013861452  -0.0015477287  -0.0006919939
       -0.0002688646   0.0030177739  -0.0020042278   0.0019200734  -0.0005750826
        0.0040090194  -0.0017030910   0.0056373015   0.0024953030  -0.0009283357
        0.0262142794  -0.0133125940  -0.0094895794  -0.0210532025   0.0021000731
       -0.0102528923   0.0003354372   0.0030366280   0.0012154370  -0.0182049912
        0.0052831295  -0.0046034882  -0.0820712182   0.0599463501   0.0731196182
       -0.0000459660  -0.0006942929   0.0001442697  -0.0000481141  -0.0001224037
        0.0000084239  -0.0000186973  -0.0001088654  -0.0001806103  -0.0001699263
        0.0000087295  -0.0003112596  -0.0000092996   0.0000473456  -0.0000545116
        0.0001564111   0.0011594616  -0.0002902638   0.0000628102   0.0000678081
        0.0002987614   0.0000394526   0.0000090194   0.0003610870  -0.0001200677
       -0.0000268533  -0.0000821288  -0.0000221394   0.0001695177   0.0000094029
       -0.0000661266   0.0000254679  -0.0000059486  -0.0001767969   0.0000021207
       -0.0000700972  -0.0000419419   0.0000109400   0.0000093729  -0.0000146718
       -0.0000819858  -0.0001774274  -0.0000487853  -0.0001555857   0.0000575427
       -0.0000143170  -0.0000785518   0.0000806632  -0.0011134828  -0.0002183590
        0.0002031072  -0.0001311245   0.0028240648   0.0022583797  -0.0004234351
       -0.0002399623  -0.0004072267
        0.0192160748  -0.0166173336  -0.0191401407   0.1109603629  -0.0860243213
        0.0047987998  -0.1710664169   0.2869550304   0.1937785661  -0.0217821524
       -0.0727720788  -0.0627795913   0.0006270507   0.0038073893   0.0064005422
        0.0017945270   0.0003746282  -0.0001992602  -0.0003289891  -0.0007296806
       -0.0000272378   0.0003575397   0.0000574189   0.0005389541  -0.0003380674
       -0.0000852239  -0.0002946610  -0.0000564196   0.0003258032   0.0002801228
       -0.0001492335   0.0002215277  -0.0002862363   0.0033213043   0.0028672258
        0.0017668875  -0.0003835353  -0.0067254221  -0.0000290331  -0.0004863167
        0.0029186330   0.0007772523  -0.0014523970  -0.0019088577   0.0000699303
        0.0002001530   0.0043885797   0.0001564215   0.0005009780  -0.0034816482
       -0.0005887119   0.0009018870   0.0004803827   0.0002200010  -0.0003280105
        0.0007360392  -0.0000894955   0.0011214347   0.0001898907   0.0003848314
       -0.0012209566  -0.0000673483  -0.0004598209  -0.0001918337   0.0006039586
       -0.0004157054  -0.0000197567  -0.0006912159   0.0002974542   0.0002734993
       -0.0006176061   0.0005521192  -0.0012384552  -0.0001135379  -0.0004963470
       -0.0005985839  -0.0002404125  -0.0001452509   0.0000725085  -0.0003200800
        0.0000756023   0.0004308842  -0.0002426245   0.0004327283   0.0005431907
        0.0007762034   0.0000975754   0.0007806536   0.0004350639  -0.0003974099
       -0.0101334973  -0.0050485496  -0.0179435963   0.0074315919  -0.0011791090
        0.0109400654   0.0033278445   0.0028081843  -0.0048987412  -0.0052223325
        0.0020378094  -0.0006163273   0.0592304796  -0.1144831866  -0.1084733567
        0.0000019211  -0.0001324341  -0.0001229465  -0.0000014885   0.0000009345
        0.0000175358   0.0000670924  -0.0000055060  -0.0000828842  -0.0000079272
        0.0000083851  -0.0000190368   0.0000194087   0.0000503039  -0.0000737806
        0.0006530135  -0.0012067754   0.0003504168   0.0000007843  -0.0000087381
        0.0000632208   0.0000822307  -0.0000849488   0.0001141327   0.0000040253
        0.0000277326  -0.0000202255  -0.0000249468  -0.0000061805   0.0000085890
        0.0000367520  -0.0000316522   0.0000456941   0.0000303355   0.0000242525
        0.0000158774   0.0000434384   0.0000596666  -0.0000162942   0.0000230789
        0.0000519760  -0.0000108122  -0.0000184754  -0.0000213820  -0.0000678459
       -0.0000654645   0.0001212050  -0.0000312778   0.0002767458  -0.0000747557
       -0.0001768356   0.0029117438   0.0024531159  -0.0047174632  -0.0001272776
        0.0001392688   0.0004370053
        0.0092830424   0.0006995399   0.0083599538   0.0063889862  -0.0224748269
       -0.0830929029   0.0462195245   0.1937785661   0.5047896613  -0.0948291682
       -0.0496535676  -0.2018612587  -0.0213855202   0.0024456154  -0.0061439487
        0.0040901957   0.0001513582   0.0027510510  -0.0007420122  -0.0014271069
       -0.0003760557   0.0017626910  -0.0003732613   0.0018858433  -0.0014629260
        0.0006071815  -0.0014779397   0.0002525425  -0.0000532818   0.0006513024
       -0.0018299923   0.0014349244  -0.0014423361   0.0067657870   0.0055488842
        0.0021830979  -0.0034840315  -0.0057228101  -0.0022763629   0.0016798640
        0.0030759517  -0.0005223429  -0.0050955589  -0.0030237415   0.0011761348
        0.0003891284   0.0083047743  -0.0003272346  -0.0020374924  -0.0069150045
       -0.0010651848   0.0026467447   0.0013642544   0.0006121892  -0.0020925655
        0.0028936284  -0.0006596046   0.0050359577  -0.0001112150   0.0021284910
       -0.0048701911  -0.0008140278  -0.0016291250  -0.0000184256   0.0016923702
       -0.0009895208  -0.0018142517  -0.0018632218   0.0001843547   0.0038027431
       -0.0023641061   0.0029251320  -0.0051803550   0.0019398071  -0.0030361554
       -0.0004088985  -0.0027960220   0.0010919411  -0.0014910133  -0.0007400191
       -0.0003306973   0.0024236683  -0.0013274304   0.0017028027  -0.0004838570
        0.0023799852  -0.0013052085   0.0041776783   0.0021056668  -0.0007803635
        0.0065465485  -0.0253761449  -0.0433953600  -0.0037755855   0.0065635375
        0.0037990816   0.0012042401  -0.0052790222  -0.0011689075  -0.0243075739
        0.0068419377  -0.0042052115   0.0725979643  -0.1086365145  -0.1775847895
       -0.0001509337  -0.0007104755   0.0000884727   0.0000087352  -0.0000007394
       -0.0000224221   0.0000524452  -0.0000919693  -0.0001368817   0.0000093404
        0.0000382385  -0.0001064778   0.0000014227   0.0000470094  -0.0000647730
       -0.0006632854   0.0015458175  -0.0000946282  -0.0000450240   0.0000269401
        0.0002182768   0.0000525093  -0.0000158575   0.0003295208  -0.0001092351
       -0.0000249604  -0.0000956371  -0.0000271952   0.0001061372   0.0000642592
        0.0000008405  -0.0000267293   0.0000285627  -0.0000709183   0.0000294077
        0.0000043658   0.0000107595   0.0000895688  -0.0000127445   0.0000428285
        0.0000383109  -0.0000631348   0.0000061087  -0.0000472056  -0.0000770844
       -0.0000508506   0.0000309703   0.0001304236   0.0010321947   0.0006842698
       -0.0003984337   0.0004945303  -0.0048744391  -0.0008494565  -0.0005521609
        0.0002790474   0.0004872659
        0.0187836526  -0.0095692764   0.0017723649  -0.0560385438   0.0157935893
       -0.0139401001  -0.1023167304  -0.0217821524  -0.0948291682   0.5198344637
       -0.1120786169   0.0763030900  -0.2032153454   0.0537451801  -0.0197635877
       -0.0393910144  -0.0041325410  -0.0235619235   0.0018610274   0.0070098713
        0.0032176673  -0.0044615592  -0.0001490785  -0.0045353310   0.0031696724
       -0.0004620002   0.0031279410  -0.0022088046  -0.0010187126  -0.0030837938
        0.0056281703  -0.0030785087   0.0042565297  -0.0233923135   0.0116773771
        0.0091626476   0.0036070902   0.0103427605   0.0015700211   0.0002075789
       -0.0072687394  -0.0015820920   0.0052850099   0.0050959036  -0.0005062595
       -0.0000266830  -0.0133726031   0.0009850394   0.0030530419   0.0136697358
        0.0007055980  -0.0050391243  -0.0045259571  -0.0015678172   0.0044885068
       -0.0047028350   0.0013485018  -0.0098731285   0.0000184176  -0.0043176465
        0.0099469648   0.0025350944   0.0028516873  -0.0001384681  -0.0041877837
        0.0022367047   0.0029038664   0.0035813468  -0.0005957275  -0.0065207640
        0.0032044993  -0.0043922209   0.0077486491  -0.0031115063   0.0050045863
        0.0008011654   0.0044786096  -0.0019133211   0.0020970015   0.0008852525
        0.0003576316  -0.0038421378   0.0021011822  -0.0027320687   0.0009393757
       -0.0049133667   0.0017812115  -0.0080662368  -0.0028748459   0.0013668340
       -0.0871400404   0.0412359180   0.0607497615  -0.0473470029   0.0193100401
        0.0048158349   0.0009832225  -0.0002629547  -0.0000392727  -0.0035727138
        0.0036006003  -0.0013483246   0.0054975804   0.0021194165   0.0094830555
        0.0002104511   0.0001311191   0.0005511417   0.0003893108   0.0005392386
       -0.0000074732   0.0001300139   0.0001192171   0.0003599357   0.0001580546
       -0.0002222594   0.0004288095  -0.0000841710  -0.0003140999   0.0001903997
        0.0007166394  -0.0008421921   0.0000386910  -0.0000599762  -0.0004594113
       -0.0003507151   0.0000138700   0.0000317042  -0.0005702845   0.0002713595
       -0.0000411714   0.0000327795   0.0000187743  -0.0002272041   0.0000697657
        0.0000914345  -0.0001288489  -0.0000333409   0.0002470191  -0.0000620358
        0.0000521196   0.0000093207   0.0000322798   0.0000350181   0.0000897870
        0.0000487844   0.0001940124   0.0000307673   0.0002914604   0.0000388579
        0.0000734638   0.0001683767  -0.0000927160   0.0004827895   0.0000513806
        0.0009998930   0.0062729025  -0.0066375856  -0.0122571328  -0.0033072399
        0.0046079312  -0.0020678148
       -0.0083644782  -0.0066247266  -0.0058520526  -0.0094608350   0.0053343933
        0.0047988965  -0.0077679976  -0.0727720788  -0.0496535676  -0.1120786169
        0.2917950076   0.1909390456   0.0460585200  -0.0815070368  -0.0168391610
       -0.0065366045   0.0099949445   0.0075741292  -0.0030248846  -0.0023433972
       -0.0024129200   0.0013182576   0.0003116868  -0.0000026155  -0.0003063320
       -0.0000544516  -0.0003345296   0.0011306463   0.0005686238   0.0000283623
       -0.0040877704  -0.0012134571  -0.0027929139   0.0281901106  -0.0151802230
       -0.0028300051   0.0022568194  -0.0002477332   0.0005238412   0.0022350734
       -0.0015255765  -0.0010635200  -0.0018955052   0.0009295842   0.0001843688
        0.0002865724  -0.0007524395  -0.0011084900  -0.0034020595  -0.0028134379
        0.0002321583   0.0008242530   0.0006527315   0.0010480936  -0.0011060250
        0.0013867608  -0.0002187477   0.0032233173   0.0000781145   0.0013117075
       -0.0032827827  -0.0009624854  -0.0009658681   0.0000103382   0.0015171924
       -0.0007490357  -0.0009752209  -0.0012412332   0.0002236219   0.0023098339
       -0.0010768555   0.0014388435  -0.0027105789   0.0009122191  -0.0017571918
       -0.0003002168  -0.0014103079   0.0005962124  -0.0006580036  -0.0002643241
        0.0000432640   0.0012004290  -0.0008706528   0.0007334076  -0.0000775793
        0.0015937580  -0.0006119235   0.0023078886   0.0015104163  -0.0006718436
        0.0333348157  -0.1100539366  -0.0982604441   0.0405176630  -0.0153406709
        0.0025128547  -0.0003117962   0.0001429304  -0.0003876004   0.0047028271
        0.0058067148  -0.0026236116  -0.0069298562  -0.0046363171  -0.0153862719
       -0.0012176714  -0.0007555069   0.0004502700  -0.0001327144  -0.0001833196
       -0.0000172861  -0.0001926827  -0.0000249723   0.0001262112  -0.0001391016
       -0.0000996627  -0.0002670528   0.0000724298  -0.0001607577   0.0003107380
        0.0006107127  -0.0019306182   0.0008769364   0.0000178269   0.0002411923
        0.0000176855   0.0000053165   0.0000098391   0.0001316463  -0.0000722129
       -0.0001581734   0.0000102210   0.0000155095   0.0000687658   0.0000251861
       -0.0000315904   0.0000436341   0.0000015425  -0.0000848398   0.0000168085
       -0.0000025992  -0.0000112540  -0.0000405042  -0.0000239530  -0.0000317722
       -0.0000493352  -0.0000702144  -0.0000208538  -0.0001027265   0.0000217440
        0.0000594236  -0.0000988073   0.0000134154  -0.0002142493   0.0000721582
       -0.0001515857   0.0012702816  -0.0040328472  -0.0068444187   0.0034672203
        0.0055410970  -0.0022749804
        0.0009791352  -0.0066009405  -0.0156886911  -0.0569584569   0.0197504004
       -0.0043156807  -0.0548599161  -0.0627795913  -0.2018612587   0.0763030900
        0.1909390456   0.4876572957  -0.0188162609  -0.0098878407  -0.0483137438
       -0.0194145006   0.0006330434  -0.0079125791  -0.0006961169   0.0000322332
       -0.0014152517   0.0015006507   0.0002768214   0.0011386588  -0.0007561662
       -0.0000092470  -0.0006650413   0.0005309452   0.0010848254  -0.0002197039
       -0.0050950790  -0.0026696926  -0.0020948811   0.0107019787  -0.0053227310
       -0.0004420607   0.0005003481   0.0008640233  -0.0007878981  -0.0004930075
       -0.0000691328   0.0004681367   0.0011932143   0.0008418687  -0.0007129208
        0.0003761252  -0.0015681532  -0.0008546033  -0.0001730825  -0.0045149950
        0.0022717320   0.0007060436   0.0019833926  -0.0005145612  -0.0008617391
        0.0001642443  -0.0003403469   0.0012208962  -0.0000333763   0.0006753420