$hessian                                                                        
        0.2261043046  -0.1307751587  -0.0594110503  -0.1706300382   0.0981940508
        0.0449853114  -0.0487953931   0.0288588084   0.0134980142  -0.0034391518
       -0.0054729346  -0.0020705483  -0.0027342921   0.0016438874   0.0002202415
        0.0003226494   0.0013692851   0.0012834336  -0.0004299635   0.0001370483
       -0.0000319934   0.0000753648  -0.0005451680  -0.0001004753  -0.0000332877
       -0.0001457274   0.0000226112   0.0000804525  -0.0000008338   0.0000304561
       -0.0000611011   0.0001608738  -0.0000701875  -0.0001898062   0.0004393501
        0.0000792680  -0.0001339169  -0.0016614049  -0.0012195306  -0.0004477657
        0.0004144789   0.0002496233   0.0004326826   0.0005091927   0.0000443932
        0.0000234691   0.0002039830  -0.0000663243   0.0000827027  -0.0000467717
       -0.0000515127  -0.0001174438  -0.0001293133   0.0001275359  -0.0004645174
       -0.0004549355  -0.0000341686   0.0006615656   0.0000655356  -0.0000320260
       -0.0011223816  -0.0003149358   0.0000097979   0.0015136579   0.0002560534
        0.0010179898  -0.0075980037   0.0073753045   0.0038869176   0.0051230490
       -0.0016332536  -0.0019085477   0.0004798747  -0.0000195324  -0.0000423681
       -0.0000585453  -0.0002607945  -0.0001104667   0.0001615201  -0.0000702981
        0.0000442045  -0.0001758469   0.0000530263  -0.0001208274  -0.0000023305
       -0.0003402311   0.0002872047  -0.0003328693   0.0008832987  -0.0005471658
        0.0005061641  -0.0004462702   0.0002492849   0.0008229853   0.0002384722
        0.0004826335  -0.0000124960   0.0001758782  -0.0004766303  -0.0003056078
       -0.0003419901   0.0002486305   0.0002949658  -0.0003468190   0.0001659010
       -0.0003231629  -0.0009531773  -0.0013636286  -0.0008384431   0.0009054669
       -0.0004312335   0.0026393804   0.0012240391   0.0003559405   0.0000672846
        0.0000752577   0.0000606383  -0.0000957505   0.0000558258  -0.0000287959
       -0.0000789370  -0.0000081523  -0.0000231030  -0.0000753584  -0.0000768702
       -0.0000214166   0.0001045183   0.0000634681  -0.0000225272   0.0000196793
       -0.0000904576  -0.0000740209  -0.0001091383  -0.0000131289   0.0000449357
       -0.0000566294   0.0000455569   0.0000392632  -0.0000309586   0.0001226104
        0.0000390898   0.0000704639  -0.0000260900   0.0000075230  -0.0003806227
        0.0002273321   0.0000773332  -0.0000790936   0.0000381405   0.0001801808
       -0.0000343514   0.0000256964   0.0000032966   0.0000061254   0.0000245793
       -0.0000049993   0.0000299441   0.0000392237   0.0000100906  -0.0000458185
        0.0000646522   0.0000492467  -0.0000454221   0.0000685311   0.0000179669
       -0.0000014463   0.0000571856   0.0000264499  -0.0003429131   0.0001581560
        0.0004181398
       -0.1307751587   0.1524982350   0.0613376365   0.0967060617  -0.1228695924
       -0.0416598109   0.0034050109   0.0046456743   0.0005350433  -0.0007781113
        0.0018166485  -0.0028922962  -0.0004201804   0.0003763540  -0.0000144981
       -0.0004111507  -0.0019945876  -0.0010526073   0.0002399197   0.0000106404
        0.0001429605  -0.0000946400   0.0004290024   0.0000815036   0.0000161336
        0.0001097590  -0.0000413573  -0.0000676065   0.0000236164  -0.0000276768
        0.0000427621  -0.0001155796   0.0000485335   0.0001533685  -0.0003795543
       -0.0000453022   0.0004504893   0.0016452012   0.0012315681   0.0004064314
       -0.0002603533  -0.0003137246  -0.0003532427  -0.0004448315  -0.0000438687
       -0.0000113293  -0.0001538082   0.0000638631  -0.0000631841   0.0000464212
        0.0000437620   0.0001106418   0.0001147409  -0.0000998327   0.0003484344
        0.0004015557   0.0000616137  -0.0009336822   0.0001888095   0.0005182564
        0.0010473414   0.0003957060   0.0000105015  -0.0044692297  -0.0055907640
       -0.0046316229   0.0336748453  -0.0313966745  -0.0157295836  -0.0014586983
        0.0024916034   0.0019781425   0.0003820492   0.0010037213  -0.0003104578
       -0.0000249998   0.0001468404   0.0001519639  -0.0001386602   0.0000970094
       -0.0000851269   0.0001472875  -0.0000563577   0.0000899668   0.0000529288
        0.0002893714  -0.0002671013   0.0002744953  -0.0004526225   0.0003164065
       -0.0003871948   0.0002048097  -0.0001800559  -0.0002493284  -0.0000961804
       -0.0003213722   0.0001113982  -0.0001759360   0.0003159569   0.0002067483
        0.0002275659  -0.0001958934  -0.0001113757   0.0000586041  -0.0000300014
       -0.0003614420   0.0005180800   0.0001198060   0.0007283541  -0.0018818663
        0.0001491328   0.0003791415   0.0000385136   0.0017583277  -0.0000589351
       -0.0000625457  -0.0000499812   0.0000702034  -0.0000431420   0.0000211569
        0.0000580032   0.0000064587   0.0000219053   0.0000690914   0.0000632325
        0.0000173799  -0.0000474950  -0.0000149330   0.0000091158   0.0000005690
        0.0000704431   0.0000473118   0.0000948200   0.0000069524  -0.0000386366
        0.0000434782  -0.0000389828  -0.0000336101   0.0000162085  -0.0000965277
       -0.0000282803  -0.0000757176   0.0000187942  -0.0000119223   0.0016909623
       -0.0014781305  -0.0003845029   0.0000374832   0.0000414960  -0.0002080764
        0.0000353595  -0.0000553222   0.0000329212  -0.0000216458  -0.0000503631
        0.0000335933  -0.0000555111  -0.0000366382   0.0000100911  -0.0000018271
       -0.0000241870  -0.0000329800  -0.0000055717  -0.0000089783  -0.0000341200
       -0.0000117699   0.0000246408  -0.0000937724   0.0003876662  -0.0002320427
       -0.0002903480
       -0.0594110503   0.0613376365   0.0495115901   0.0450520525  -0.0417438292
       -0.0504070037   0.0027747229  -0.0001960231   0.0028302837  -0.0009654535
       -0.0026370485   0.0077099602   0.0005876857  -0.0003568836   0.0010036431
       -0.0003340236   0.0001383905  -0.0014120310   0.0001416726   0.0000561516
       -0.0000148135  -0.0000453796   0.0001651299   0.0000448596  -0.0000036173
        0.0000753156  -0.0000092177  -0.0000481163   0.0000081883  -0.0000216626
        0.0000268747  -0.0000625538   0.0000327987   0.0000822612  -0.0001638588
       -0.0000106882  -0.0003084020   0.0004865229   0.0002905330   0.0002700187
       -0.0004409933   0.0002042355  -0.0001843333  -0.0001516719   0.0000088653
       -0.0000310733  -0.0001023685   0.0000063192  -0.0000412447   0.0000359434
        0.0000297696   0.0000328773   0.0000454169  -0.0000669010   0.0001963897
        0.0001193423   0.0000018915   0.0000599452   0.0003722409  -0.0010753906
       -0.0000926938   0.0003229691  -0.0000087616  -0.0010945860  -0.0043186900
        0.0030435605   0.0134032621  -0.0145049661  -0.0039944644  -0.0003647394
        0.0019640973  -0.0008868751   0.0005456817   0.0002774404  -0.0003085649
        0.0000392028   0.0001281913   0.0001409326  -0.0000864677  -0.0000115113
        0.0000027675   0.0001032091  -0.0000711890   0.0001005608   0.0000147458
        0.0001385562  -0.0000871301   0.0000387818  -0.0000367878  -0.0000754389
       -0.0003367189  -0.0002814547   0.0002850101   0.0003276655   0.0005067886
       -0.0004849760   0.0000489345  -0.0000696219   0.0001057183   0.0000713157
        0.0000212060   0.0000072346   0.0002039546  -0.0002398608   0.0001117019
       -0.0006085647  -0.0004379663  -0.0014005690  -0.0007937819  -0.0011542407
       -0.0007910763   0.0000930262   0.0016859843  -0.0032735618  -0.0000253625
       -0.0000230264  -0.0000238271   0.0000261245  -0.0000194983   0.0000075301
        0.0000264305   0.0000072956   0.0000060997   0.0000251549   0.0000348928
        0.0000014838  -0.0000296306   0.0000021177  -0.0000028844   0.0000024925
        0.0000468553   0.0000253360   0.0000338715   0.0000089531  -0.0000125187
        0.0000265577  -0.0000180599  -0.0000024677   0.0000100934  -0.0000454471
       -0.0000065364  -0.0000237213   0.0000177749   0.0000069005   0.0006779461
       -0.0005417088  -0.0003646111   0.0000327002  -0.0000175769  -0.0001120863
        0.0000120590  -0.0000312990   0.0000179262  -0.0000159142  -0.0000225344
        0.0000135859  -0.0000185653  -0.0000191842  -0.0000132943  -0.0000462184
       -0.0000278235  -0.0000393962  -0.0000306540   0.0000063966  -0.0000215493
       -0.0000031854   0.0000139482   0.0000052710  -0.0000442127  -0.0002760686
       -0.0006280710
       -0.1706300382   0.0967060617   0.0450520525   0.6644170033   0.0445056023
        0.0112102644  -0.3321129477  -0.1284295770  -0.0516990259  -0.0707028346
        0.0324912596   0.0129259019   0.0186901362   0.0008623408   0.0023367878
       -0.0076413904   0.0103914493   0.0044685939   0.0001638860   0.0001171079
       -0.0001872649  -0.0002135060   0.0002697201  -0.0001334066   0.0000411416
        0.0001321533   0.0000551677  -0.0000471854  -0.0001060369   0.0000127994
       -0.0000686275  -0.0000554247   0.0000032589   0.0002316128  -0.0001468857
       -0.0000862132  -0.0054731103  -0.0064413694  -0.0029078367  -0.0003313214
        0.0003752822   0.0001630298   0.0000832661  -0.0002147976   0.0000529026
       -0.0000056781  -0.0000343469   0.0000294742   0.0000387894   0.0000734602
       -0.0000317580  -0.0001362845   0.0000929834   0.0000683973   0.0002833431
       -0.0001520439  -0.0001264219   0.0075906567  -0.0036606726  -0.0018730883
       -0.0209709946  -0.0135669947  -0.0055865877   0.0339653256   0.0083468932
        0.0005774617  -0.0748259824  -0.0043986533  -0.0000491950  -0.0309359347
       -0.0326182572  -0.0079093201  -0.0024584270   0.0011378698  -0.0036408409
        0.0004940534   0.0009055161  -0.0002970599  -0.0006119509   0.0000325461
        0.0000472219   0.0007617570  -0.0002841738   0.0004634525  -0.0002563734
        0.0011047017  -0.0007504646  -0.0001835072  -0.0025555827   0.0021447410
       -0.0010219349   0.0005235225  -0.0003444870  -0.0008050062   0.0002845686
       -0.0009737871   0.0002184774  -0.0003146511   0.0010781983   0.0004852496
        0.0006993207  -0.0005513871  -0.0009238464   0.0002883644  -0.0001870385
       -0.0004270495   0.0009207175  -0.0001675675   0.0019608212  -0.0048385330
       -0.0007953448  -0.0069319386  -0.0048392678  -0.0016596398  -0.0000047014
       -0.0001739223  -0.0000004162   0.0000587134  -0.0000438495   0.0000195858
        0.0000501088  -0.0000055274   0.0000114664   0.0000413243   0.0000336971
        0.0000058249  -0.0001220123  -0.0000485882   0.0000127893   0.0000387650
        0.0001417816  -0.0000106762   0.0000641785   0.0000120424  -0.0000295376
        0.0000301103  -0.0000120317  -0.0000121173   0.0000161841  -0.0000637086
        0.0000010884  -0.0000598713   0.0000250514   0.0000190120  -0.0024376716
        0.0026132886   0.0009145833   0.0003537546   0.0001331360  -0.0002548252
        0.0000549767  -0.0000752663   0.0000205913  -0.0000281103  -0.0000791799
        0.0000129681  -0.0001190876  -0.0001503934   0.0000094786   0.0000285326
       -0.0000999456  -0.0000737051   0.0000164172  -0.0000456160  -0.0000437761
        0.0000525995  -0.0000160663  -0.0000163012   0.0002561395   0.0002509254
       -0.0013180037
        0.0981940508  -0.1228695924  -0.0417438292   0.0445056023   0.4971627055
        0.1618713069  -0.0610909412  -0.1154934209  -0.0314123726  -0.0158012859
        0.0284666723   0.0127704079   0.0217121641  -0.0030735882  -0.0024148666
       -0.0036054804   0.0140914329   0.0069218749  -0.0007224519  -0.0005713790
       -0.0002278775   0.0002569455  -0.0009261767  -0.0002675879   0.0000477028
       -0.0002374908   0.0001706170   0.0001548821  -0.0001116567   0.0000897929
       -0.0001649723   0.0002737483  -0.0001722950  -0.0002179128   0.0009009003
        0.0001085128  -0.0090531735  -0.0102973490  -0.0061214685  -0.0007799673
        0.0005857089   0.0006506436   0.0006388144   0.0007970512   0.0002249907
        0.0000836211   0.0002037783  -0.0001741542   0.0001862362   0.0000294176
       -0.0001296518  -0.0002793257  -0.0001865004   0.0002074640  -0.0005185368
       -0.0008813676  -0.0001009254   0.0134155994  -0.0037826767  -0.0019002484
       -0.0286671256  -0.0125590160  -0.0027207265   0.0532592806  -0.0424146093
       -0.0188841011  -0.0663243837  -0.2049340159  -0.0592410024  -0.0222201239
       -0.0157224658  -0.0072537566   0.0004925326   0.0008480233  -0.0004590001
       -0.0001764242   0.0012300331  -0.0008314018  -0.0003724127  -0.0006184236
        0.0002847578   0.0006699785  -0.0001351409   0.0002292404   0.0000649327
        0.0003611136  -0.0003810058  -0.0005365759  -0.0001892571   0.0003664580
       -0.0000998710  -0.0005286253   0.0003984809   0.0006215538   0.0007695327
       -0.0004060279   0.0002948097  -0.0001902570   0.0002642257   0.0003267740
        0.0000770693  -0.0001217493  -0.0003253807  -0.0001289671  -0.0000927640
        0.0002395300  -0.0013600789   0.0002896702   0.0007260451   0.0003361307
       -0.0015479678  -0.0266225538  -0.0105624125  -0.0052700800   0.0001097397
        0.0000624145   0.0001067985  -0.0001450388   0.0000806545  -0.0000475266
       -0.0001143039  -0.0000300986  -0.0000509062  -0.0001265331  -0.0001480153
       -0.0000388020   0.0000665190  -0.0000888171  -0.0000371254   0.0000474499
       -0.0000701226  -0.0001088985  -0.0001619497  -0.0000103027   0.0000691958
       -0.0000744682   0.0000780264   0.0000669611  -0.0000336845   0.0001813758
        0.0000547276   0.0000917452   0.0000604796   0.0000095772   0.0015974295
        0.0004352138  -0.0034161342   0.0007016770  -0.0002103684   0.0002473057
        0.0000124607   0.0000363193  -0.0000439176   0.0000817690   0.0000809323
        0.0000000014   0.0000725599   0.0000653750  -0.0000045690   0.0000270411
       -0.0000036797   0.0000637824   0.0000254120   0.0000249840   0.0000472147
        0.0000450709  -0.0000105653   0.0001408390  -0.0005350521   0.0011073439
       -0.0000321070
        0.0449853114  -0.0416598109  -0.0504070037   0.0112102644   0.1618713069
        0.1791903305  -0.0252534810  -0.0309764691  -0.0528163012  -0.0030406427
        0.0125682128   0.0011357310   0.0056278229  -0.0026332947   0.0038665506
       -0.0006100525   0.0028464764   0.0029819274   0.0000489488   0.0003636057
       -0.0008803076  -0.0000611447  -0.0001812036  -0.0001526260  -0.0000077223
        0.0000622856   0.0000900273   0.0000431619  -0.0000649305   0.0000134045
       -0.0000747909   0.0000758088   0.0000221697   0.0001523535   0.0001600873
        0.0000502124  -0.0023766355  -0.0028043888  -0.0007204132  -0.0003541353
        0.0004727391  -0.0000467483   0.0001951999   0.0001412437   0.0000232593
        0.0000363481   0.0000582957  -0.0000161928   0.0000475212  -0.0000069680
       -0.0000427662  -0.0000597148  -0.0000234879   0.0000763853  -0.0001487717
       -0.0002154503  -0.0000233493   0.0041713048  -0.0020656996  -0.0009089266
       -0.0119431365  -0.0038371380  -0.0047033846   0.0238191999  -0.0180537012
       -0.0099524391  -0.0319914833  -0.0650351675  -0.0719917988  -0.0027373268
       -0.0044420973   0.0013520552   0.0001049464   0.0006985243  -0.0004650799
        0.0003669331  -0.0002386624  -0.0000114320   0.0005843390   0.0003543882
       -0.0000220645  -0.0005124393   0.0002134364  -0.0002364654  -0.0001173357
       -0.0004385944   0.0003017055  -0.0003215157   0.0005565545  -0.0003574886
        0.0010395638   0.0004409553  -0.0004139992  -0.0002596010  -0.0010620369
        0.0011332413  -0.0001865821   0.0003723607  -0.0004520556  -0.0004835356
       -0.0003345868   0.0002436737   0.0004582095  -0.0000300033  -0.0000641231
       -0.0012396670   0.0001534906  -0.0010678706   0.0002590417   0.0006170548
        0.0000434095  -0.0116953348  -0.0055550272   0.0000524281   0.0000242581
        0.0000056806  -0.0000075360  -0.0000315379   0.0000088091  -0.0000146591
       -0.0000061995  -0.0000055324  -0.0000390536  -0.0000072902  -0.0000133797
       -0.0000137178   0.0000190885  -0.0000463608  -0.0000241770   0.0000070928
       -0.0000160071  -0.0000312420  -0.0000325851  -0.0000077022   0.0000066745
       -0.0000162706   0.0000093301   0.0000052027  -0.0000058150   0.0000382890
        0.0000173004   0.0000084666   0.0000484854  -0.0000011430   0.0009175412
       -0.0033826306   0.0072958500   0.0000457587  -0.0000687693   0.0000608308
       -0.0000224865   0.0000773833  -0.0000524534   0.0000393691   0.0000418856
       -0.0000573195   0.0000560257   0.0000324354   0.0000348215   0.0001067185
        0.0000320973   0.0000643975   0.0000851320  -0.0000106212   0.0000789345
        0.0000147852  -0.0000353008   0.0000364072  -0.0008774727   0.0009238000
       -0.0021827924
       -0.0487953931   0.0034050109   0.0027747229  -0.3321129477  -0.0610909412
       -0.0252534810   0.6835315785   0.0396921954   0.0170123611  -0.1589625357
        0.0811862511   0.0340545949  -0.0788870211   0.0230006072   0.0066954537
        0.0047374215  -0.0211932569  -0.0113169595  -0.0017022865   0.0009608294
        0.0010711865   0.0001284981  -0.0000812659   0.0002875355  -0.0002162301
       -0.0000962544  -0.0003455122  -0.0000220484   0.0002437844  -0.0000674294
        0.0001743412  -0.0000700788  -0.0000142020  -0.0000172961  -0.0000612712
        0.0001163477   0.0073712905   0.0116035735   0.0058996125   0.0013876803
       -0.0012983894  -0.0006907711  -0.0007153648  -0.0003552704  -0.0000962806
       -0.0000067404  -0.0001958019   0.0000185255  -0.0001734017  -0.0000254771
        0.0001212106   0.0003434610   0.0000257865  -0.0002489473   0.0001945075
        0.0008561421   0.0002733405  -0.0087500980   0.0011170317   0.0004922743
        0.0327069043   0.0307715440   0.0128210369  -0.0440158780   0.0098674826
        0.0060809328  -0.0055900404  -0.0687493000  -0.0311989723   0.0035293263
        0.0009367353   0.0015167121  -0.0004593968  -0.0016836300  -0.0007033187
       -0.0001635016  -0.0006192703   0.0003296192   0.0004752027   0.0004509728
        0.0000047568  -0.0006189210   0.0001736418  -0.0002455175  -0.0001091274
       -0.0003998994   0.0006174618  -0.0002485540   0.0006579157  -0.0007154470
        0.0008475797   0.0002294819  -0.0000508394  -0.0005331699  -0.0006302214
        0.0007283090  -0.0001954937   0.0001348808  -0.0003176379  -0.0001939906
       -0.0002049428   0.0002621240   0.0005733478   0.0001186213   0.0001732601
        0.0005311129   0.0000340959   0.0002192652  -0.0002755918   0.0003489232
        0.0012541731  -0.0535446567  -0.0490465034  -0.0214344222  -0.0000888509
        0.0001043007  -0.0000187809  -0.0000172489  -0.0000090446  -0.0000003646
       -0.0000002124   0.0000258419   0.0000391530   0.0000044530   0.0000368535
       -0.0000011746   0.0000282172   0.0002471896  -0.0000024510  -0.0000352435
       -0.0000527016   0.0000383043   0.0000455855  -0.0000010156  -0.0000125218
        0.0000238551  -0.0000323987  -0.0000256106   0.0000071913  -0.0000589657
       -0.0000488811  -0.0000052135  -0.0000235780  -0.0000187783  -0.0003043152
        0.0001685129   0.0002997114  -0.0002114772  -0.0002377731  -0.0000067796
       -0.0000210696   0.0000589732  -0.0000115345   0.0000253859  -0.0000026896
       -0.0000846703   0.0000538417  -0.0000061754  -0.0000387458   0.0000515593
       -0.0000065376   0.0000024482   0.0000607516  -0.0000559959   0.0000111300
        0.0000014516  -0.0000501570   0.0000280693   0.0001587722  -0.0001183722
       -0.0002736017
        0.0288588084   0.0046456743  -0.0001960231  -0.1284295770  -0.1154934209
       -0.0309764691   0.0396921954   0.5753923159   0.1998836213   0.1111551901
       -0.1682137566  -0.0510719438   0.0135234077   0.0076647750   0.0063811891
       -0.0055654029   0.0072716064   0.0001808000  -0.0003796550   0.0005192062
       -0.0002439488  -0.0003058239  -0.0002545427  -0.0001548764   0.0000113055
        0.0000257770   0.0000471700   0.0000299805  -0.0000378530   0.0000239910
        0.0000045313   0.0000515075  -0.0000268060  -0.0000217893   0.0001136826
       -0.0000778662  -0.0025910043  -0.0031280575  -0.0018712590  -0.0004499803
        0.0000206473   0.0007583745   0.0002045798   0.0002711563   0.0001012928
       -0.0000110862   0.0000861267  -0.0000790662   0.0000847698   0.0000184666
       -0.0000519207  -0.0001339913  -0.0000599897   0.0000649414  -0.0001126551
       -0.0004267596  -0.0000942027   0.0030770153  -0.0079257093  -0.0056900063
        0.0104613372  -0.0299231469  -0.0129567032   0.0063713084   0.0012838831
        0.0003275197  -0.0247030062  -0.0111953082  -0.0038082285  -0.0030953448
       -0.0044769658  -0.0029863778  -0.0002056916  -0.0001330527  -0.0007321328
        0.0001502035   0.0001187979   0.0000184513  -0.0001315784  -0.0000287505
        0.0000398963   0.0001170776  -0.0000607610   0.0000616862  -0.0000224613
        0.0001798349  -0.0000570441  -0.0000401633  -0.0002695257   0.0002847550
       -0.0000305456   0.0000835490  -0.0000688926  -0.0001649246   0.0001131739
       -0.0001005394   0.0000244924  -0.0000867273   0.0001525581   0.0001138139
        0.0000948124  -0.0000829265  -0.0001313471   0.0000586973  -0.0000544694
       -0.0000435517  -0.0000421351   0.0001632791   0.0002327332  -0.0005495342
        0.0002511547  -0.0475138145  -0.2562239364  -0.0973946517   0.0000327392
        0.0000033441   0.0000287303  -0.0000622219   0.0000224316  -0.0000274146
       -0.0000366475  -0.0000098613  -0.0000237995  -0.0000382687  -0.0000409226
       -0.0000053255  -0.0000048394  -0.0000064851   0.0000309909   0.0000510225
       -0.0000082747  -0.0000306557  -0.0000485089   0.0000002611   0.0000161117
       -0.0000097670   0.0000176553   0.0000248869   0.0000001207   0.0000457889
        0.0000203984   0.0000135052   0.0001037533   0.0000037826   0.0002165749
        0.0004784389   0.0002025620  -0.0001355624  -0.0000779815  -0.0000222832
        0.0000048849  -0.0000025249   0.0000090219  -0.0000028316  -0.0000166775
        0.0000106562  -0.0000201725  -0.0000260716  -0.0000010814  -0.0000013628
       -0.0000023115  -0.0000213941   0.0000144579   0.0000056723  -0.0000118587
        0.0000009832   0.0000255389  -0.0000196391  -0.0000034612   0.0000044690
       -0.0001480153
        0.0134980142   0.0005350433   0.0028302837  -0.0516990259  -0.0314123726
       -0.0528163012   0.0170123611   0.1998836213   0.1875899987   0.0464958559
       -0.0489937272  -0.0671414045   0.0029714156   0.0047285641  -0.0017227978
       -0.0030646872  -0.0006231285   0.0079606432   0.0000796702  -0.0000502704
        0.0005360801  -0.0000258501  -0.0000888546  -0.0000886574   0.0001069031
       -0.0000164489   0.0000369959   0.0000025656  -0.0000502882   0.0000209031
        0.0000305814   0.0000121283  -0.0000235910  -0.0001622100   0.0001111665
       -0.0000899158  -0.0009896386  -0.0022072572  -0.0005195898  -0.0004509236
        0.0015009530  -0.0014411819   0.0003553067  -0.0000478773  -0.0000830660
        0.0001130473   0.0000756985   0.0001205648   0.0000190241  -0.0000182122
       -0.0000244117   0.0000674002   0.0000755072   0.0001107421  -0.0002247488
        0.0000200615   0.0000964668   0.0012665282  -0.0035331046   0.0025460480
        0.0040010923  -0.0156321469  -0.0047065906   0.0035697605   0.0002994581
        0.0002518987  -0.0119627491  -0.0038162901  -0.0027541646   0.0009413470
       -0.0036858315   0.0035962731  -0.0010436423  -0.0003878206  -0.0004001775
       -0.0001172318   0.0000921705   0.0000100489   0.0000023549  -0.0000182831
       -0.0000078218  -0.0000070659   0.0000195677  -0.0000395273  -0.0000851636
       -0.0000156031   0.0000206972  -0.0000971500  -0.0002402253   0.0001857907
        0.0000449471  -0.0000260293  -0.0000135452   0.0002387507  -0.0001013433
        0.0001791867   0.0000093735   0.0000765175  -0.0001227324  -0.0000587786
       -0.0000528538   0.0000389461  -0.0000037462  -0.0000408650  -0.0000282513
        0.0000745811   0.0000510822  -0.0001573134   0.0002195860   0.0005809795
        0.0000417247  -0.0206486242  -0.0970355375  -0.0739718586   0.0000215804
       -0.0000064024   0.0000116622  -0.0000183291   0.0000059770  -0.0000001912
       -0.0000146442  -0.0000141120   0.0000021449  -0.0000281403  -0.0000306424
        0.0000020744  -0.0000341306  -0.0000437111   0.0000049615  -0.0000215978
       -0.0000305094  -0.0000674919   0.0000027283  -0.0000121966  -0.0000045527
       -0.0000206074  -0.0000000257  -0.0000214130  -0.0000189962   0.0000236737
        0.0000119526  -0.0000462144   0.0000077569  -0.0000286866   0.0000745754
        0.0001939428   0.0001352813  -0.0000143367  -0.0000063448  -0.0000253670
        0.0000025484  -0.0000171966   0.0000102758   0.0000004065  -0.0000062315
        0.0000037580  -0.0000196442  -0.0000261797   0.0000138648   0.0000014766
       -0.0000017940   0.0000064299  -0.0000077009   0.0000108229   0.0000086489
        0.0000077422  -0.0000149003   0.0000226106  -0.0003459470  -0.0000000748
       -0.0001063552
       -0.0034391518  -0.0007781113  -0.0009654535  -0.0707028346  -0.0158012859
       -0.0030406427  -0.1589625357   0.1111551901   0.0464958559   0.6595585308
       -0.0288766893   0.0036375140  -0.2529050893  -0.0839681487  -0.0483896145
       -0.0885953993   0.0562677233   0.0237933674   0.0015358222   0.0053948429
        0.0004100417  -0.0035078642   0.0002016309  -0.0011868438   0.0005071860
        0.0007789987   0.0002989866  -0.0001185040  -0.0004650191   0.0000904443
        0.0004261311   0.0000489427   0.0001356449   0.0001173695  -0.0005922902
       -0.0008958887  -0.0210787645  -0.0344197838  -0.0177676282  -0.0028682406
        0.0019520516   0.0015033608   0.0012673073   0.0008555244   0.0003938462
        0.0000918299   0.0002825132  -0.0002394327   0.0003428289   0.0000857138
       -0.0002459529  -0.0006000254  -0.0002589562   0.0005125753  -0.0003714064
       -0.0018405768  -0.0005704145   0.0314680370   0.0210273736   0.0081211738
       -0.0950534274  -0.0259494061  -0.0075409443   0.0037555124  -0.0257339275
       -0.0137745883   0.0010535566   0.0248155554   0.0116683709  -0.0030808287
       -0.0011562316  -0.0009215318   0.0001503664   0.0010637242   0.0011506182
       -0.0001134833   0.0006856814  -0.0004199383  -0.0006376080  -0.0004883234
        0.0000886984   0.0007340782  -0.0001732064   0.0002765886   0.0001520452
        0.0004346403  -0.0006496746   0.0004842914  -0.0006296624   0.0007953715
       -0.0008623130  -0.0001986192   0.0000128187   0.0006363518   0.0007450162
       -0.0007314796   0.0002948140  -0.0002307980   0.0004323577   0.0004747970
        0.0002561668  -0.0003073218  -0.0006636349   0.0000009479  -0.0002363589
       -0.0005040991  -0.0003934138   0.0003450685   0.0002029063  -0.0002449568
       -0.0014571322   0.0057803209  -0.0017737918  -0.0007468264   0.0001884201
       -0.0005238648   0.0001894314  -0.0001044139  -0.0000323133  -0.0001108927
       -0.0000230257  -0.0000645273  -0.0000326438  -0.0000347265  -0.0000871317
        0.0000270285  -0.0003078745  -0.0006628495   0.0000915895   0.0000595313
        0.0002404755  -0.0001470045  -0.0001392930   0.0000133749   0.0000726808
       -0.0000845140   0.0001085089   0.0000886440  -0.0000380062   0.0001779684
        0.0000901433   0.0001082388  -0.0000322169   0.0000841264  -0.0042799317
       -0.0014364923  -0.0004431198   0.0000431598  -0.0000047717   0.0000578307
        0.0000285326  -0.0000637838   0.0000296655  -0.0000130949  -0.0000105114
        0.0000828808  -0.0000474922   0.0000053548   0.0000420180  -0.0000400643
        0.0000063117  -0.0000033895  -0.0000290072   0.0000576057  -0.0000139225
       -0.0000076973   0.0000855873  -0.0000300135  -0.0002476138   0.0001442360
       -0.0001500882
       -0.0054729346   0.0018166485  -0.0026370485   0.0324912596   0.0284666723
        0.0125682128   0.0811862511  -0.1682137566  -0.0489937272  -0.0288766893
        0.5274627761   0.1731304912  -0.0797005497  -0.1058364897  -0.0315037440
        0.0167395703   0.0201908639   0.0127376048   0.0055163810   0.0017111645
       -0.0066532744  -0.0009782954  -0.0000986144  -0.0002794463  -0.0000051030
        0.0004826904   0.0008207261  -0.0000551649  -0.0002288216  -0.0000127688
       -0.0000546667   0.0002698957   0.0005034852   0.0003558465   0.0001361168
       -0.0000543759  -0.0196338858  -0.0144447055   0.0015148753   0.0009756109
       -0.0005914627   0.0006917433  -0.0006888646   0.0002285892   0.0004121134
        0.0001271930  -0.0002851725  -0.0002624079   0.0000167422   0.0001598821
       -0.0000228726   0.0000142959  -0.0000696943  -0.0001350732  -0.0000660150
        0.0002408234   0.0001874511   0.0436523299  -0.0383602019  -0.0303473593
       -0.0255789661  -0.2008260552  -0.0558858641  -0.0491396874  -0.0073187736
       -0.0053386138   0.0101987460  -0.0270560905  -0.0114442720  -0.0000937790
       -0.0001789223   0.0008925768   0.0001319099   0.0000423671   0.0000990470
       -0.0002115331  -0.0002755315  -0.0000160501  -0.0000173876   0.0000868703
        0.0000400579  -0.0000609181   0.0000143347   0.0000285341  -0.0000081250
       -0.0000536182   0.0000394577   0.0000314758   0.0000485712   0.0000127738
        0.0000363101  -0.0000193913   0.0000736827  -0.0000473355   0.0000193266
       -0.0000039190   0.0000095811  -0.0000567133   0.0000673929   0.0000603134
        0.0000405221  -0.0000045331  -0.0000721602   0.0000841982   0.0000180012
        0.0002768968  -0.0001579629   0.0000474331   0.0003628956  -0.0001679117
        0.0001404056   0.0189173874  -0.0186780348  -0.0082625074   0.0000889728
       -0.0002154206  -0.0001663035  -0.0001203552  -0.0000052749  -0.0000841161
       -0.0000180145  -0.0000603980  -0.0001701590  -0.0000670602  -0.0000851025
       -0.0000025755   0.0000777806  -0.0001179734  -0.0001810205   0.0001054187