106
 energy: -162.597729814865 gnorm: 0.000066371387 xtb: 6.7.1 (edcfbbe)
C           -1.69140089725262       -2.13179286425379       -0.16756967835856
C           -2.47401409918217       -1.04404952536592       -0.04766198466279
C           -3.93884872950394       -1.15550478090469       -0.06589368076509
C           -4.71204657676748       -0.16936671481494       -0.68054479572513
C           -6.08826924283744       -0.26192878266360       -0.71120840874470
C           -6.72969287131481       -1.34870694447660       -0.12239815095866
N           -8.12934207505736       -1.44461180518107       -0.15023597672788
C           -8.94745496297906       -1.64701905924858        0.94313932888813
C           -8.61553312420125       -1.75971727604982        2.28627466370996
C           -9.64363584266246       -1.93194229177995        3.19332160009252
C          -10.97468373201869       -1.98317399365944        2.78326606041953
C          -11.31286306673455       -1.84904704701418        1.45117434254671
C          -10.29685237844127       -1.67419969120723        0.51993362240543
C          -10.28139134209164       -1.48152014503732       -0.90344563766931
C          -11.27519695616427       -1.42555455831623       -1.87259860589648
C          -10.90577471590862       -1.24034671709213       -3.19011388163233
C           -9.56368914816096       -1.12723597567308       -3.54889486243317
C           -8.55721972134493       -1.17888128455064       -2.60350611392123
C           -8.92366849424234       -1.34089007051796       -1.27450192227113
C           -5.96878136019467       -2.33632253047843        0.49743770628814
C           -4.59236357451830       -2.23659783171250        0.52608125751442
C           -1.92847867176749        0.32328148368232        0.04490067865803
C           -0.98069894546126        0.77696348648680       -0.87058762398893
C           -0.47722214759035        2.05895552331329       -0.78774362898871
C           -0.90422165649002        2.91475125179001        0.22489676121897
N           -0.36923369377125        4.20829884930431        0.32559406567994
C            0.97524221725520        4.52038534792234        0.35125507410255
C            2.07798069390276        3.67792759115643        0.32709031274917
C            3.33241295656856        4.25387297044011        0.38849885994639
C            3.49468367098862        5.63513310458706        0.48048867302097
C            2.40127743383987        6.47696874989144        0.52698961604468
C            1.12926466622438        5.92156214445857        0.46615590302610
C           -0.19567362128742        6.47477949305391        0.50428962949084
C           -0.68901090293591        7.77074213255210        0.58741242692978
C           -2.05652795746577        7.96097274175493        0.57471106648247
C           -2.92923107114602        6.87953291657472        0.46778086299552
C           -2.46301027590205        5.58135880181935        0.38487053355198
C           -1.08978784252259        5.38188328702774        0.41832851119810
C           -1.86169253725494        2.47462367379096        1.13433928544068
C           -2.37563832369065        1.19661967465828        1.03402564036810
C           -0.23683882731001       -2.16079746542545       -0.10014384970798
C            0.47575288788986       -3.02881994846518       -0.92998633129626
C            1.85500369056430       -3.05624788635676       -0.91259884140079
C            2.57414152206634       -2.23048559182958       -0.04937820231196
C            4.04291355794789       -2.22349612866657       -0.05906728034857
C            4.74283435097312       -1.02327792353282        0.06051888681780
C            6.12231587191048       -0.99825311175483        0.03460405977994
C            6.83997414914373       -2.18113711837431       -0.11897708541239
N            8.24281648854071       -2.15581749123528       -0.15647243510541
C            9.08798504590332       -2.92946429989613        0.61358659604871
C            8.78484773208386       -3.85807773145454        1.59987861252261
C            9.83583507742059       -4.48177900218328        2.24473142278783
C           11.16121873308972       -4.18870847793009        1.92844338089521
C           11.46957312889231       -3.24994858299584        0.96400164940274
C           10.43004564604736       -2.60953152582978        0.30141458510209
C           10.38173070400596       -1.59402879900357       -0.71301147169116
C           11.35674807089372       -0.90199144686872       -1.42040109692182
C           10.95841734611488        0.02097669966220       -2.36692525222141
C            9.60711261952299        0.24717341501507       -2.62244485113537
C            8.61904525591261       -0.42901978592711       -1.93250833149361
C            9.01270457536784       -1.34125639327348       -0.96289156512604
C            6.15207350917988       -3.38571424112749       -0.23652173435773
C            4.77173484073680       -3.40301066856513       -0.20364418093465
C            1.86146566812754       -1.40075726699217        0.81675413892210
C            0.48348979185751       -1.36614525183493        0.79393922094237
H           -2.16139656540013       -3.08798294240257       -0.36163134661566
H           -4.22470576797798        0.67564283385291       -1.14476193250158
H           -6.67629618574597        0.51336551233760       -1.17984447339176
H           -7.58870388562629       -1.70528135649686        2.61530382384432
H           -9.41099486019729       -2.02490436561285        4.24434481891476
H          -11.75013002207220       -2.12123535704544        3.52262446190217
H          -12.34557325143371       -1.87345918347946        1.13616592087849
H          -12.31438871653579       -1.52839662060933       -1.59728063931684
H          -11.66362642153448       -1.19114017306445       -3.95840968822060
H           -9.30458713063450       -0.99847039254208       -4.58992036537241
H           -7.51966558513584       -1.10415356379306       -2.89276967745998
H           -6.46317544728486       -3.18415503849713        0.94827697156189
H           -4.01569753748128       -3.00100735410572        1.02525980988726
H           -0.64806050075974        0.12030246586539       -1.66058543192484
H            0.24156976897782        2.41024981755610       -1.51316994889428
H            1.95828457398759        2.60691502210003        0.26943125565879
H            4.20806011877121        3.62135362533239        0.36756118787841
H            4.49213411247251        6.04777257839324        0.52390068657277
H            2.52820004436559        7.54598626145972        0.61255860700273
H           -0.01283973606746        8.61005685813574        0.65538264011954
H           -2.46010460249139        8.96090774555734        0.63984154979264
H           -3.99413424045621        7.06086579953161        0.44608081759441
H           -3.14725698297383        4.75198786382703        0.28716015962023
H           -2.18990932253893        3.13315842469805        1.92483469164069
H           -3.11606485943153        0.85962062063371        1.74534562709373
H           -0.06432657209303       -3.66734937254806       -1.61535670198806
H            2.38494058628978       -3.70764138589843       -1.59246772553361
H            4.19793746967928       -0.09680212135095        0.16147013158255
H            6.65294962589855       -0.06361057197146        0.14131654136164
H            7.76206735588441       -4.08103288930484        1.86411285714510
H            9.62538089763881       -5.21061557187411        3.01410691337640
H           11.95497357070785       -4.69953638982625        2.45380317580416
H           12.49653954042219       -3.01200834794281        0.72925931795615
H           12.40391872937081       -1.08821058823289       -1.23316916002087
H           11.70105726450300        0.57159045394909       -2.92583081361232
H            9.32581505864005        0.96485861372001       -3.37961812040654
H            7.57535250359211       -0.25838120055483       -2.15017809552398
H            6.70530449640344       -4.30422608768156       -0.36581245117971
H            4.25151564895225       -4.34631069123881       -0.28145339685929
H            2.39728874740642       -0.79080584250550        1.52981626378942
H           -0.04694957199143       -0.72901959844360        1.48568555538950
