      -----------------------------------------------------------      
     |                   =====================                   |     
     |                           x T B                           |     
     |                   =====================                   |     
     |                         S. Grimme                         |     
     |          Mulliken Center for Theoretical Chemistry        |     
     |                    University of Bonn                     |     
      -----------------------------------------------------------      

   * xtb version 6.7.1 (edcfbbe) compiled by 'albert@albert-system' on 2024-07-22

   xtb is free software: you can redistribute it and/or modify it under
   the terms of the GNU Lesser General Public License as published by
   the Free Software Foundation, either version 3 of the License, or
   (at your option) any later version.
   
   xtb is distributed in the hope that it will be useful,
   but WITHOUT ANY WARRANTY; without even the implied warranty of
   MERCHANTABILITY or FITNESS FOR A PARTICULAR PURPOSE.  See the
   GNU Lesser General Public License for more details.
   
   Cite this work as:
   * C. Bannwarth, E. Caldeweyher, S. Ehlert, A. Hansen, P. Pracht,
     J. Seibert, S. Spicher, S. Grimme, WIREs Comput. Mol. Sci., 2020, 11,
     e01493. DOI: 10.1002/wcms.1493
   
   for GFN2-xTB:
   * C. Bannwarth, S. Ehlert and S. Grimme., J. Chem. Theory Comput., 2019,
     15, 1652-1671. DOI: 10.1021/acs.jctc.8b01176
   for GFN1-xTB:
   * S. Grimme, C. Bannwarth, P. Shushkov, J. Chem. Theory Comput., 2017,
     13, 1989-2009. DOI: 10.1021/acs.jctc.7b00118
   for GFN0-xTB:
   * P. Pracht, E. Caldeweyher, S. Ehlert, S. Grimme, ChemRxiv, 2019, preprint.
     DOI: 10.26434/chemrxiv.8326202.v1
   for GFN-FF:
   * S. Spicher and S. Grimme, Angew. Chem. Int. Ed., 2020, 59, 15665-15673.
     DOI: 10.1002/anie.202004239
   
   for ALPB and GBSA implicit solvation:
   * S. Ehlert, M. Stahn, S. Spicher, S. Grimme, J. Chem. Theory Comput.,
     2021, 17, 4250-4261. DOI: 10.1021/acs.jctc.1c00471
   
   for ddCOSMO and CPCM-X implicit solvation:
   * M. Stahn, S. Ehlert, S. Grimme, J. Phys. Chem. A,
     2023, XX, XXXX-XXXX. DOI: 10.1021/acs.jpca.3c04382
   
   for DFT-D4:
   * E. Caldeweyher, C. Bannwarth and S. Grimme, J. Chem. Phys., 2017,
     147, 034112. DOI: 10.1063/1.4993215
   * E. Caldeweyher, S. Ehlert, A. Hansen, H. Neugebauer, S. Spicher,
     C. Bannwarth and S. Grimme, J. Chem. Phys., 2019, 150, 154122.
     DOI: 10.1063/1.5090222
   * E. Caldeweyher, J.-M. Mewes, S. Ehlert and S. Grimme, Phys. Chem. Chem. Phys.
     2020, 22, 8499-8512. DOI: 10.1039/D0CP00502A
   
   for sTDA-xTB:
   * S. Grimme and C. Bannwarth, J. Chem. Phys., 2016, 145, 054103.
     DOI: 10.1063/1.4959605
   
   in the mass-spec context:
   * V. Asgeirsson, C. Bauer and S. Grimme, Chem. Sci., 2017, 8, 4879.
     DOI: 10.1039/c7sc00601b
   * J. Koopman and S. Grimme, ACS Omega 2019, 4, 12, 15120-15133.
     DOI: 10.1021/acsomega.9b02011
   
   for metadynamics refer to:
   * S. Grimme, J. Chem. Theory Comput., 2019, 155, 2847-2862
     DOI: 10.1021/acs.jctc.9b00143
   
   for SPH calculations refer to:
   * S. Spicher and S. Grimme, J. Chem. Theory Comput., 2021, 17, 1701-1714
     DOI: 10.1021/acs.jctc.0c01306
   
   for ONIOM refer to:
   * C. Plett, A. Katbashev, S. Ehlert, S. Grimme, M. Bursch,
     Phys. Chem. Chem. Phys., 2023, 25, 17860-17868. DOI: 10.1039/D3CP02178E
   
   for DIPRO refer to:
   * J. Kohn, N. Gildemeister, S. Grimme, D. Fazzi, A. Hansen,
     J. Chem. Phys., 2023, just accepted.
   
   for PTB refer to:
   * S. Grimme, M. Mueller, A. Hansen, J. Chem. Phys., 2023, 158, 124111.
     DOI: 10.1063/5.0137838
   
   with help from (in alphabetical order)
   P. Atkinson, C. Bannwarth, F. Bohle, G. Brandenburg, E. Caldeweyher
   M. Checinski, S. Dohm, S. Ehlert, S. Ehrlich, I. Gerasimov, C. Hölzer
   A. Katbashev, J. Kohn, J. Koopman, C. Lavigne, S. Lehtola, F. März, M. Müller,
   F. Musil, H. Neugebauer, J. Pisarek, C. Plett, P. Pracht, F. Pultar,
   J. Seibert, P. Shushkov, S. Spicher, M. Stahn, M. Steiner, T. Strunk,
   J. Stückrath, T. Rose, and J. Unsleber
   
 * started run on 2025/07/16 at 09:59:50.768     
   ID    Z sym.   atoms
    1    6 C      1-6, 8-25, 27-48, 50-65
    2    7 N      7, 26, 49
    3    1 H      66-106

           -------------------------------------------------
          |                Calculation Setup                |
           -------------------------------------------------

          program call               : xtb data2507/toluene/2CzTPEPCz/2CzTPEPCz.xyz --gfn 2 --gbsa toluene --ohess vtight --parallel 40 --molden --ceasefiles --namespace data2507/toluene/2CzTPEPCz/2CzTPEPCz_toluene_S0_preOpt
          calculation namespace      : data2507/toluene/2CzTPEPCz/2CzTPEPCz_toluene_S0_preOpt
          coordinate file            : data2507/toluene/2CzTPEPCz/2CzTPEPCz.xyz
          omp threads                :                    40


           -------------------------------------------------
          |                 G F N 2 - x T B                 |
           -------------------------------------------------

        Reference                      10.1021/acs.jctc.8b01176
      * Hamiltonian:
        H0-scaling (s, p, d)           1.850000    2.230000    2.230000
        zeta-weighting                 0.500000
      * Dispersion:
        s8                             2.700000
        a1                             0.520000
        a2                             5.000000
        s9                             5.000000
      * Repulsion:
        kExp                           1.500000    1.000000
        rExp                           1.000000
      * Coulomb:
        alpha                          2.000000
        third order                    shell-resolved
        anisotropic                    true
        a3                             3.000000
        a5                             4.000000
        cn-shift                       1.200000
        cn-exp                         4.000000
        max-rad                        5.000000

      * Solvation model:               GBSA
        Solvent                        toluene
        Parameter file                 internal GFN2-xTB/GBSA
        Dielectric constant                7.0000E+00
        Reference state                gsolv [1 M gas/solution]
        Free energy shift                  4.5239E-03 Eh       2.8388E+00 kcal/mol
        Temperature                        2.9815E+02 K
        Density                            8.6700E-01 kg/L
        Solvent mass                       9.2140E+01 g/mol
        Interaction kernel             Still
        Born radius scaling (c1)           1.5686E+00
        Born radii integrator          GBOBC
        Born offset                        0.0000E+00 a0       0.0000E+00 AA
        H-bond correction              false
        Ion screening                  false
        Surface tension                    1.0000E-05 Eh       1.5569E+01 dyn/cm
        Grid points                               230 per atom

          ...................................................
          :                      SETUP                      :
          :.................................................:
          :  # basis functions                 301          :
          :  # atomic orbitals                 301          :
          :  # shells                          171          :
          :  # electrons                       304          :
          :  max. iterations                   250          :
          :  Hamiltonian                  GFN2-xTB          :
          :  restarted?                      false          :
          :  GBSA solvation                   true          :
          :  PC potential                    false          :
          :  electronic temp.          300.0000000     K    :
          :  accuracy                    1.0000000          :
          :  -> integral cutoff          0.2500000E+02      :
          :  -> integral neglect         0.1000000E-07      :
          :  -> SCF convergence          0.1000000E-05 Eh   :
          :  -> wf. convergence          0.1000000E-03 e    :
          :  Broyden damping             0.4000000          :
          :  net charge                          0          :
          :  unpaired electrons                  0          :
          ...................................................

 iter      E             dE          RMSdq      gap      omega  full diag
   1   -165.3868380 -0.165387E+03  0.436E+00    2.68       0.0  T
   2   -165.4702202 -0.833823E-01  0.265E+00    2.79       1.0  T
   3   -165.4068461  0.633741E-01  0.106E+00    2.79       1.0  T
   4   -165.4927737 -0.859276E-01  0.205E-01    2.77       1.0  T
   5   -165.4951926 -0.241888E-02  0.672E-02    2.79       1.0  T
   6   -165.4953330 -0.140420E-03  0.322E-02    2.78       1.0  T
   7   -165.4953851 -0.521270E-04  0.168E-02    2.78       1.0  T
   8   -165.4953876 -0.251147E-05  0.730E-03    2.78       1.3  T
   9   -165.4953915 -0.393147E-05  0.896E-04    2.78      10.8  T
  10   -165.4953916 -0.371585E-07  0.458E-04    2.78      21.2  T
  11   -165.4953916 -0.672640E-08  0.207E-04    2.78      46.8  T

   *** convergence criteria satisfied after 11 iterations ***

         #    Occupation            Energy/Eh            Energy/eV
      -------------------------------------------------------------
         1        2.0000           -0.6730029             -18.3133
       ...           ...                  ...                  ...
       146        2.0000           -0.3801512             -10.3444
       147        2.0000           -0.3791822             -10.3181
       148        2.0000           -0.3791001             -10.3158
       149        2.0000           -0.3788690             -10.3095
       150        2.0000           -0.3615682              -9.8388
       151        2.0000           -0.3608560              -9.8194
       152        2.0000           -0.3594830              -9.7820 (HOMO)
       153                         -0.2572073              -6.9990 (LUMO)
       154                         -0.2494793              -6.7887
       155                         -0.2493712              -6.7857
       156                         -0.2480591              -6.7500
       157                         -0.2405237              -6.5450
       ...                                ...                  ...
       301                          0.7176994              19.5296
      -------------------------------------------------------------
                  HL-Gap            0.1022757 Eh            2.7831 eV
             Fermi-level           -0.3083451 Eh           -8.3905 eV

 SCC (total)                   0 d,  0 h,  0 min,  0.209 sec
 SCC setup                      ...        0 min,  0.003 sec (  1.369%)
 Dispersion                     ...        0 min,  0.006 sec (  3.009%)
 classical contributions        ...        0 min,  0.000 sec (  0.069%)
 integral evaluation            ...        0 min,  0.011 sec (  5.475%)
 iterations                     ...        0 min,  0.171 sec ( 81.660%)
 molecular gradient             ...        0 min,  0.017 sec (  7.968%)
 printout                       ...        0 min,  0.001 sec (  0.407%)

         :::::::::::::::::::::::::::::::::::::::::::::::::::::
         ::                     SUMMARY                     ::
         :::::::::::::::::::::::::::::::::::::::::::::::::::::
         :: total energy            -162.566611822824 Eh    ::
         :: total w/o Gsasa/hb      -162.499685509205 Eh    ::
         :: gradient norm              0.133916274502 Eh/a0 ::
         :: HOMO-LUMO gap              2.783063651147 eV    ::
         ::.................................................::
         :: SCC energy              -165.495930048169 Eh    ::
         :: -> isotropic ES            0.012542853842 Eh    ::
         :: -> anisotropic ES          0.018502114456 Eh    ::
         :: -> anisotropic XC          0.098720440863 Eh    ::
         :: -> dispersion             -0.146711620925 Eh    ::
         :: -> Gsolv                  -0.068338852372 Eh    ::
         ::    -> Gelec               -0.001412538753 Eh    ::
         ::    -> Gsasa               -0.071450193491 Eh    ::
         ::    -> Ghb                  0.000000000000 Eh    ::
         ::    -> Gshift               0.004523879872 Eh    ::
         :: repulsion energy           2.929318225345 Eh    ::
         :: add. restraining           0.000000000000 Eh    ::
         :: total charge              -0.000000000000 e     ::
         :::::::::::::::::::::::::::::::::::::::::::::::::::::

      ----------------------------------------------------------- 
     |                   =====================                   |
     |                        A N C O P T                        |
     |                   =====================                   |
     |               Approximate Normal Coordinate               |
     |                Rational Function Optimizer                |
      ----------------------------------------------------------- 

Optimization log is written to '/dev/null'
      ----------------------------------------------------------- 
     |                   =====================                   |
     |                        A N C O P T                        |
     |                   =====================                   |
     |               Approximate Normal Coordinate               |
     |                Rational Function Optimizer                |
      ----------------------------------------------------------- 

          ...................................................
          :                      SETUP                      :
          :.................................................:
          :   optimization level         verytight          :
          :   max. optcycles                  2120          :
          :   ANC micro-cycles                  20          :
          :   degrees of freedom               312          :
          :.................................................:
          :   RF solver                   davidson          :
          :   write xtbopt.log                true          :
          :   linear?                        false          :
          :   energy convergence         0.1000000E-06 Eh   :
          :   grad. convergence          0.2000000E-03 Eh/α :
          :   maxmium RF displ.          1.0000000          :
          :   Hlow (freq-cutoff)         0.1000000E-01      :
          :   Hmax (freq-cutoff)         5.0000000          :
          :   S6 in model hess.         20.0000000          :
          ...................................................

generating ANC from exact Hessian ...
Using Lindh-Hessian (1995)
 Shifting diagonal of input Hessian by   9.961826851610359E-003
 Lowest  eigenvalues of input Hessian
    0.000000    0.000000    0.000000    0.000000    0.000000    0.000000
    0.010000    0.010025    0.010032    0.010065    0.010083    0.010092
    0.010204    0.010315    0.010697    0.010840    0.010874    0.011272
 Highest eigenvalues
    2.098915    2.099056    2.100250    2.100626    2.101432    2.101887
 

........................................................................
.............................. CYCLE    1 ..............................
........................................................................

 iter      E             dE          RMSdq      gap      omega  full diag
   1   -165.4953916 -0.165495E+03  0.628E-05    2.78       0.0  T
   2   -165.4953916 -0.109821E-09  0.428E-05    2.78     227.1  T
   3   -165.4953916 -0.689795E-10  0.291E-05    2.78     333.7  T
     SCC iter.                  ...        0 min,  0.048 sec
     gradient                   ...        0 min,  0.017 sec
 * total energy  :  -162.5666118 Eh     change       -0.8965344E-09 Eh
   gradient norm :     0.1339174 Eh/α   predicted     0.0000000E+00 (-100.00%)
   displ. norm   :     0.3974496 α      lambda       -0.2781715E-01
   maximum displ.:     0.2497315 α      in ANC's #71, #70, #160, ...

........................................................................
.............................. CYCLE    2 ..............................
........................................................................

 iter      E             dE          RMSdq      gap      omega  full diag
   1   -165.6234732 -0.165623E+03  0.183E-01    2.80       0.0  T
   2   -165.6235527 -0.795454E-04  0.109E-01    2.80       1.0  T
   3   -165.6234534  0.993703E-04  0.375E-02    2.80       1.0  T
   4   -165.6235830 -0.129696E-03  0.562E-03    2.80       1.7  T
   5   -165.6235846 -0.152701E-05  0.289E-03    2.80       3.4  T
   6   -165.6235848 -0.186543E-06  0.128E-03    2.80       7.6  T
   7   -165.6235848 -0.703579E-07  0.445E-04    2.80      21.8  T
   8   -165.6235848 -0.106050E-07  0.203E-04    2.80      47.9  T
     SCC iter.                  ...        0 min,  0.114 sec
     gradient                   ...        0 min,  0.017 sec
 * total energy  :  -162.5857044 Eh     change       -0.1909254E-01 Eh
   gradient norm :     0.0465621 Eh/α   predicted    -0.1612083E-01 ( -15.56%)
   displ. norm   :     0.3566180 α      lambda       -0.7236414E-02
   maximum displ.:     0.1983550 α      in ANC's #71, #18, #70, ...

........................................................................
.............................. CYCLE    3 ..............................
........................................................................

 iter      E             dE          RMSdq      gap      omega  full diag
   1   -165.6906530 -0.165691E+03  0.123E-01    2.79       0.0  T
   2   -165.6907176 -0.646593E-04  0.738E-02    2.79       1.0  T
   3   -165.6906579  0.597180E-04  0.303E-02    2.79       1.0  T
   4   -165.6907382 -0.802638E-04  0.529E-03    2.79       1.8  T
   5   -165.6907403 -0.216424E-05  0.180E-03    2.79       5.4  T
   6   -165.6907404 -0.894351E-07  0.922E-04    2.79      10.5  T
   7   -165.6907404 -0.260943E-07  0.228E-04    2.79      42.6  T
     SCC iter.                  ...        0 min,  0.100 sec
     gradient                   ...        0 min,  0.018 sec
 * total energy  :  -162.5900196 Eh     change       -0.4315247E-02 Eh
   gradient norm :     0.0108674 Eh/α   predicted    -0.4079215E-02 (  -5.47%)
   displ. norm   :     0.3108388 α      lambda       -0.1409205E-02
   maximum displ.:     0.1683418 α      in ANC's #18, #19, #15, ...

........................................................................
.............................. CYCLE    4 ..............................
........................................................................

 iter      E             dE          RMSdq      gap      omega  full diag
   1   -165.7023525 -0.165702E+03  0.601E-02    2.76       0.0  T
   2   -165.7023669 -0.144816E-04  0.369E-02    2.77       1.0  T
   3   -165.7023495  0.174051E-04  0.144E-02    2.77       1.0  T
   4   -165.7023711 -0.215637E-04  0.276E-03    2.77       3.5  T
   5   -165.7023717 -0.597780E-06  0.769E-04    2.77      12.6  T
   6   -165.7023717 -0.311312E-07  0.393E-04    2.77      24.7  T
     SCC iter.                  ...        0 min,  0.085 sec
     gradient                   ...        0 min,  0.018 sec
 * total energy  :  -162.5911659 Eh     change       -0.1146238E-02 Eh
   gradient norm :     0.0093324 Eh/α   predicted    -0.7726808E-03 ( -32.59%)
   displ. norm   :     0.5803578 α      lambda       -0.1852809E-02
   maximum displ.:     0.3222771 α      in ANC's #18, #19, #15, ...

........................................................................
.............................. CYCLE    5 ..............................
........................................................................

 iter      E             dE          RMSdq      gap      omega  full diag
   1   -165.7076035 -0.165708E+03  0.107E-01    2.71       0.0  T
   2   -165.7076213 -0.177333E-04  0.638E-02    2.71       1.0  T
   3   -165.7075870  0.342484E-04  0.186E-02    2.71       1.0  T
   4   -165.7076262 -0.392189E-04  0.336E-03    2.71       2.9  T
   5   -165.7076271 -0.828449E-06  0.115E-03    2.71       8.5  T
   6   -165.7076271 -0.797203E-07  0.550E-04    2.71      17.7  T
   7   -165.7076271 -0.291570E-08  0.193E-04    2.71      50.2  T
     SCC iter.                  ...        0 min,  0.101 sec
     gradient                   ...        0 min,  0.018 sec
 * total energy  :  -162.5926048 Eh     change       -0.1438964E-02 Eh
   gradient norm :     0.0096507 Eh/α   predicted    -0.1238423E-02 ( -13.94%)
   displ. norm   :     0.5761683 α      lambda       -0.1293005E-02
   maximum displ.:     0.3186964 α      in ANC's #19, #18, #15, ...

........................................................................
.............................. CYCLE    6 ..............................
........................................................................

 iter      E             dE          RMSdq      gap      omega  full diag
   1   -165.7083919 -0.165708E+03  0.112E-01    2.66       0.0  T
   2   -165.7083966 -0.476707E-05  0.659E-02    2.66       1.0  T
   3   -165.7083834  0.132035E-04  0.120E-02    2.66       1.0  T
   4   -165.7083986 -0.151358E-04  0.200E-03    2.66       4.9  T
   5   -165.7083988 -0.223877E-06  0.896E-04    2.66      10.8  T
   6   -165.7083988 -0.336521E-07  0.458E-04    2.66      21.2  T
     SCC iter.                  ...        0 min,  0.086 sec
     gradient                   ...        0 min,  0.018 sec
 * total energy  :  -162.5936345 Eh     change       -0.1029711E-02 Eh
   gradient norm :     0.0108256 Eh/α   predicted    -0.8611173E-03 ( -16.37%)
   displ. norm   :     0.5370931 α      lambda       -0.9915504E-03
   maximum displ.:     0.2973943 α      in ANC's #19, #18, #15, ...

........................................................................
.............................. CYCLE    7 ..............................
........................................................................

 iter      E             dE          RMSdq      gap      omega  full diag
   1   -165.7094825 -0.165709E+03  0.111E-01    2.61       0.0  T
   2   -165.7094857 -0.316820E-05  0.651E-02    2.61       1.0  T
   3   -165.7094767  0.897772E-05  0.987E-03    2.61       1.0  T
   4   -165.7094872 -0.104822E-04  0.156E-03    2.61       6.2  T
   5   -165.7094873 -0.103667E-06  0.845E-04    2.61      11.5  T
   6   -165.7094873 -0.335785E-07  0.375E-04    2.61      25.9  T
     SCC iter.                  ...        0 min,  0.086 sec
     gradient                   ...        0 min,  0.018 sec
 * total energy  :  -162.5944073 Eh     change       -0.7727695E-03 Eh
   gradient norm :     0.0087777 Eh/α   predicted    -0.6387884E-03 ( -17.34%)
   displ. norm   :     0.4772660 α      lambda       -0.7024233E-03
   maximum displ.:     0.2661494 α      in ANC's #19, #18, #15, ...

........................................................................
.............................. CYCLE    8 ..............................
........................................................................

 iter      E             dE          RMSdq      gap      omega  full diag
   1   -165.7119648 -0.165712E+03  0.105E-01    2.58       0.0  T
   2   -165.7119684 -0.354796E-05  0.617E-02    2.58       1.0  T
   3   -165.7119618  0.656774E-05  0.831E-03    2.58       1.2  T
   4   -165.7119695 -0.775428E-05  0.148E-03    2.58       6.6  T
   5   -165.7119697 -0.119167E-06  0.752E-04    2.58      12.9  T
   6   -165.7119697 -0.230320E-07  0.405E-04    2.58      24.0  T
     SCC iter.                  ...        0 min,  0.086 sec
     gradient                   ...        0 min,  0.018 sec
 * total energy  :  -162.5949253 Eh     change       -0.5179991E-03 Eh
   gradient norm :     0.0053803 Eh/α   predicted    -0.4312118E-03 ( -16.75%)
   displ. norm   :     0.3802492 α      lambda       -0.3972723E-03
   maximum displ.:     0.2097894 α      in ANC's #19, #15, #18, ...

........................................................................
.............................. CYCLE    9 ..............................
........................................................................

 iter      E             dE          RMSdq      gap      omega  full diag
   1   -165.7144710 -0.165714E+03  0.886E-02    2.55       0.0  T
   2   -165.7144729 -0.189468E-05  0.520E-02    2.55       1.0  T
   3   -165.7144705  0.240236E-05  0.525E-03    2.55       1.8  T
   4   -165.7144735 -0.299373E-05  0.108E-03    2.55       9.0  T
   5   -165.7144735 -0.594482E-07  0.555E-04    2.55      17.5  T
   6   -165.7144735 -0.875139E-08  0.316E-04    2.55      30.8  T
     SCC iter.                  ...        0 min,  0.085 sec
     gradient                   ...        0 min,  0.018 sec
 * total energy  :  -162.5952153 Eh     change       -0.2899712E-03 Eh
   gradient norm :     0.0042462 Eh/α   predicted    -0.2273565E-03 ( -21.59%)
   displ. norm   :     0.3174926 α      lambda       -0.2619936E-03
   maximum displ.:     0.1632046 α      in ANC's #19, #15, #13, ...

........................................................................
.............................. CYCLE   10 ..............................
........................................................................

 iter      E             dE          RMSdq      gap      omega  full diag
   1   -165.7163071 -0.165716E+03  0.758E-02    2.53       0.0  T
   2   -165.7163081 -0.969801E-06  0.445E-02    2.53       1.0  T
   3   -165.7163070  0.101885E-05  0.352E-03    2.53       2.8  T
   4   -165.7163084 -0.138887E-05  0.740E-04    2.53      13.1  T
   5   -165.7163084 -0.167443E-07  0.405E-04    2.53      24.0  T
   6   -165.7163084 -0.271609E-08  0.228E-04    2.53      42.7  T
     SCC iter.                  ...        0 min,  0.085 sec
     gradient                   ...        0 min,  0.018 sec
 * total energy  :  -162.5954146 Eh     change       -0.1993667E-03 Eh
   gradient norm :     0.0041513 Eh/α   predicted    -0.1442506E-03 ( -27.65%)
   displ. norm   :     0.3482657 α      lambda       -0.2480428E-03
   maximum displ.:     0.1548256 α      in ANC's #19, #13, #15, ...

........................................................................
.............................. CYCLE   11 ..............................
........................................................................

 iter      E             dE          RMSdq      gap      omega  full diag
   1   -165.7167234 -0.165717E+03  0.815E-02    2.51       0.0  T
   2   -165.7167243 -0.905192E-06  0.478E-02    2.51       1.0  T
   3   -165.7167232  0.102616E-05  0.355E-03    2.51       2.7  T
   4   -165.7167247 -0.143654E-05  0.719E-04    2.51      13.5  T
   5   -165.7167247 -0.852131E-08  0.388E-04    2.51      25.0  T
   6   -165.7167247 -0.228826E-08  0.192E-04    2.51      50.5  T
     SCC iter.                  ...        0 min,  0.085 sec
     gradient                   ...        0 min,  0.018 sec
 * total energy  :  -162.5956021 Eh     change       -0.1874933E-03 Eh
   gradient norm :     0.0038044 Eh/α   predicted    -0.1390703E-03 ( -25.83%)
   displ. norm   :     0.3292538 α      lambda       -0.2005844E-03
   maximum displ.:     0.1196588 α      in ANC's #6, #13, #19, ...

........................................................................
.............................. CYCLE   12 ..............................
........................................................................

 iter      E             dE          RMSdq      gap      omega  full diag
   1   -165.7162357 -0.165716E+03  0.722E-02    2.49       0.0  T
   2   -165.7162363 -0.650084E-06  0.423E-02    2.49       1.0  T
   3   -165.7162358  0.500944E-06  0.279E-03    2.49       3.5  T
   4   -165.7162366 -0.791329E-06  0.635E-04    2.49      15.3  T
   5   -165.7162366 -0.548252E-08  0.332E-04    2.49      29.3  T
     SCC iter.                  ...        0 min,  0.073 sec
     gradient                   ...        0 min,  0.018 sec
 * total energy  :  -162.5957538 Eh     change       -0.1516928E-03 Eh
   gradient norm :     0.0032548 Eh/α   predicted    -0.1111655E-03 ( -26.72%)
   displ. norm   :     0.3077362 α      lambda       -0.1625426E-03
   maximum displ.:     0.1228301 α      in ANC's #6, #13, #18, ...

........................................................................
.............................. CYCLE   13 ..............................
........................................................................

 iter      E             dE          RMSdq      gap      omega  full diag
   1   -165.7149316 -0.165715E+03  0.630E-02    2.48       0.0  T
   2   -165.7149321 -0.560887E-06  0.369E-02    2.48       1.0  T
   3   -165.7149317  0.399934E-06  0.253E-03    2.48       3.8  T
   4   -165.7149324 -0.629060E-06  0.583E-04    2.48      16.7  T
   5   -165.7149324 -0.698248E-08  0.305E-04    2.48      31.8  T
     SCC iter.                  ...        0 min,  0.070 sec
     gradient                   ...        0 min,  0.017 sec
 * total energy  :  -162.5958780 Eh     change       -0.1241847E-03 Eh
   gradient norm :     0.0031649 Eh/α   predicted    -0.8896823E-04 ( -28.36%)
   displ. norm   :     0.2884048 α      lambda       -0.1365798E-03
   maximum displ.:     0.1246338 α      in ANC's #6, #18, #13, ...

........................................................................
.............................. CYCLE   14 ..............................
........................................................................

 iter      E             dE          RMSdq      gap      omega  full diag
   1   -165.7140415 -0.165714E+03  0.534E-02    2.47       0.0  T
   2   -165.7140421 -0.602295E-06  0.313E-02    2.47       1.0  T
   3   -165.7140414  0.722436E-06  0.282E-03    2.47       3.4  T
   4   -165.7140424 -0.948418E-06  0.575E-04    2.47      16.9  T
   5   -165.7140424 -0.126064E-07  0.293E-04    2.47      33.1  T
     SCC iter.                  ...        0 min,  0.071 sec
     gradient                   ...        0 min,  0.018 sec
 * total energy  :  -162.5959760 Eh     change       -0.9795215E-04 Eh
   gradient norm :     0.0031032 Eh/α   predicted    -0.7397354E-04 ( -24.48%)
   displ. norm   :     0.2450803 α      lambda       -0.9054090E-04
   maximum displ.:     0.1133605 α      in ANC's #6, #18, #7, ...

........................................................................
.............................. CYCLE   15 ..............................
........................................................................

 iter      E             dE          RMSdq      gap      omega  full diag
   1   -165.7122316 -0.165712E+03  0.466E-02    2.46       0.0  T
   2   -165.7122321 -0.495717E-06  0.274E-02    2.46       1.0  T
   3   -165.7122315  0.669114E-06  0.273E-03    2.46       3.6  T
   4   -165.7122323 -0.857569E-06  0.474E-04    2.46      20.5  T
   5   -165.7122323 -0.784843E-08  0.250E-04    2.46      38.9  T
     SCC iter.                  ...        0 min,  0.071 sec
     gradient                   ...        0 min,  0.018 sec
 * total energy  :  -162.5960407 Eh     change       -0.6478348E-04 Eh
   gradient norm :     0.0027636 Eh/α   predicted    -0.4798989E-04 ( -25.92%)
   displ. norm   :     0.2116507 α      lambda       -0.8136614E-04
   maximum displ.:     0.1034173 α      in ANC's #6, #18, #11, ...

........................................................................
.............................. CYCLE   16 ..............................
........................................................................

 iter      E             dE          RMSdq      gap      omega  full diag
   1   -165.7133184 -0.165713E+03  0.361E-02    2.46       0.0  T
   2   -165.7133188 -0.377997E-06  0.212E-02    2.46       1.0  T
   3   -165.7133183  0.521351E-06  0.238E-03    2.46       4.1  T
   4   -165.7133190 -0.662348E-06  0.439E-04    2.46      22.1  T
   5   -165.7133190 -0.803368E-08  0.229E-04    2.46      42.4  T
     SCC iter.                  ...        0 min,  0.081 sec
     gradient                   ...        0 min,  0.018 sec
 * total energy  :  -162.5960927 Eh     change       -0.5201174E-04 Eh
   gradient norm :     0.0023382 Eh/α   predicted    -0.4250784E-04 ( -18.27%)
   displ. norm   :     0.1948046 α      lambda       -0.6312012E-04
   maximum displ.:     0.1019640 α      in ANC's #6, #3, #4, ...

........................................................................
.............................. CYCLE   17 ..............................
........................................................................

 iter      E             dE          RMSdq      gap      omega  full diag
   1   -165.7118140 -0.165712E+03  0.377E-02    2.45       0.0  T
   2   -165.7118142 -0.228616E-06  0.221E-02    2.45       1.0  T
   3   -165.7118140  0.212328E-06  0.178E-03    2.45       5.5  T
   4   -165.7118143 -0.315061E-06  0.363E-04    2.45      26.8  T
   5   -165.7118143 -0.145315E-08  0.219E-04    2.45      44.4  T
     SCC iter.                  ...        0 min,  0.071 sec
     gradient                   ...        0 min,  0.017 sec
 * total energy  :  -162.5961360 Eh     change       -0.4330035E-04 Eh
   gradient norm :     0.0023784 Eh/α   predicted    -0.3276257E-04 ( -24.34%)
   displ. norm   :     0.1538735 α      lambda       -0.5922644E-04
   maximum displ.:     0.0813759 α      in ANC's #6, #3, #4, ...

........................................................................
.............................. CYCLE   18 ..............................
........................................................................

 iter      E             dE          RMSdq      gap      omega  full diag
   1   -165.7132529 -0.165713E+03  0.258E-02    2.45       0.0  T
   2   -165.7132531 -0.166448E-06  0.152E-02    2.45       1.0  T
   3   -165.7132527  0.350577E-06  0.186E-03    2.45       5.2  T
   4   -165.7132532 -0.434013E-06  0.292E-04    2.45      33.3  T
   5   -165.7132532 -0.205992E-08  0.158E-04    2.45      61.4  T
     SCC iter.                  ...        0 min,  0.072 sec
     gradient                   ...        0 min,  0.017 sec
 * total energy  :  -162.5961803 Eh     change       -0.4425893E-04 Eh
   gradient norm :     0.0025773 Eh/α   predicted    -0.3031463E-04 ( -31.51%)
   displ. norm   :     0.2063061 α      lambda       -0.6912564E-04
   maximum displ.:     0.1121719 α      in ANC's #6, #3, #4, ...

........................................................................
.............................. CYCLE   19 ..............................
........................................................................

 iter      E             dE          RMSdq      gap      omega  full diag
   1   -165.7140535 -0.165714E+03  0.330E-02    2.45       0.0  T
   2   -165.7140538 -0.323865E-06  0.194E-02    2.45       1.0  T
   3   -165.7140532  0.590119E-06  0.237E-03    2.45       4.1  T
   4   -165.7140539 -0.727877E-06  0.386E-04    2.45      25.1  T
   5   -165.7140539 -0.569307E-08  0.199E-04    2.45      48.8  T
     SCC iter.                  ...        0 min,  0.071 sec
     gradient                   ...        0 min,  0.017 sec
 * total energy  :  -162.5962304 Eh     change       -0.5010142E-04 Eh
   gradient norm :     0.0024578 Eh/α   predicted    -0.3603710E-04 ( -28.07%)
   displ. norm   :     0.1991971 α      lambda       -0.5426269E-04
   maximum displ.:     0.1140284 α      in ANC's #6, #3, #4, ...

........................................................................
.............................. CYCLE   20 ..............................
........................................................................

 iter      E             dE          RMSdq      gap      omega  full diag
   1   -165.7144776 -0.165714E+03  0.299E-02    2.44       0.0  T
   2   -165.7144778 -0.211013E-06  0.175E-02    2.44       1.0  T
   3   -165.7144775  0.265925E-06  0.175E-03    2.44       5.6  T
   4   -165.7144779 -0.350542E-06  0.338E-04    2.44      28.8  T
   5   -165.7144779 -0.378836E-08  0.179E-04    2.44      54.4  T
     SCC iter.                  ...        0 min,  0.072 sec
     gradient                   ...        0 min,  0.018 sec
 * total energy  :  -162.5962732 Eh     change       -0.4283121E-04 Eh
   gradient norm :     0.0022672 Eh/α   predicted    -0.2820984E-04 ( -34.14%)
   displ. norm   :     0.2188721 α      lambda       -0.5662930E-04
   maximum displ.:     0.1277084 α      in ANC's #6, #3, #4, ...
 * RMSD in coord.:     0.4532411 α      energy gain  -0.2966142E-01 Eh

generating ANC from exact Hessian ...
Using Lindh-Hessian (1995)
 Shifting diagonal of input Hessian by   9.956025512154696E-003
 Lowest  eigenvalues of input Hessian
    0.000000    0.000000    0.000000    0.000000    0.000000    0.000000
    0.010000    0.010019    0.010043    0.010063    0.010082    0.010099
    0.010204    0.010402    0.010772    0.010855    0.010951    0.011404
 Highest eigenvalues
    2.186149    2.187994    2.188365    2.216790    2.217732    2.219102
 

........................................................................
.............................. CYCLE   21 ..............................
........................................................................

 iter      E             dE          RMSdq      gap      omega  full diag
   1   -165.7145501 -0.165715E+03  0.312E-02    2.44       0.0  T
   2   -165.7145502 -0.165217E-06  0.183E-02    2.44       1.0  T
   3   -165.7145501  0.120541E-06  0.136E-03    2.44       7.2  T
   4   -165.7145503 -0.192860E-06  0.303E-04    2.44      32.0  T
   5   -165.7145503 -0.195357E-08  0.162E-04    2.44      60.1  T
     SCC iter.                  ...        0 min,  0.071 sec
     gradient                   ...        0 min,  0.017 sec
 * total energy  :  -162.5963197 Eh     change       -0.4646537E-04 Eh
   gradient norm :     0.0021731 Eh/α   predicted     0.0000000E+00 (-100.00%)
   displ. norm   :     0.0367218 α      lambda       -0.1745566E-04
   maximum displ.:     0.0181360 α      in ANC's #6, #3, #22, ...

........................................................................
.............................. CYCLE   22 ..............................
........................................................................

 iter      E             dE          RMSdq      gap      omega  full diag
   1   -165.7144677 -0.165714E+03  0.682E-03    2.44       0.0  T
   2   -165.7144677 -0.303611E-07  0.401E-03    2.44       2.4  T
   3   -165.7144676  0.635668E-07  0.794E-04    2.44      12.2  T
   4   -165.7144677 -0.748501E-07  0.108E-04    2.44      89.8  T
     SCC iter.                  ...        0 min,  0.057 sec
     gradient                   ...        0 min,  0.017 sec
 * total energy  :  -162.5963392 Eh     change       -0.1951624E-04 Eh
   gradient norm :     0.0011821 Eh/α   predicted    -0.1105004E-04 ( -43.38%)
   displ. norm   :     0.2328911 α      lambda       -0.6909888E-04
   maximum displ.:     0.1131516 α      in ANC's #6, #3, #22, ...

........................................................................
.............................. CYCLE   23 ..............................
........................................................................

 iter      E             dE          RMSdq      gap      omega  full diag
   1   -165.7140852 -0.165714E+03  0.405E-02    2.44       0.0  T
   2   -165.7140858 -0.623358E-06  0.238E-02    2.44       1.0  T
   3   -165.7140843  0.149918E-05  0.400E-03    2.44       2.4  T
   4   -165.7140861 -0.177096E-05  0.600E-04    2.44      16.2  T
   5   -165.7140861 -0.148877E-07  0.299E-04    2.44      32.5  T
   6   -165.7140861 -0.314179E-08  0.163E-04    2.44      59.6  T
     SCC iter.                  ...        0 min,  0.086 sec
     gradient                   ...        0 min,  0.017 sec
 * total energy  :  -162.5963914 Eh     change       -0.5221105E-04 Eh
   gradient norm :     0.0032464 Eh/α   predicted    -0.3538327E-04 ( -32.23%)
   displ. norm   :     0.0510636 α      lambda       -0.1810145E-04
   maximum displ.:     0.0297790 α      in ANC's #6, #3, #4, ...

........................................................................
.............................. CYCLE   24 ..............................
........................................................................

 iter      E             dE          RMSdq      gap      omega  full diag
   1   -165.7143494 -0.165714E+03  0.758E-03    2.44       0.0  T
   2   -165.7143494 -0.237985E-07  0.445E-03    2.44       2.2  T
   3   -165.7143493  0.484949E-07  0.691E-04    2.44      14.1  T
   4   -165.7143494 -0.569329E-07  0.106E-04    2.44      91.5  T
     SCC iter.                  ...        0 min,  0.058 sec
     gradient                   ...        0 min,  0.018 sec
 * total energy  :  -162.5964082 Eh     change       -0.1675609E-04 Eh
   gradient norm :     0.0025746 Eh/α   predicted    -0.9075021E-05 ( -45.84%)
   displ. norm   :     0.1687493 α      lambda       -0.5945547E-04
   maximum displ.:     0.0963158 α      in ANC's #6, #3, #4, ...

........................................................................
.............................. CYCLE   25 ..............................
........................................................................

 iter      E             dE          RMSdq      gap      omega  full diag
   1   -165.7148322 -0.165715E+03  0.240E-02    2.45       0.0  T
   2   -165.7148325 -0.292189E-06  0.141E-02    2.45       1.0  T
   3   -165.7148319  0.567892E-06  0.241E-03    2.45       4.0  T
   4   -165.7148326 -0.668422E-06  0.329E-04    2.45      29.5  T
   5   -165.7148326 -0.741113E-08  0.149E-04    2.45      65.1  T
     SCC iter.                  ...        0 min,  0.075 sec
     gradient                   ...        0 min,  0.018 sec
 * total energy  :  -162.5964535 Eh     change       -0.4533793E-04 Eh
   gradient norm :     0.0009114 Eh/α   predicted    -0.3058648E-04 ( -32.54%)
   displ. norm   :     0.3128142 α      lambda       -0.4347633E-04
   maximum displ.:     0.1803285 α      in ANC's #6, #3, #4, ...

........................................................................
.............................. CYCLE   26 ..............................
........................................................................

 iter      E             dE          RMSdq      gap      omega  full diag
   1   -165.7145647 -0.165715E+03  0.419E-02    2.45       0.0  T
   2   -165.7145652 -0.532961E-06  0.246E-02    2.45       1.0  T
   3   -165.7145645  0.754902E-06  0.305E-03    2.45       3.2  T
   4   -165.7145654 -0.940180E-06  0.448E-04    2.45      21.7  T
   5   -165.7145654 -0.898734E-08  0.224E-04    2.45      43.4  T
     SCC iter.                  ...        0 min,  0.078 sec
     gradient                   ...        0 min,  0.018 sec
 * total energy  :  -162.5964989 Eh     change       -0.4537835E-04 Eh
   gradient norm :     0.0033612 Eh/α   predicted    -0.2268700E-04 ( -50.00%)
   displ. norm   :     0.1498021 α      lambda       -0.3046954E-04
   maximum displ.:     0.0884815 α      in ANC's #6, #3, #4, ...

........................................................................
.............................. CYCLE   27 ..............................
........................................................................

 iter      E             dE          RMSdq      gap      omega  full diag
   1   -165.7144066 -0.165714E+03  0.188E-02    2.45       0.0  T
   2   -165.7144067 -0.795902E-07  0.110E-02    2.45       1.0  T
   3   -165.7144066  0.619063E-07  0.104E-03    2.45       9.4  T
   4   -165.7144067 -0.887292E-07  0.177E-04    2.45      54.9  T
   5   -165.7144067 -0.866549E-09  0.880E-05    2.45     110.4  T
     SCC iter.                  ...        0 min,  0.076 sec
     gradient                   ...        0 min,  0.018 sec
 * total energy  :  -162.5965277 Eh     change       -0.2883141E-04 Eh
   gradient norm :     0.0031373 Eh/α   predicted    -0.1558111E-04 ( -45.96%)
   displ. norm   :     0.2598409 α      lambda       -0.6644394E-04
   maximum displ.:     0.1540237 α      in ANC's #6, #3, #4, ...

........................................................................
.............................. CYCLE   28 ..............................
........................................................................

 iter      E             dE          RMSdq      gap      omega  full diag
   1   -165.7141542 -0.165714E+03  0.318E-02    2.45       0.0  T
   2   -165.7141545 -0.252307E-06  0.186E-02    2.45       1.0  T
   3   -165.7141543  0.241025E-06  0.187E-03    2.45       5.2  T
   4   -165.7141546 -0.325178E-06  0.318E-04    2.45      30.5  T
   5   -165.7141546 -0.369837E-08  0.159E-04    2.45      61.0  T
     SCC iter.                  ...        0 min,  0.076 sec
     gradient                   ...        0 min,  0.017 sec
 * total energy  :  -162.5965872 Eh     change       -0.5945539E-04 Eh
   gradient norm :     0.0017668 Eh/α   predicted    -0.3546522E-04 ( -40.35%)
   displ. norm   :     0.6051914 α      lambda       -0.9082391E-04
   maximum displ.:     0.3615539 α      in ANC's #6, #3, #4, ...

........................................................................
.............................. CYCLE   29 ..............................
........................................................................

 iter      E             dE          RMSdq      gap      omega  full diag
   1   -165.7126695 -0.165713E+03  0.731E-02    2.45       0.0  T
   2   -165.7126707 -0.120585E-05  0.429E-02    2.45       1.0  T
   3   -165.7126695  0.118233E-05  0.412E-03    2.45       2.4  T
   4   -165.7126711 -0.162017E-05  0.689E-04    2.45      14.1  T
   5   -165.7126711 -0.146718E-07  0.355E-04    2.45      27.4  T
   6   -165.7126711 -0.105331E-09  0.166E-04    2.45      58.6  T
     SCC iter.                  ...        0 min,  0.091 sec
     gradient                   ...        0 min,  0.017 sec
 * total energy  :  -162.5966889 Eh     change       -0.1017063E-03 Eh
   gradient norm :     0.0023609 Eh/α   predicted    -0.5280956E-04 ( -48.08%)
   displ. norm   :     0.2875238 α      lambda       -0.5037065E-04
   maximum displ.:     0.1746332 α      in ANC's #6, #3, #4, ...

........................................................................
.............................. CYCLE   30 ..............................
........................................................................

 iter      E             dE          RMSdq      gap      omega  full diag
   1   -165.7129207 -0.165713E+03  0.336E-02    2.45       0.0  T
   2   -165.7129209 -0.188478E-06  0.197E-02    2.45       1.0  T
   3   -165.7129208  0.108067E-06  0.148E-03    2.45       6.6  T
   4   -165.7129210 -0.184935E-06  0.291E-04    2.45      33.4  T
   5   -165.7129210 -0.140111E-08  0.148E-04    2.45      65.7  T
     SCC iter.                  ...        0 min,  0.075 sec
     gradient                   ...        0 min,  0.018 sec
 * total energy  :  -162.5967346 Eh     change       -0.4574687E-04 Eh
   gradient norm :     0.0026332 Eh/α   predicted    -0.2727272E-04 ( -40.38%)
   displ. norm   :     0.3165833 α      lambda       -0.6776558E-04
   maximum displ.:     0.1934237 α      in ANC's #6, #3, #4, ...

........................................................................
.............................. CYCLE   31 ..............................
........................................................................

 iter      E             dE          RMSdq      gap      omega  full diag
   1   -165.7141168 -0.165714E+03  0.371E-02    2.45       0.0  T
   2   -165.7141170 -0.241954E-06  0.218E-02    2.45       1.0  T
   3   -165.7141169  0.159383E-06  0.161E-03    2.45       6.0  T
   4   -165.7141171 -0.255636E-06  0.345E-04    2.45      28.2  T
   5   -165.7141171 -0.367913E-08  0.176E-04    2.45      55.3  T
     SCC iter.                  ...        0 min,  0.078 sec
     gradient                   ...        0 min,  0.017 sec
 * total energy  :  -162.5967960 Eh     change       -0.6138709E-04 Eh
   gradient norm :     0.0021981 Eh/α   predicted    -0.3728047E-04 ( -39.27%)
   displ. norm   :     0.4338914 α      lambda       -0.9558028E-04
   maximum displ.:     0.2653963 α      in ANC's #6, #3, #4, ...

........................................................................
.............................. CYCLE   32 ..............................
........................................................................

 iter      E             dE          RMSdq      gap      omega  full diag
   1   -165.7151052 -0.165715E+03  0.522E-02    2.45       0.0  T
   2   -165.7151057 -0.486758E-06  0.306E-02    2.45       1.0  T
   3   -165.7151054  0.318670E-06  0.215E-03    2.45       4.5  T
   4   -165.7151059 -0.505671E-06  0.506E-04    2.45      19.2  T
   5   -165.7151059 -0.106682E-07  0.250E-04    2.45      38.8  T
     SCC iter.                  ...        0 min,  0.076 sec
     gradient                   ...        0 min,  0.017 sec
 * total energy  :  -162.5968805 Eh     change       -0.8450466E-04 Eh
   gradient norm :     0.0013803 Eh/α   predicted    -0.5678939E-04 ( -32.80%)
   displ. norm   :     0.7757686 α      lambda       -0.1046558E-03
   maximum displ.:     0.4750350 α      in ANC's #6, #3, #4, ...

........................................................................
.............................. CYCLE   33 ..............................
........................................................................

 iter      E             dE          RMSdq      gap      omega  full diag
   1   -165.7148180 -0.165715E+03  0.959E-02    2.45       0.0  T
   2   -165.7148194 -0.135113E-05  0.562E-02    2.45       1.0  T
   3   -165.7148189  0.501292E-06  0.321E-03    2.45       3.0  T
   4   -165.7148199 -0.107495E-05  0.868E-04    2.45      11.2  T
   5   -165.7148200 -0.215539E-07  0.446E-04    2.45      21.8  T
   6   -165.7148200  0.396000E-09  0.224E-04    2.45      43.4  T
     SCC iter.                  ...        0 min,  0.094 sec
     gradient                   ...        0 min,  0.018 sec
 * total energy  :  -162.5970043 Eh     change       -0.1237610E-03 Eh
   gradient norm :     0.0022096 Eh/α   predicted    -0.6632688E-04 ( -46.41%)
   displ. norm   :     0.4281968 α      lambda       -0.7669174E-04
   maximum displ.:     0.2630049 α      in ANC's #6, #3, #4, ...

........................................................................
.............................. CYCLE   34 ..............................
........................................................................

 iter      E             dE          RMSdq      gap      omega  full diag
   1   -165.7151947 -0.165715E+03  0.546E-02    2.45       0.0  T
   2   -165.7151950 -0.346636E-06  0.320E-02    2.45       1.0  T
   3   -165.7151949  0.893003E-07  0.164E-03    2.45       5.9  T
   4   -165.7151952 -0.264632E-06  0.478E-04    2.45      20.3  T
   5   -165.7151952 -0.130592E-08  0.269E-04    2.45      36.1  T
     SCC iter.                  ...        0 min,  0.076 sec
     gradient                   ...        0 min,  0.017 sec
 * total energy  :  -162.5970754 Eh     change       -0.7113820E-04 Eh
   gradient norm :     0.0024358 Eh/α   predicted    -0.4537726E-04 ( -36.21%)
   displ. norm   :     0.5910665 α      lambda       -0.1192117E-03
   maximum displ.:     0.3630863 α      in ANC's #6, #3, #4, ...

........................................................................
.............................. CYCLE   35 ..............................
........................................................................

 iter      E             dE          RMSdq      gap      omega  full diag
   1   -165.7152079 -0.165715E+03  0.789E-02    2.44       0.0  T
   2   -165.7152086 -0.686983E-06  0.462E-02    2.44       1.0  T
   3   -165.7152084  0.153622E-06  0.229E-03    2.44       4.2  T
   4   -165.7152089 -0.508596E-06  0.686E-04    2.44      14.2  T
   5   -165.7152089 -0.279215E-09  0.391E-04    2.44      24.8  T
     SCC iter.                  ...        0 min,  0.080 sec
     gradient                   ...        0 min,  0.017 sec
 * total energy  :  -162.5971849 Eh     change       -0.1094140E-03 Eh
   gradient norm :     0.0023184 Eh/α   predicted    -0.8043003E-04 ( -26.49%)
   displ. norm   :     0.7106720 α      lambda       -0.1475656E-03
   maximum displ.:     0.4370361 α      in ANC's #6, #3, #4, ...

........................................................................
.............................. CYCLE   36 ..............................
........................................................................

 iter      E             dE          RMSdq      gap      omega  full diag
   1   -165.7137037 -0.165714E+03  0.984E-02    2.43       0.0  T
   2   -165.7137048 -0.111332E-05  0.577E-02    2.43       1.0  T
   3   -165.7137045  0.305004E-06  0.294E-03    2.43       3.3  T
   4   -165.7137053 -0.852424E-06  0.874E-04    2.43      11.1  T
   5   -165.7137053 -0.773116E-08  0.488E-04    2.43      19.9  T
     SCC iter.                  ...        0 min,  0.077 sec
     gradient                   ...        0 min,  0.017 sec
 * total energy  :  -162.5973164 Eh     change       -0.1315819E-03 Eh
   gradient norm :     0.0022941 Eh/α   predicted    -0.1110526E-03 ( -15.60%)
   displ. norm   :     0.7017151 α      lambda       -0.1427088E-03
   maximum displ.:     0.4317978 α      in ANC's #6, #3, #4, ...

........................................................................
.............................. CYCLE   37 ..............................
........................................................................

 iter      E             dE          RMSdq      gap      omega  full diag
   1   -165.7125464 -0.165713E+03  0.101E-01    2.41       0.0  T
   2   -165.7125476 -0.123441E-05  0.594E-02    2.41       1.0  T
   3   -165.7125472  0.415135E-06  0.307E-03    2.41       3.2  T
   4   -165.7125482 -0.999646E-06  0.888E-04    2.41      10.9  T
   5   -165.7125482 -0.115205E-07  0.482E-04    2.41      20.2  T
     SCC iter.                  ...        0 min,  0.079 sec
     gradient                   ...        0 min,  0.018 sec
 * total energy  :  -162.5974311 Eh     change       -0.1146937E-03 Eh
   gradient norm :     0.0024516 Eh/α   predicted    -0.1064917E-03 (  -7.15%)
   displ. norm   :     0.5630760 α      lambda       -0.9424067E-04
   maximum displ.:     0.3480323 α      in ANC's #6, #3, #4, ...

........................................................................
.............................. CYCLE   38 ..............................
........................................................................

 iter      E             dE          RMSdq      gap      omega  full diag
   1   -165.7120453 -0.165712E+03  0.814E-02    2.40       0.0  T
   2   -165.7120461 -0.791525E-06  0.477E-02    2.40       1.0  T
   3   -165.7120460  0.171198E-06  0.220E-03    2.40       4.4  T
   4   -165.7120465 -0.539159E-06  0.682E-04    2.40      14.2  T
   5   -165.7120465 -0.835544E-08  0.341E-04    2.40      28.5  T
     SCC iter.                  ...        0 min,  0.074 sec
     gradient                   ...        0 min,  0.017 sec
 * total energy  :  -162.5975023 Eh     change       -0.7113477E-04 Eh
   gradient norm :     0.0025309 Eh/α   predicted    -0.6206353E-04 ( -12.75%)
   displ. norm   :     0.4574079 α      lambda       -0.6507520E-04
   maximum displ.:     0.2849731 α      in ANC's #6, #3, #4, ...

........................................................................
.............................. CYCLE   39 ..............................
........................................................................

 iter      E             dE          RMSdq      gap      omega  full diag
   1   -165.7122563 -0.165712E+03  0.631E-02    2.39       0.0  T
   2   -165.7122567 -0.443448E-06  0.370E-02    2.39       1.0  T
   3   -165.7122567  0.303868E-07  0.155E-03    2.39       6.3  T
   4   -165.7122569 -0.251014E-06  0.514E-04    2.39      18.9  T
   5   -165.7122569 -0.140895E-08  0.237E-04    2.39      41.0  T
     SCC iter.                  ...        0 min,  0.079 sec
     gradient                   ...        0 min,  0.017 sec
 * total energy  :  -162.5975522 Eh     change       -0.4989892E-04 Eh
   gradient norm :     0.0022474 Eh/α   predicted    -0.3934697E-04 ( -21.15%)
   displ. norm   :     0.4106577 α      lambda       -0.5630891E-04
   maximum displ.:     0.2571213 α      in ANC's #6, #3, #4, ...

........................................................................
.............................. CYCLE   40 ..............................
........................................................................

 iter      E             dE          RMSdq      gap      omega  full diag
   1   -165.7133894 -0.165713E+03  0.531E-02    2.38       0.0  T
   2   -165.7133898 -0.354943E-06  0.311E-02    2.38       1.0  T
   3   -165.7133897  0.104254E-06  0.167E-03    2.38       5.8  T
   4   -165.7133899 -0.276421E-06  0.471E-04    2.38      20.6  T
   5   -165.7133899 -0.156490E-08  0.265E-04    2.38      36.6  T
     SCC iter.                  ...        0 min,  0.075 sec
     gradient                   ...        0 min,  0.017 sec
 * total energy  :  -162.5975951 Eh     change       -0.4297239E-04 Eh
   gradient norm :     0.0018227 Eh/α   predicted    -0.3290498E-04 ( -23.43%)
   displ. norm   :     0.6615976 α      lambda       -0.4652518E-04
   maximum displ.:     0.4154565 α      in ANC's #6, #3, #4, ...

........................................................................
.............................. CYCLE   41 ..............................
........................................................................

 iter      E             dE          RMSdq      gap      omega  full diag
   1   -165.7118435 -0.165712E+03  0.801E-02    2.37       0.0  T
   2   -165.7118444 -0.895754E-06  0.469E-02    2.37       1.0  T
   3   -165.7118441  0.312105E-06  0.276E-03    2.37       3.5  T
   4   -165.7118448 -0.714738E-06  0.730E-04    2.37      13.3  T
   5   -165.7118448 -0.771394E-08  0.420E-04    2.37      23.1  T
     SCC iter.                  ...        0 min,  0.079 sec
     gradient                   ...        0 min,  0.018 sec
 * total energy  :  -162.5976359 Eh     change       -0.4077472E-04 Eh
   gradient norm :     0.0020792 Eh/α   predicted    -0.2778929E-04 ( -31.85%)
   displ. norm   :     0.1289162 α      lambda       -0.3885177E-04
   maximum displ.:     0.0616015 α      in ANC's #6, #3, #4, ...

........................................................................
.............................. CYCLE   42 ..............................
........................................................................

 iter      E             dE          RMSdq      gap      omega  full diag
   1   -165.7190230 -0.165719E+03  0.183E-02    2.37       0.0  T
   2   -165.7190235 -0.501156E-06  0.108E-02    2.37       1.0  T
   3   -165.7190225  0.101181E-05  0.324E-03    2.37       3.0  T
   4   -165.7190237 -0.119506E-05  0.437E-04    2.37      22.2  T
   5   -165.7190237 -0.136052E-07  0.178E-04    2.37      54.7  T
   6   -165.7190237 -0.869107E-09  0.996E-05    2.37      97.5  T
     SCC iter.                  ...        0 min,  0.090 sec
     gradient                   ...        0 min,  0.018 sec
 * total energy  :  -162.5976453 Eh     change       -0.9375494E-05 Eh
   gradient norm :     0.0026043 Eh/α   predicted    -0.1974936E-04 ( 110.65%)
   displ. norm   :     0.1931288 α      lambda       -0.3600857E-04
   maximum displ.:     0.1182568 α      in ANC's #6, #3, #4, ...
 * RMSD in coord.:     0.7815678 α      energy gain  -0.1372042E-02 Eh

generating ANC from exact Hessian ...
Using Lindh-Hessian (1995)
 Shifting diagonal of input Hessian by   9.955598274860145E-003
 Lowest  eigenvalues of input Hessian
    0.000000    0.000000    0.000000    0.000000    0.000000    0.000000
    0.010000    0.010016    0.010047    0.010062    0.010078    0.010097
    0.010187    0.010434    0.010751    0.010836    0.010978    0.011393
 Highest eigenvalues
    2.187024    2.187787    2.189233    2.217788    2.218501    2.218674
 

........................................................................
.............................. CYCLE   43 ..............................
........................................................................

 iter      E             dE          RMSdq      gap      omega  full diag
   1   -165.7155960 -0.165716E+03  0.225E-02    2.37       0.0  T
   2   -165.7155961 -0.131477E-06  0.132E-02    2.37       1.0  T
   3   -165.7155959  0.142440E-06  0.136E-03    2.37       7.1  T
   4   -165.7155961 -0.192639E-06  0.224E-04    2.37      43.3  T
   5   -165.7155961 -0.118928E-08  0.128E-04    2.37      75.8  T
     SCC iter.                  ...        0 min,  0.076 sec
     gradient                   ...        0 min,  0.018 sec
 * total energy  :  -162.5976726 Eh     change       -0.2727383E-04 Eh
   gradient norm :     0.0014709 Eh/α   predicted     0.0000000E+00 (-100.00%)
   displ. norm   :     0.0367424 α      lambda       -0.1273852E-04
   maximum displ.:     0.0124457 α      in ANC's #7, #26, #15, ...

........................................................................
.............................. CYCLE   44 ..............................
........................................................................

 iter      E             dE          RMSdq      gap      omega  full diag
   1   -165.7149632 -0.165715E+03  0.822E-03    2.37       0.0  T
   2   -165.7149632 -0.441802E-07  0.485E-03    2.37       2.0  T
   3   -165.7149632  0.895729E-07  0.102E-03    2.37       9.5  T
   4   -165.7149633 -0.104574E-06  0.187E-04    2.37      52.0  T
   5   -165.7149633 -0.193182E-08  0.807E-05    2.37     120.3  T
     SCC iter.                  ...        0 min,  0.079 sec
     gradient                   ...        0 min,  0.017 sec
 * total energy  :  -162.5976865 Eh     change       -0.1391290E-04 Eh
   gradient norm :     0.0006023 Eh/α   predicted    -0.6387733E-05 ( -54.09%)
   displ. norm   :     0.0760576 α      lambda       -0.1361788E-04
   maximum displ.:     0.0289423 α      in ANC's #7, #15, #13, ...

........................................................................
.............................. CYCLE   45 ..............................
........................................................................

 iter      E             dE          RMSdq      gap      omega  full diag
   1   -165.7146457 -0.165715E+03  0.151E-02    2.38       0.0  T
   2   -165.7146458 -0.812975E-07  0.886E-03    2.38       1.1  T
   3   -165.7146456  0.171367E-06  0.146E-03    2.38       6.6  T
   4   -165.7146458 -0.202084E-06  0.260E-04    2.38      37.3  T
   5   -165.7146458 -0.354393E-08  0.118E-04    2.38      82.1  T
     SCC iter.                  ...        0 min,  0.075 sec
     gradient                   ...        0 min,  0.017 sec
 * total energy  :  -162.5976999 Eh     change       -0.1344794E-04 Eh
   gradient norm :     0.0008893 Eh/α   predicted    -0.6826748E-05 ( -49.24%)
   displ. norm   :     0.0664856 α      lambda       -0.6630932E-05
   maximum displ.:     0.0286417 α      in ANC's #7, #15, #13, ...

........................................................................
.............................. CYCLE   46 ..............................
........................................................................

 iter      E             dE          RMSdq      gap      omega  full diag
   1   -165.7148081 -0.165715E+03  0.120E-02    2.38       0.0  T
   2   -165.7148081 -0.337166E-07  0.704E-03    2.38       1.4  T
   3   -165.7148081  0.467185E-07  0.806E-04    2.38      12.1  T
   4   -165.7148081 -0.601746E-07  0.150E-04    2.38      64.9  T
     SCC iter.                  ...        0 min,  0.063 sec
     gradient                   ...        0 min,  0.017 sec
 * total energy  :  -162.5977070 Eh     change       -0.7115341E-05 Eh
   gradient norm :     0.0007306 Eh/α   predicted    -0.3322098E-05 ( -53.31%)
   displ. norm   :     0.0803154 α      lambda       -0.6378898E-05
   maximum displ.:     0.0367310 α      in ANC's #7, #6, #11, ...

........................................................................
.............................. CYCLE   47 ..............................
........................................................................

 iter      E             dE          RMSdq      gap      omega  full diag
   1   -165.7150420 -0.165715E+03  0.132E-02    2.38       0.0  T
   2   -165.7150420 -0.443955E-07  0.776E-03    2.38       1.3  T
   3   -165.7150420  0.609391E-07  0.876E-04    2.38      11.1  T
   4   -165.7150420 -0.770956E-07  0.166E-04    2.38      58.6  T
     SCC iter.                  ...        0 min,  0.060 sec
     gradient                   ...        0 min,  0.017 sec
 * total energy  :  -162.5977141 Eh     change       -0.7050686E-05 Eh
   gradient norm :     0.0005220 Eh/α   predicted    -0.3200702E-05 ( -54.60%)
   displ. norm   :     0.0918587 α      lambda       -0.6291276E-05
   maximum displ.:     0.0435203 α      in ANC's #7, #6, #11, ...

........................................................................
.............................. CYCLE   48 ..............................
........................................................................

 iter      E             dE          RMSdq      gap      omega  full diag
   1   -165.7153132 -0.165715E+03  0.136E-02    2.39       0.0  T
   2   -165.7153133 -0.500066E-07  0.800E-03    2.39       1.2  T
   3   -165.7153132  0.599052E-07  0.873E-04    2.39      11.1  T
   4   -165.7153133 -0.779312E-07  0.156E-04    2.39      62.2  T
     SCC iter.                  ...        0 min,  0.064 sec
     gradient                   ...        0 min,  0.018 sec
 * total energy  :  -162.5977211 Eh     change       -0.6991375E-05 Eh
   gradient norm :     0.0005509 Eh/α   predicted    -0.3159210E-05 ( -54.81%)
   displ. norm   :     0.0928478 α      lambda       -0.5378944E-05
   maximum displ.:     0.0450148 α      in ANC's #7, #6, #11, ...

........................................................................
.............................. CYCLE   49 ..............................
........................................................................

 iter      E             dE          RMSdq      gap      omega  full diag
   1   -165.7154258 -0.165715E+03  0.126E-02    2.39       0.0  T
   2   -165.7154258 -0.410290E-07  0.741E-03    2.39       1.3  T
   3   -165.7154258  0.489508E-07  0.825E-04    2.39      11.8  T
   4   -165.7154258 -0.650601E-07  0.135E-04    2.39      71.9  T
     SCC iter.                  ...        0 min,  0.061 sec
     gradient                   ...        0 min,  0.017 sec
 * total energy  :  -162.5977270 Eh     change       -0.5950762E-05 Eh
   gradient norm :     0.0005885 Eh/α   predicted    -0.2703320E-05 ( -54.57%)
   displ. norm   :     0.0823040 α      lambda       -0.4262547E-05
   maximum displ.:     0.0406391 α      in ANC's #7, #6, #8, ...

........................................................................
.............................. CYCLE   50 ..............................
........................................................................

 iter      E             dE          RMSdq      gap      omega  full diag
   1   -165.7153937 -0.165715E+03  0.108E-02    2.39       0.0  T
   2   -165.7153937 -0.259093E-07  0.633E-03    2.39       1.5  T
   3   -165.7153937  0.313967E-07  0.673E-04    2.39      14.4  T
   4   -165.7153937 -0.430697E-07  0.112E-04    2.39      86.4  T
     SCC iter.                  ...        0 min,  0.061 sec
     gradient                   ...        0 min,  0.017 sec
 * total energy  :  -162.5977318 Eh     change       -0.4735906E-05 Eh
   gradient norm :     0.0004867 Eh/α   predicted    -0.2138183E-05 ( -54.85%)
   displ. norm   :     0.0823809 α      lambda       -0.3850087E-05
   maximum displ.:     0.0409882 α      in ANC's #7, #6, #8, ...

........................................................................
.............................. CYCLE   51 ..............................
........................................................................

 iter      E             dE          RMSdq      gap      omega  full diag
   1   -165.7152561 -0.165715E+03  0.110E-02    2.39       0.0  T
   2   -165.7152562 -0.243219E-07  0.648E-03    2.39       1.5  T
   3   -165.7152561  0.330950E-07  0.663E-04    2.39      14.7  T
   4   -165.7152562 -0.446067E-07  0.114E-04    2.39      85.2  T
     SCC iter.                  ...        0 min,  0.060 sec
     gradient                   ...        0 min,  0.018 sec
 * total energy  :  -162.5977361 Eh     change       -0.4342199E-05 Eh
   gradient norm :     0.0003746 Eh/α   predicted    -0.1934891E-05 ( -55.44%)
   displ. norm   :     0.0883904 α      lambda       -0.3864229E-05
   maximum displ.:     0.0439793 α      in ANC's #7, #6, #4, ...

........................................................................
.............................. CYCLE   52 ..............................
........................................................................

 iter      E             dE          RMSdq      gap      omega  full diag
   1   -165.7150508 -0.165715E+03  0.125E-02    2.38       0.0  T
   2   -165.7150508 -0.294253E-07  0.734E-03    2.38       1.3  T
   3   -165.7150508  0.479367E-07  0.782E-04    2.38      12.4  T
   4   -165.7150508 -0.620792E-07  0.156E-04    2.38      62.1  T
     SCC iter.                  ...        0 min,  0.061 sec
     gradient                   ...        0 min,  0.017 sec
 * total energy  :  -162.5977406 Eh     change       -0.4459802E-05 Eh
   gradient norm :     0.0004020 Eh/α   predicted    -0.1942415E-05 ( -56.45%)
   displ. norm   :     0.1008582 α      lambda       -0.4143108E-05
   maximum displ.:     0.0498259 α      in ANC's #7, #6, #4, ...

........................................................................
.............................. CYCLE   53 ..............................
........................................................................

 iter      E             dE          RMSdq      gap      omega  full diag
   1   -165.7148756 -0.165715E+03  0.148E-02    2.38       0.0  T
   2   -165.7148757 -0.343995E-07  0.868E-03    2.38       1.1  T
   3   -165.7148756  0.683668E-07  0.941E-04    2.38      10.3  T
   4   -165.7148757 -0.865153E-07  0.179E-04    2.38      54.4  T
     SCC iter.                  ...        0 min,  0.061 sec
     gradient                   ...        0 min,  0.018 sec
 * total energy  :  -162.5977454 Eh     change       -0.4800190E-05 Eh
   gradient norm :     0.0004869 Eh/α   predicted    -0.2084461E-05 ( -56.58%)
   displ. norm   :     0.1063573 α      lambda       -0.4009069E-05
   maximum displ.:     0.0524781 α      in ANC's #7, #6, #4, ...

........................................................................
.............................. CYCLE   54 ..............................
........................................................................

 iter      E             dE          RMSdq      gap      omega  full diag
   1   -165.7147900 -0.165715E+03  0.155E-02    2.38       0.0  T
   2   -165.7147901 -0.331393E-07  0.908E-03    2.38       1.1  T
   3   -165.7147900  0.658897E-07  0.942E-04    2.38      10.3  T
   4   -165.7147901 -0.853275E-07  0.181E-04    2.38      53.8  T
     SCC iter.                  ...        0 min,  0.061 sec
     gradient                   ...        0 min,  0.017 sec
 * total energy  :  -162.5977499 Eh     change       -0.4527012E-05 Eh
   gradient norm :     0.0004655 Eh/α   predicted    -0.2015488E-05 ( -55.48%)
   displ. norm   :     0.0983536 α      lambda       -0.3272503E-05
   maximum displ.:     0.0485422 α      in ANC's #7, #6, #4, ...

........................................................................
.............................. CYCLE   55 ..............................
........................................................................

 iter      E             dE          RMSdq      gap      omega  full diag
   1   -165.7148407 -0.165715E+03  0.138E-02    2.38       0.0  T
   2   -165.7148407 -0.248856E-07  0.807E-03    2.38       1.2  T
   3   -165.7148407  0.372482E-07  0.721E-04    2.38      13.5  T
   4   -165.7148407 -0.516187E-07  0.154E-04    2.38      63.0  T
     SCC iter.                  ...        0 min,  0.062 sec
     gradient                   ...        0 min,  0.017 sec
 * total energy  :  -162.5977536 Eh     change       -0.3684573E-05 Eh
   gradient norm :     0.0003300 Eh/α   predicted    -0.1644706E-05 ( -55.36%)
   displ. norm   :     0.0886809 α      lambda       -0.2608563E-05
   maximum displ.:     0.0434348 α      in ANC's #7, #6, #4, ...

........................................................................
.............................. CYCLE   56 ..............................
........................................................................

 iter      E             dE          RMSdq      gap      omega  full diag
   1   -165.7149670 -0.165715E+03  0.117E-02    2.38       0.0  T
   2   -165.7149670 -0.190986E-07  0.683E-03    2.38       1.4  T
   3   -165.7149670  0.128359E-07  0.460E-04    2.38      21.1  T
   4   -165.7149670 -0.224773E-07  0.130E-04    2.38      74.9  T
     SCC iter.                  ...        0 min,  0.062 sec
     gradient                   ...        0 min,  0.017 sec
 * total energy  :  -162.5977565 Eh     change       -0.2959158E-05 Eh
   gradient norm :     0.0002594 Eh/α   predicted    -0.1310392E-05 ( -55.72%)
   displ. norm   :     0.0872865 α      lambda       -0.2356880E-05
   maximum displ.:     0.0425724 α      in ANC's #6, #7, #4, ...

........................................................................
.............................. CYCLE   57 ..............................
........................................................................

 iter      E             dE          RMSdq      gap      omega  full diag
   1   -165.7150761 -0.165715E+03  0.110E-02    2.38       0.0  T
   2   -165.7150762 -0.176163E-07  0.646E-03    2.38       1.5  T
   3   -165.7150762  0.611058E-08  0.368E-04    2.38      26.4  T
   4   -165.7150762 -0.144382E-07  0.104E-04    2.38      93.3  T
     SCC iter.                  ...        0 min,  0.062 sec
     gradient                   ...        0 min,  0.017 sec
 * total energy  :  -162.5977593 Eh     change       -0.2728246E-05 Eh
   gradient norm :     0.0003398 Eh/α   predicted    -0.1186800E-05 ( -56.50%)
   displ. norm   :     0.0926238 α      lambda       -0.2391744E-05
   maximum displ.:     0.0451844 α      in ANC's #6, #7, #4, ...

........................................................................
.............................. CYCLE   58 ..............................
........................................................................

 iter      E             dE          RMSdq      gap      omega  full diag
   1   -165.7151417 -0.165715E+03  0.114E-02    2.38       0.0  T
   2   -165.7151417 -0.195553E-07  0.667E-03    2.38       1.5  T
   3   -165.7151417  0.171117E-07  0.522E-04    2.38      18.6  T
   4   -165.7151417 -0.267831E-07  0.116E-04    2.38      83.7  T
     SCC iter.                  ...        0 min,  0.061 sec
     gradient                   ...        0 min,  0.017 sec
 * total energy  :  -162.5977621 Eh     change       -0.2792139E-05 Eh
   gradient norm :     0.0003882 Eh/α   predicted    -0.1205026E-05 ( -56.84%)
   displ. norm   :     0.0952147 α      lambda       -0.2394807E-05
   maximum displ.:     0.0462049 α      in ANC's #6, #4, #7, ...

........................................................................
.............................. CYCLE   59 ..............................
........................................................................

 iter      E             dE          RMSdq      gap      omega  full diag
   1   -165.7151305 -0.165715E+03  0.116E-02    2.38       0.0  T
   2   -165.7151305 -0.202316E-07  0.680E-03    2.38       1.4  T
   3   -165.7151305  0.472954E-07  0.791E-04    2.38      12.3  T
   4   -165.7151305 -0.591872E-07  0.127E-04    2.38      76.2  T
     SCC iter.                  ...        0 min,  0.061 sec
     gradient                   ...        0 min,  0.017 sec
 * total energy  :  -162.5977648 Eh     change       -0.2701890E-05 Eh
   gradient norm :     0.0003238 Eh/α   predicted    -0.1205281E-05 ( -55.39%)
   displ. norm   :     0.0849706 α      lambda       -0.1951758E-05
   maximum displ.:     0.0417480 α      in ANC's #4, #6, #7, ...

........................................................................
.............................. CYCLE   60 ..............................
........................................................................

 iter      E             dE          RMSdq      gap      omega  full diag
   1   -165.7150633 -0.165715E+03  0.103E-02    2.38       0.0  T
   2   -165.7150633 -0.169942E-07  0.601E-03    2.38       1.6  T
   3   -165.7150632  0.393833E-07  0.711E-04    2.38      13.7  T
   4   -165.7150633 -0.490169E-07  0.122E-04    2.38      79.5  T
     SCC iter.                  ...        0 min,  0.060 sec
     gradient                   ...        0 min,  0.017 sec
 * total energy  :  -162.5977670 Eh     change       -0.2224887E-05 Eh
   gradient norm :     0.0002198 Eh/α   predicted    -0.9814306E-06 ( -55.89%)
   displ. norm   :     0.0768770 α      lambda       -0.1758009E-05
   maximum displ.:     0.0390025 α      in ANC's #4, #6, #1, ...

........................................................................
.............................. CYCLE   61 ..............................
........................................................................

 iter      E             dE          RMSdq      gap      omega  full diag
   1   -165.7149965 -0.165715E+03  0.925E-03    2.37       0.0  T
   2   -165.7149965 -0.139948E-07  0.542E-03    2.37       1.8  T
   3   -165.7149965  0.308446E-07  0.626E-04    2.37      15.5  T
   4   -165.7149965 -0.385091E-07  0.111E-04    2.37      87.2  T
     SCC iter.                  ...        0 min,  0.063 sec
     gradient                   ...        0 min,  0.017 sec
 * total energy  :  -162.5977691 Eh     change       -0.2127712E-05 Eh
   gradient norm :     0.0002287 Eh/α   predicted    -0.8851977E-06 ( -58.40%)
   displ. norm   :     0.0877623 α      lambda       -0.2066486E-05
   maximum displ.:     0.0450808 α      in ANC's #4, #6, #1, ...

........................................................................
.............................. CYCLE   62 ..............................
........................................................................

 iter      E             dE          RMSdq      gap      omega  full diag
   1   -165.7149039 -0.165715E+03  0.108E-02    2.37       0.0  T
   2   -165.7149039 -0.185515E-07  0.630E-03    2.37       1.5  T
   3   -165.7149039  0.266617E-07  0.607E-04    2.37      16.0  T
   4   -165.7149040 -0.359877E-07  0.127E-04    2.37      76.8  T
     SCC iter.                  ...        0 min,  0.060 sec
     gradient                   ...        0 min,  0.017 sec
 * total energy  :  -162.5977716 Eh     change       -0.2529644E-05 Eh
[...]
eigval :      901.75   903.04   904.26   906.51   917.50   917.92
eigval :      918.66   919.55   920.87   922.70   924.26   924.42
eigval :      925.46   928.61   929.56   931.65   931.83   933.12
eigval :      935.11   937.50   963.79   993.75  1010.99  1011.05
eigval :     1011.46  1015.46  1020.25  1029.27  1068.19  1068.58
eigval :     1068.75  1071.12  1071.69  1071.84  1079.67  1116.06
eigval :     1116.64  1116.99  1133.86  1135.52  1138.75  1143.57
eigval :     1150.34  1150.74  1151.83  1170.01  1174.28  1174.39
eigval :     1175.83  1179.38  1179.45  1180.35  1182.28  1182.86
eigval :     1183.46  1195.12  1200.58  1202.58  1207.37  1222.72
eigval :     1234.82  1235.67  1235.81  1241.86  1242.50  1244.26
eigval :     1265.95  1266.69  1268.03  1270.99  1278.72  1296.31
eigval :     1298.36  1299.34  1300.86  1301.70  1301.93  1305.98
eigval :     1310.50  1313.24  1314.36  1319.45  1336.53  1355.04
eigval :     1355.54  1355.83  1360.14  1360.58  1360.73  1363.90
eigval :     1366.89  1369.78  1393.94  1404.45  1405.28  1411.98
eigval :     1426.98  1427.41  1427.51  1428.68  1429.28  1429.88
eigval :     1473.84  1474.25  1474.33  1475.71  1486.79  1486.98
eigval :     1487.07  1489.30  1491.48  1506.07  1550.03  1556.49
eigval :     1558.91  1563.28  1572.72  1573.05  1573.09  1582.44
eigval :     1586.68  1587.08  1587.20  1590.49  1592.97  1596.60
eigval :     1596.81  1597.17  1599.80  1612.75  1612.85  1613.16
eigval :     1629.73  3045.11  3065.92  3069.31  3069.88  3069.92
eigval :     3070.29  3070.37  3070.95  3073.30  3075.47  3075.55
eigval :     3076.00  3076.21  3076.32  3076.56  3076.93  3078.57
eigval :     3079.05  3080.75  3081.50  3081.75  3081.99  3083.50
eigval :     3083.80  3083.89  3084.40  3084.78  3086.30  3089.93
eigval :     3090.13  3090.31  3090.42  3091.15  3091.38  3091.46
eigval :     3092.38  3092.53  3093.49  3093.77  3094.12  3095.44
 reduced masses (amu)
   1: 11.55   2: 11.47   3: 11.55   4: 11.47   5: 11.38   6: 11.54   7: 10.93   8: 11.00
   9: 11.12  10: 11.16  11: 10.90  12: 11.11  13: 11.07  14: 11.05  15: 10.93  16: 11.00
  17: 10.86  18: 11.04  19: 10.62  20: 10.60  21: 10.99  22: 10.25  23: 10.79  24:  9.95
  25: 10.55  26: 10.28  27: 10.46  28: 10.51  29: 10.76  30:  9.86  31: 10.74  32:  9.81
  33: 10.14  34: 11.05  35: 10.94  36: 10.96  37: 10.86  38: 10.79  39: 10.96  40: 10.79
  41: 10.72  42: 10.74  43: 10.84  44: 10.32  45: 10.26  46: 10.25  47: 10.70  48: 10.94
  49: 11.01  50: 11.07  51: 11.11  52: 11.03  53:  9.16  54:  9.65  55:  9.38  56: 10.29
  57:  9.47  58:  9.90  59:  9.61  60:  9.40  61: 10.31  62: 10.94  63: 10.49  64: 10.61
  65:  9.78  66:  9.83  67: 10.16  68: 10.52  69: 10.79  70: 10.88  71: 10.96  72: 10.07
  73:  9.92  74:  9.83  75: 10.94  76: 10.95  77: 10.97  78: 10.78  79: 10.89  80: 11.02
  81: 10.01  82:  9.95  83: 10.05  84: 10.08  85: 11.04  86: 11.33  87: 11.42  88: 11.04
  89: 11.14  90: 11.14  91: 11.10  92: 10.94  93: 10.85  94: 11.21  95: 11.26  96: 11.23
  97: 11.00  98: 10.95  99: 11.09 100: 11.59 101: 11.60 102: 11.59 103: 11.16 104: 11.19
 105: 11.33 106: 11.27 107: 11.25 108: 11.43 109: 11.37 110: 11.42 111: 11.13 112: 10.87
 113: 10.79 114: 10.87 115: 10.96 116:  3.47 117:  3.86 118: 10.19 119:  3.47 120:  4.04
 121:  4.01 122:  3.99 123:  4.59 124:  5.32 125:  5.41 126:  5.37 127:  4.65 128: 10.37
 129:  3.47 130:  3.41 131:  3.50 132:  3.43 133:  3.38 134:  3.39 135:  3.39 136:  3.44
 137:  3.28 138:  3.30 139: 11.67 140: 11.69 141: 11.69 142:  3.93 143:  3.90 144:  4.03
 145:  3.91 146:  3.93 147:  3.86 148: 10.88 149:  3.01 150:  2.89 151:  3.07 152:  3.12
 153:  3.11 154:  3.06 155:  3.37 156:  2.73 157:  2.99 158:  3.85 159:  8.82 160:  4.77
 161:  4.30 162:  4.29 163: 10.02 164:  4.41 165: 11.26 166: 10.56 167: 10.91 168: 10.93
 169: 10.94 170:  9.08 171:  8.55 172:  7.81 173:  5.79 174:  5.76 175:  5.83 176:  6.26
 177:  6.32 178:  6.33 179:  7.19 180:  7.50 181:  7.56 182:  7.67 183:  2.84 184:  3.00
 185:  3.05 186:  3.49 187:  3.85 188:  3.84 189:  3.87 190:  5.84 191:  2.83 192:  2.98
 193:  3.89 194:  1.88 195:  1.79 196:  1.92 197:  2.55 198:  2.82 199:  2.94 200:  2.57
 201:  3.27 202:  3.14 203:  3.97 204:  4.80 205:  5.66 206:  5.61 207:  5.66 208:  6.27
 209:  6.41 210:  6.58 211:  3.70 212:  3.44 213:  3.53 214:  6.50 215:  4.91 216:  7.89
 217:  7.70 218:  7.87 219:  8.75 220:  8.74 221:  8.70 222:  9.79 223: 11.25 224: 11.11
 225: 11.54 226: 11.51 227:  8.17 228: 11.51 229: 11.44 230: 11.28 231: 11.26 232: 11.26
 233: 11.24 234:  9.62 235:  9.96 236: 10.12 237:  9.97 238: 10.09 239: 10.10 240: 10.08
 241:  9.14 242:  9.14 243:  9.17 244: 10.42 245: 10.54 246: 10.59 247: 10.37 248: 10.39
 249: 10.37 250:  9.69 251: 10.40 252: 10.38 253: 10.40 254: 10.16 255: 10.15 256: 10.21
 257: 11.56 258: 11.63 259: 11.65 260: 11.66 261: 11.61 262: 11.61 263: 11.61 264: 11.49
 265: 11.57 266: 11.57 267: 11.56 268: 11.50 269: 11.51 270: 11.69 271: 11.69 272: 11.69
 273: 11.54 274: 11.70 275: 11.70 276: 11.70 277: 11.80 278:  1.80 279:  1.78 280:  1.75
 281:  1.75 282:  1.75 283:  1.75 284:  1.75 285:  1.75 286:  1.79 287:  1.80 288:  1.80
 289:  1.80 290:  1.80 291:  1.80 292:  1.80 293:  1.80 294:  1.80 295:  1.79 296:  1.84
 297:  1.79 298:  1.78 299:  1.79 300:  1.86 301:  1.86 302:  1.86 303:  1.85 304:  1.86
 305:  1.87 306:  1.87 307:  1.90 308:  1.89 309:  1.91 310:  1.87 311:  1.88 312:  1.89
 313:  1.90 314:  1.90 315:  1.88 316:  1.89 317:  1.88 318:  1.88
 IR intensities (km·mol⁻¹)
   1:  0.00   2:  0.00   3:  0.00   4:  0.00   5:  0.01   6:  0.00   7:  0.03   8:  0.03
   9:  0.04  10:  0.04  11:  0.08  12:  0.03  13:  0.03  14:  0.02  15:  0.01  16:  0.00
  17:  0.02  18:  0.01  19:  0.37  20:  0.73  21:  0.35  22:  0.80  23:  0.05  24:  3.58
  25:  0.13  26:  0.40  27:  0.18  28:  0.32  29:  0.05  30:  1.67  31:  0.63  32:  1.25
  33:  1.19  34:  0.05  35:  0.42  36:  0.29  37:  0.10  38:  0.13  39:  0.09  40:  0.43
  41:  0.32  42:  0.27  43:  2.58  44:  3.46  45:  1.08  46:  2.86  47:  0.17  48:  1.03
  49:  0.16  50:  0.23  51:  1.33  52:  1.95  53:  5.50  54:  6.52  55:  3.51  56:  2.47
  57:  2.62  58:  2.59  59:  0.86  60:  1.32  61:  0.07  62:  0.17  63:  0.52  64:  0.78
  65:  0.07  66:  0.54  67:  2.82  68:  4.79  69:  6.59  70:  6.04  71: 12.98  72:  4.51
  73:  3.53  74:  2.31  75:  0.92  76:  4.59  77:  5.05  78:  0.10  79:  0.55  80:  0.20
  81:  0.55  82:  0.58  83:  0.42  84:  0.64  85:  1.03  86:  0.24  87:  0.83  88:  0.70
  89:  0.53  90:  1.26  91:  1.67  92:  5.84  93:  3.82  94:  1.17  95:  3.01  96:  2.99
  97:  0.36  98:  3.76  99:  2.19 100:  0.78 101:  1.05 102:  0.98 103:  1.53 104:  2.29
 105:  2.19 106:  1.13 107:  0.67 108:  7.69 109:  1.43 110:  4.90 111:  6.16 112:  1.24
 113:  0.12 114:  0.27 115:  0.67 116: 55.09 117: 50.67 118:  0.75 119: 59.26 120:  0.96
 121:  0.68 122:  0.63 123: 10.75 124: 11.97 125: 16.76 126:  3.33 127: 27.03 128:  4.26
 129:  0.42 130:  0.57 131:  0.15 132:  0.18 133:  0.25 134:  0.16 135:  0.18 136:  0.36
 137:  1.03 138:  1.32 139:  6.93 140: 11.01 141:  9.82 142:  0.09 143:  0.06 144:  0.26
 145:  0.13 146:  0.54 147:  0.39 148:  7.72 149:  0.02 150:  0.46 151:  0.35 152:  0.24
 153:  1.04 154:  0.80 155:  0.11 156:  0.35 157:  0.09 158:  0.19 159:  0.33 160:  0.91
 161:  1.75 162:  2.67 163:  0.25 164:  3.55 165:  4.21 166: 10.86 167:  0.86 168:  0.67
 169:  0.75 170:  1.54 171:  0.02 172:  0.97 173:  0.67 174:  0.69 175:  0.61 176:  0.30
 177:  0.29 178:  0.50 179:  2.51 180:  3.82 181:  6.14 182:  4.36 183:  0.51 184:  0.89
 185:  0.72 186:  0.32 187: 11.85 188: 13.69 189: 12.27 190:  3.03 191:  2.14 192:  3.61
 193:  5.91 194:  7.34 195:  4.86 196:  6.99 197: 25.31 198:  8.94 199: 10.90 200:  0.13
 201:  0.00 202:  0.37 203:  0.68 204:  0.64 205: 47.34 206: 44.39 207: 49.60 208:  0.39
 209: 10.23 210:  5.59 211: 10.49 212:  8.87 213:  1.60 214:  4.47 215:  2.41 216: 13.29
 217:  4.36 218:  2.14 219:146.57 220:193.16 221: 95.69 222: 16.92 223:  4.12 224: 12.45
 225:  3.11 226:  0.30 227:  7.76 228: 16.32 229: 37.03 230: 38.79 231:  1.20 232:  0.77
 233:  1.99 234: 75.53 235:311.50 236:242.53 237:  1.24 238:  3.15 239:  1.36 240:  0.66
 241:  9.24 242: 12.24 243: 16.21 244:149.33 245:644.97 246:541.15 247: 87.39 248: 65.66
 249: 76.23 250:187.68 251: 30.19 252:  9.06 253: 13.37 254:405.16 255:378.28 256: 93.08
 257:  0.99 258:  4.64 259:  2.73 260:  1.93 261:  5.60 262:  3.76 263:  6.84 264:  5.91
 265: 67.45 266: 25.97 267: 24.54 268: 94.90 269: 48.53 270: 52.21 271: 56.55 272: 51.03
 273: 18.90 274: 93.00 275: 18.66 276: 42.92 277:  1.17 278: 66.14 279: 43.87 280:  4.65
 281:  0.66 282:  0.38 283:  3.08 284:  3.10 285:  2.61 286: 49.70 287: 87.32 288: 74.53
 289: 64.61 290:  1.01 291:  3.95 292: 69.15 293: 25.57 294: 34.96 295: 14.48 296:106.29
 297:104.52 298: 61.49 299: 27.66 300:  1.33 301:  6.67 302: 85.97 303:262.15 304:268.76
 305:227.08 306: 99.16 307:100.50 308:240.48 309:182.30 310:117.70 311:107.29 312: 84.31
 313: 17.95 314: 16.90 315: 15.50 316:  5.29 317: 11.18 318: 25.04
 Raman intensities (Ä⁴*amu⁻¹)
   1:  0.00   2:  0.00   3:  0.00   4:  0.00   5:  0.00   6:  0.00   7:  0.00   8:  0.00
   9:  0.00  10:  0.00  11:  0.00  12:  0.00  13:  0.00  14:  0.00  15:  0.00  16:  0.00
  17:  0.00  18:  0.00  19:  0.00  20:  0.00  21:  0.00  22:  0.00  23:  0.00  24:  0.00
  25:  0.00  26:  0.00  27:  0.00  28:  0.00  29:  0.00  30:  0.00  31:  0.00  32:  0.00
  33:  0.00  34:  0.00  35:  0.00  36:  0.00  37:  0.00  38:  0.00  39:  0.00  40:  0.00
  41:  0.00  42:  0.00  43:  0.00  44:  0.00  45:  0.00  46:  0.00  47:  0.00  48:  0.00
  49:  0.00  50:  0.00  51:  0.00  52:  0.00  53:  0.00  54:  0.00  55:  0.00  56:  0.00
  57:  0.00  58:  0.00  59:  0.00  60:  0.00  61:  0.00  62:  0.00  63:  0.00  64:  0.00
  65:  0.00  66:  0.00  67:  0.00  68:  0.00  69:  0.00  70:  0.00  71:  0.00  72:  0.00
  73:  0.00  74:  0.00  75:  0.00  76:  0.00  77:  0.00  78:  0.00  79:  0.00  80:  0.00
  81:  0.00  82:  0.00  83:  0.00  84:  0.00  85:  0.00  86:  0.00  87:  0.00  88:  0.00
  89:  0.00  90:  0.00  91:  0.00  92:  0.00  93:  0.00  94:  0.00  95:  0.00  96:  0.00
  97:  0.00  98:  0.00  99:  0.00 100:  0.00 101:  0.00 102:  0.00 103:  0.00 104:  0.00
 105:  0.00 106:  0.00 107:  0.00 108:  0.00 109:  0.00 110:  0.00 111:  0.00 112:  0.00
 113:  0.00 114:  0.00 115:  0.00 116:  0.00 117:  0.00 118:  0.00 119:  0.00 120:  0.00
 121:  0.00 122:  0.00 123:  0.00 124:  0.00 125:  0.00 126:  0.00 127:  0.00 128:  0.00
 129:  0.00 130:  0.00 131:  0.00 132:  0.00 133:  0.00 134:  0.00 135:  0.00 136:  0.00
 137:  0.00 138:  0.00 139:  0.00 140:  0.00 141:  0.00 142:  0.00 143:  0.00 144:  0.00
 145:  0.00 146:  0.00 147:  0.00 148:  0.00 149:  0.00 150:  0.00 151:  0.00 152:  0.00
 153:  0.00 154:  0.00 155:  0.00 156:  0.00 157:  0.00 158:  0.00 159:  0.00 160:  0.00
 161:  0.00 162:  0.00 163:  0.00 164:  0.00 165:  0.00 166:  0.00 167:  0.00 168:  0.00
 169:  0.00 170:  0.00 171:  0.00 172:  0.00 173:  0.00 174:  0.00 175:  0.00 176:  0.00
 177:  0.00 178:  0.00 179:  0.00 180:  0.00 181:  0.00 182:  0.00 183:  0.00 184:  0.00
 185:  0.00 186:  0.00 187:  0.00 188:  0.00 189:  0.00 190:  0.00 191:  0.00 192:  0.00
 193:  0.00 194:  0.00 195:  0.00 196:  0.00 197:  0.00 198:  0.00 199:  0.00 200:  0.00
 201:  0.00 202:  0.00 203:  0.00 204:  0.00 205:  0.00 206:  0.00 207:  0.00 208:  0.00
 209:  0.00 210:  0.00 211:  0.00 212:  0.00 213:  0.00 214:  0.00 215:  0.00 216:  0.00
 217:  0.00 218:  0.00 219:  0.00 220:  0.00 221:  0.00 222:  0.00 223:  0.00 224:  0.00
 225:  0.00 226:  0.00 227:  0.00 228:  0.00 229:  0.00 230:  0.00 231:  0.00 232:  0.00
 233:  0.00 234:  0.00 235:  0.00 236:  0.00 237:  0.00 238:  0.00 239:  0.00 240:  0.00
 241:  0.00 242:  0.00 243:  0.00 244:  0.00 245:  0.00 246:  0.00 247:  0.00 248:  0.00
 249:  0.00 250:  0.00 251:  0.00 252:  0.00 253:  0.00 254:  0.00 255:  0.00 256:  0.00
 257:  0.00 258:  0.00 259:  0.00 260:  0.00 261:  0.00 262:  0.00 263:  0.00 264:  0.00
 265:  0.00 266:  0.00 267:  0.00 268:  0.00 269:  0.00 270:  0.00 271:  0.00 272:  0.00
 273:  0.00 274:  0.00 275:  0.00 276:  0.00 277:  0.00 278:  0.00 279:  0.00 280:  0.00
 281:  0.00 282:  0.00 283:  0.00 284:  0.00 285:  0.00 286:  0.00 287:  0.00 288:  0.00
 289:  0.00 290:  0.00 291:  0.00 292:  0.00 293:  0.00 294:  0.00 295:  0.00 296:  0.00
 297:  0.00 298:  0.00 299:  0.00 300:  0.00 301:  0.00 302:  0.00 303:  0.00 304:  0.00
 305:  0.00 306:  0.00 307:  0.00 308:  0.00 309:  0.00 310:  0.00 311:  0.00 312:  0.00
 313:  0.00 314:  0.00 315:  0.00 316:  0.00 317:  0.00 318:  0.00
 output can be read by thermo (or use thermo option).
 writing <g98.out> molden fake output.
 recommended (thermochemical) frequency scaling factor: 1.0
           -------------------------------------------------
          |             Thermodynamic Functions             |
           -------------------------------------------------

Molecule has no symmetry elements
It seems to be the C1 point group
c1  symmetry found (for desy threshold:  0.10E+00) used in thermo
 inverting freq            1   1.44812741291425     

          ...................................................
          :                      SETUP                      :
          :.................................................:
          :  # frequencies                         312      :
          :  # imaginary freq.                       0      :
          :  linear?                             false      :
          :  only rotor calc.                    false      :
          :  symmetry                               c1      :
          :  rotational number                       1      :
          :  scaling factor                  1.0000000      :
          :  rotor cutoff                   50.0000000 cm⁻¹ :
          :  imag. cutoff                  -20.0000000 cm⁻¹ :
          :.................................................:

    mode    ω/cm⁻¹     T·S(HO)/kcal·mol⁻¹    T·S(FR)/kcal·mol⁻¹   T·S(vib)
   ------------------------------------------------------------------------
       1      1.45    -3.53330 (  0.00%)    -2.10566 (100.00%)    -2.10566
       2      4.64    -2.84285 (  0.01%)    -1.76050 ( 99.99%)    -1.76058
       3      9.85    -2.39746 (  0.15%)    -1.53781 ( 99.85%)    -1.53910
       4     10.79    -2.34347 (  0.22%)    -1.51081 ( 99.78%)    -1.51261
       5     12.83    -2.24090 (  0.43%)    -1.45951 ( 99.57%)    -1.46288
       6     14.28    -2.17731 (  0.66%)    -1.42770 ( 99.34%)    -1.43266
       7     21.68    -1.93027 (  3.41%)    -1.30411 ( 96.59%)    -1.32548
       8     31.48    -1.70955 ( 13.58%)    -1.19360 ( 86.42%)    -1.26367
       9     39.15    -1.58074 ( 27.31%)    -1.12904 ( 72.69%)    -1.25241
      10     41.55    -1.54556 ( 32.29%)    -1.11140 ( 67.71%)    -1.25157
      11     44.36    -1.50693 ( 38.25%)    -1.09202 ( 61.75%)    -1.25073
      12     53.48    -1.39660 ( 56.70%)    -1.03659 ( 43.30%)    -1.24070
      13     63.84    -1.29246 ( 72.66%)    -0.98418 ( 27.34%)    -1.20816
      14     66.65    -1.26713 ( 75.94%)    -0.97140 ( 24.06%)    -1.19599
      15     77.28    -1.18033 ( 85.09%)    -0.92757 ( 14.91%)    -1.14264
      16     79.80    -1.16155 ( 86.64%)    -0.91807 ( 13.36%)    -1.12903
      17     83.62    -1.13416 ( 88.67%)    -0.90420 ( 11.33%)    -1.10810
      18     90.25    -1.08964 ( 91.39%)    -0.88160 (  8.61%)    -1.07173
      19     99.88    -1.03059 ( 94.09%)    -0.85156 (  5.91%)    -1.02002
      20    100.26    -1.02839 ( 94.18%)    -0.85044 (  5.82%)    -1.01802
      21    102.64    -1.01476 ( 94.67%)    -0.84348 (  5.33%)    -1.00563
      22    106.20    -0.99497 ( 95.32%)    -0.83338 (  4.68%)    -0.98740
      23    136.07    -0.85224 ( 98.21%)    -0.75997 (  1.79%)    -0.85059
      24    139.67    -0.83730 ( 98.38%)    -0.75222 (  1.62%)    -0.83593
      25    141.50    -0.82991 ( 98.46%)    -0.74838 (  1.54%)    -0.82866
      26    142.35    -0.82647 ( 98.50%)    -0.74659 (  1.50%)    -0.82527
      27    145.98    -0.81215 ( 98.64%)    -0.73914 (  1.36%)    -0.81116
      28    155.61    -0.77591 ( 98.95%)    -0.72021 (  1.05%)    -0.77533
      29    163.80    -0.74698 ( 99.14%)    -0.70501 (  0.86%)    -0.74662
      30    166.84    -0.73665 ( 99.20%)    -0.69957 (  0.80%)    -0.73635
      31    200.37    -0.63497 ( 99.61%)    -0.64532 (  0.39%)    -0.63501
      32    207.26    -0.61647 ( 99.66%)    -0.63531 (  0.34%)    -0.61654
      33    215.58    -0.59508 ( 99.71%)    -0.62365 (  0.29%)    -0.59516
      34    224.81    -0.57245 ( 99.76%)    -0.61123 (  0.24%)    -0.57255
      35    244.74    -0.52718 ( 99.83%)    -0.58607 (  0.17%)    -0.52729
      36    251.06    -0.51374 ( 99.84%)    -0.57851 (  0.16%)    -0.51385
      37    253.48    -0.50873 ( 99.85%)    -0.57568 (  0.15%)    -0.50883
      38    271.02    -0.47396 ( 99.88%)    -0.55585 (  0.12%)    -0.47405
      39    271.50    -0.47305 ( 99.89%)    -0.55533 (  0.11%)    -0.47315
      40    272.28    -0.47158 ( 99.89%)    -0.55448 (  0.11%)    -0.47167
      41    274.47    -0.46747 ( 99.89%)    -0.55211 (  0.11%)    -0.46757
      42    297.23    -0.42709 ( 99.92%)    -0.52851 (  0.08%)    -0.42717
   ------------------------------------------------------------------------

   temp. (K)  partition function   enthalpy   heat capacity  entropy
                                   cal/mol     cal/K/mol   cal/K/mol   J/K/mol
 298.15  VIB  0.430E+26            30031.757    191.005    190.790
         ROT  0.342E+09              888.752      2.981     42.034
         INT  0.147E+35            30920.509    193.986    232.824
         TR   0.231E+29             1481.254      4.968     45.998
         TOT                       32401.7632   198.9543   278.8217  1166.5898

       T/K    H(0)-H(T)+PV         H(T)/Eh          T*S/Eh         G(T)/Eh
   ------------------------------------------------------------------------
    298.15    0.516355E-01    0.871193E+00    0.132477E+00    0.738715E+00
   ------------------------------------------------------------------------

         :::::::::::::::::::::::::::::::::::::::::::::::::::::
         ::                  THERMODYNAMIC                  ::
         :::::::::::::::::::::::::::::::::::::::::::::::::::::
         :: total free energy        -161.859094895170 Eh   ::
         ::.................................................::
         :: total energy             -162.597810320276 Eh   ::
         :: zero point energy           0.819557099311 Eh   ::
         :: G(RRHO) w/o ZPVE           -0.080841674205 Eh   ::
         :: G(RRHO) contrib.            0.738715425106 Eh   ::
         :::::::::::::::::::::::::::::::::::::::::::::::::::::

optimized geometry written to: xtbopt.xyz


           -------------------------------------------------
          | TOTAL ENERGY             -162.597810320276 Eh   |
          | TOTAL ENTHALPY           -161.726617724576 Eh   |
          | TOTAL FREE ENERGY        -161.859094895170 Eh   |
          | GRADIENT NORM               0.000066085465 Eh/α |
          | HOMO-LUMO GAP               2.367137629329 eV   |
           -------------------------------------------------

------------------------------------------------------------------------
 * finished run on 2025/07/16 at 10:00:10.196     
------------------------------------------------------------------------
 total:
 * wall-time:     0 d,  0 h,  0 min, 19.426 sec
 *  cpu-time:     0 d,  0 h, 12 min, 16.935 sec
 * ratio c/w:    37.936 speedup
 SCF:
 * wall-time:     0 d,  0 h,  0 min,  0.211 sec
 *  cpu-time:     0 d,  0 h,  0 min,  8.065 sec
 * ratio c/w:    38.297 speedup
 ANC optimizer:
 * wall-time:     0 d,  0 h,  0 min, 11.446 sec
 *  cpu-time:     0 d,  0 h,  7 min, 37.772 sec
 * ratio c/w:    39.993 speedup
 analytical hessian:
 * wall-time:     0 d,  0 h,  0 min,  7.466 sec
 *  cpu-time:     0 d,  0 h,  4 min, 21.999 sec
 * ratio c/w:    35.091 speedup

