$hessian                                                                        
        0.4879385931  -0.0179439833   0.0243393530  -0.1290405160  -0.0749570966
        0.0100432671   0.0016886900  -0.0032149826   0.0013404788   0.0033138433
       -0.0006775282  -0.0035132320  -0.0000121636   0.0003564947   0.0000554090
       -0.0007704968  -0.0007806696   0.0010293319   0.0000617040   0.0009409648
        0.0003295550  -0.0002015053  -0.0001124260  -0.0002352832  -0.0000132134
        0.0000188752   0.0000400063   0.0000230756  -0.0000624706  -0.0000322806
       -0.0000850982  -0.0000041767  -0.0000051804   0.0002113179  -0.0000702769
       -0.0000454446  -0.0001318992   0.0001043724   0.0000586450   0.0001575305
       -0.0000879440  -0.0000457084  -0.0000039210   0.0000420931   0.0000207377
       -0.0000606028   0.0000330990   0.0000169545   0.0001205824  -0.0000106868
       -0.0000052688  -0.0000457025  -0.0000237501  -0.0000142519   0.0000180609
       -0.0000097130  -0.0000050662   0.0000017782  -0.0000036320  -0.0000008996
       -0.0000023382   0.0000007080   0.0000023420  -0.0000113839   0.0000027185
        0.0000033761   0.0000035685   0.0000187499   0.0000124371  -0.0001673291
       -0.0000127761   0.0000168417  -0.0000341996  -0.0000097190   0.0000290166
       -0.0000896938   0.0000151079   0.0000173889   0.0000301359  -0.0000579584
        0.0000883341   0.0000125830  -0.0000106588  -0.0000338213  -0.0000072482
       -0.0000116422   0.0000181425   0.0000281095  -0.0000076566  -0.0000726735
       -0.0000166048   0.0000467525   0.0000157066  -0.0000094048   0.0000033853
       -0.0000021797  -0.0000472903  -0.0000148552   0.0000708833   0.0000015703
        0.0000078294   0.0000072295   0.0000620703   0.0000195455  -0.0000288995
       -0.0005504012  -0.0002004648  -0.0053834262  -0.0010012627  -0.0008367445
       -0.0000029318  -0.0230369448  -0.0210732175  -0.0009746427  -0.0971151697
        0.0982716291  -0.0309443274  -0.1346258584   0.0348014239   0.1075551405
       -0.1064453705  -0.0164590645  -0.1061563752   0.0000827790   0.0021111262
        0.0007221412  -0.0000407780  -0.0000072693   0.0000561263  -0.0000217907
        0.0001047704  -0.0000366558   0.0000224766  -0.0000222405  -0.0000841944
        0.0000245367  -0.0000576711  -0.0000584711   0.0000068812   0.0000101213
        0.0000080152   0.0000008449   0.0000025771   0.0000020236  -0.0000078567
        0.0000008873   0.0000030957  -0.0000045279  -0.0000001964   0.0000022344
       -0.0000030351  -0.0000013489   0.0000018664  -0.0000031886   0.0000040730
        0.0000057274  -0.0000027990  -0.0000193684  -0.0000143356   0.0000080888
        0.0000182965   0.0000039076  -0.0000046887   0.0000044274  -0.0000184742
        0.0000126157   0.0000119051  -0.0000015677   0.0000127619  -0.0000238558
       -0.0000090881  -0.0000048965  -0.0000054197   0.0000238782  -0.0000108058
       -0.0000220983  -0.0000140923   0.0000096601  -0.0000177016   0.0000083293
       -0.0000017653  -0.0000026625   0.0000143657  -0.0000003699  -0.0000018191
       -0.0000242252  -0.0000409181  -0.0000211043   0.0000071863   0.0000317086
       -0.0000664854  -0.0000024406   0.0000311104   0.0000298257   0.0000224200
        0.0000108055  -0.0000757715  -0.0000451632  -0.0003001238   0.0000591694
       -0.0001924917   0.0000347457  -0.0000202586   0.0001604190   0.0000109346
       -0.0000215632   0.0018507793
       -0.0179439833   0.4892975085  -0.0043178563  -0.0772388224  -0.1496853611
        0.0168555280  -0.0161602929  -0.0222085643   0.0079828725  -0.0001732395
        0.0004027533   0.0053478595  -0.0005234493  -0.0010264260   0.0001092120
       -0.0005310711  -0.0010072264  -0.0004332216   0.0006043745   0.0000959623
       -0.0003703751   0.0000507904   0.0000038099  -0.0001086431  -0.0000200325
        0.0000735328   0.0000550528   0.0000149028  -0.0000529560  -0.0000321659
       -0.0000893528   0.0000041943   0.0000008160   0.0001860062  -0.0000587328
       -0.0000367729  -0.0001010185   0.0000911149   0.0000580971   0.0001261733
       -0.0000373586  -0.0000200144   0.0000059889   0.0000049094   0.0000009243
       -0.0000590529   0.0000252203   0.0000147326   0.0001023037  -0.0000028557
       -0.0000017291  -0.0000429422  -0.0000219767  -0.0000125079   0.0000180761
       -0.0000093308  -0.0000044581   0.0000005526  -0.0000037191  -0.0000007118
       -0.0000022419   0.0000016440   0.0000028737  -0.0000096808   0.0000026505
        0.0000031843   0.0000010899   0.0000186718   0.0000122271  -0.0001445149
       -0.0000223422   0.0000089223  -0.0000007116  -0.0000029678   0.0000292138
       -0.0000857054  -0.0000312111   0.0000031602  -0.0000673133  -0.0000779087
        0.0001976621   0.0000075226  -0.0000524633  -0.0000039667  -0.0000100725
       -0.0000108808   0.0000085159   0.0000177263  -0.0000007447  -0.0000518528
       -0.0000095565   0.0000402920   0.0000089848  -0.0000153709   0.0000085559
       -0.0000009978  -0.0000435288   0.0000003283   0.0000616854   0.0000215463
        0.0000275874   0.0000012310   0.0000398770   0.0000248009  -0.0000645330
       -0.0012407891   0.0035016271   0.0016167234  -0.0000146171  -0.0001380985
        0.0000496715  -0.0085150516  -0.0050620999  -0.0017704052   0.0972200575
       -0.2128352392   0.0480023135   0.0386674192  -0.0519913777  -0.0429023970
       -0.0156848772  -0.0493812006  -0.0283096671  -0.0001712026   0.0001886876
       -0.0018572340  -0.0001098236   0.0000612916  -0.0001019053  -0.0000062009
       -0.0000994791   0.0001839162   0.0000802011  -0.0001106419   0.0000368464
        0.0000121140  -0.0000677115  -0.0000432254   0.0000053765   0.0000099740
        0.0000067532  -0.0000008306   0.0000035430   0.0000025634  -0.0000077513
        0.0000007311   0.0000030695  -0.0000053879  -0.0000012602   0.0000010543
       -0.0000025354  -0.0000034272   0.0000003474  -0.0000004801   0.0000015296
        0.0000044470   0.0000048274  -0.0000181084  -0.0000138973   0.0000134291
        0.0000159272   0.0000036623   0.0000097393  -0.0000056354  -0.0000114757
        0.0000081668   0.0000004135  -0.0000036245   0.0000144975  -0.0000133103
       -0.0000173302  -0.0000038260  -0.0000071368   0.0000211120  -0.0000106792
       -0.0000199198  -0.0000151320   0.0000079321  -0.0000109621   0.0000081421
       -0.0000005611   0.0000001183   0.0000134764  -0.0000016029  -0.0000010269
       -0.0000229589  -0.0000024950  -0.0000195973   0.0000536757   0.0000276138
       -0.0000649924   0.0000035089   0.0000205433   0.0000005628   0.0000091310
        0.0000704351  -0.0000054685  -0.0000239914   0.0000204319  -0.0000102287
        0.0000119879  -0.0000090060   0.0000148847   0.0000698333   0.0016799563
        0.0002571214  -0.0003119405
        0.0243393530  -0.0043178563   0.5071668652   0.0073042709   0.0131436348
       -0.0650254714   0.0119078023   0.0176427001  -0.0038900674  -0.0038675685
        0.0040944756   0.0008406779   0.0006258358   0.0006266585  -0.0002342893
        0.0005983800   0.0002682232  -0.0008308527   0.0001395556  -0.0008763154
       -0.0004331859   0.0002350580   0.0001139664   0.0001714544   0.0000044493
        0.0000189650   0.0000087155  -0.0000030361   0.0000190920   0.0000018498
        0.0000419983   0.0000016357   0.0000031529  -0.0000901230   0.0000302578
        0.0000196717   0.0000575552  -0.0000451560  -0.0000245469  -0.0000638581
        0.0000420400   0.0000216477   0.0000034038  -0.0000181164  -0.0000096068
        0.0000246291  -0.0000146706  -0.0000067143  -0.0000577455   0.0000045066
        0.0000001917   0.0000183263   0.0000099759   0.0000063181  -0.0000073819
        0.0000042241   0.0000020537  -0.0000021194   0.0000020603   0.0000003533
       -0.0000016726  -0.0000012927  -0.0000017648   0.0000047102  -0.0000015995
       -0.0000016431  -0.0000002755  -0.0000079188  -0.0000048931   0.0000731759
        0.0000025578  -0.0000029538   0.0000340870   0.0000128401  -0.0000099182
        0.0000451711  -0.0000421911  -0.0000012847  -0.0000727514   0.0000094137
        0.0000178870  -0.0000219132  -0.0000427408   0.0000322488   0.0000188384
        0.0000016611   0.0000011990  -0.0000135398  -0.0000001365   0.0000487532
        0.0000100192  -0.0000381096  -0.0000083063  -0.0000026482   0.0000056926
        0.0000059903   0.0000251862   0.0000006849  -0.0000240747   0.0000243755
        0.0000014195  -0.0000401268  -0.0000248056  -0.0000355306   0.0000164023
       -0.0053081223   0.0022753490   0.0016545570  -0.0003938173  -0.0007446842
       -0.0000018613  -0.0116728303  -0.0109429158   0.0025761554  -0.0301665715
        0.0485650574  -0.0575599179   0.1100294192  -0.0392422292  -0.1689138165
       -0.1063656629  -0.0283930210  -0.2145951647   0.0018804577  -0.0002566185
       -0.0004720639   0.0000750338  -0.0000360392   0.0000590934  -0.0000096095
        0.0000723772  -0.0001018712   0.0000066599   0.0001150506  -0.0000346206
       -0.0000312908   0.0000137341   0.0000065078  -0.0000038107  -0.0000078228
       -0.0000026005  -0.0000009167  -0.0000013870  -0.0000011612   0.0000033950
       -0.0000007186  -0.0000016110   0.0000024762   0.0000007947  -0.0000007733
        0.0000010206   0.0000008653  -0.0000009724   0.0000012954  -0.0000015758
       -0.0000030201   0.0000079511   0.0000071499   0.0000051049  -0.0000038053
       -0.0000022194  -0.0000005121  -0.0000204630  -0.0000020351   0.0000113033
        0.0000095745  -0.0000010320   0.0000000855  -0.0000086815   0.0000061914
        0.0000033014   0.0000036352   0.0000042084  -0.0000127922   0.0000057523
        0.0000125684   0.0000079024  -0.0000074236   0.0000069386  -0.0000042208
        0.0000025175   0.0000026202  -0.0000077430  -0.0000053404   0.0000050147
        0.0000118403  -0.0000084159   0.0000392676  -0.0000333834  -0.0000089588
        0.0000166435   0.0000054592   0.0000149461   0.0000102712   0.0000146806
        0.0000374587   0.0000188014   0.0000003552  -0.0001725315  -0.0001478414
       -0.0000995542   0.0000702260  -0.0000201907   0.0000786306   0.0007296907
       -0.0019876244  -0.0004030487
       -0.1290405160  -0.0772388224   0.0073042709   0.5174153531   0.1293268957
        0.1757858486  -0.0856912024  -0.0127883523  -0.0186451910   0.0326427242
        0.0076305275   0.0214488023  -0.0000052449  -0.0055017649  -0.0022154900
       -0.0174567784   0.0191703487  -0.0249582447  -0.0012766628  -0.0019206949
       -0.0001729977   0.0003965586   0.0000158071   0.0004093741  -0.0000358281
        0.0000055778  -0.0000615785  -0.0000140876   0.0000467144  -0.0000044699
        0.0002932398  -0.0001165482  -0.0000677358  -0.0004913077   0.0001234986
        0.0000929290   0.0002655616  -0.0002059971  -0.0001370693  -0.0002716586
        0.0001772407   0.0001090236   0.0000359587  -0.0000548055  -0.0000333135
        0.0001332015  -0.0000587318  -0.0000354586  -0.0002990200   0.0000073073
        0.0000076564   0.0000778987   0.0000485655   0.0000274318  -0.0000379748
        0.0000225405   0.0000119963  -0.0000114046   0.0000184019   0.0000096605
       -0.0000110112  -0.0000078157  -0.0000058129   0.0000251020  -0.0000100701
       -0.0000068349   0.0000059809  -0.0000357967  -0.0000225073   0.0003577243
        0.0000513038   0.0000177102  -0.0000817011   0.0001163408   0.0000035386
        0.0001714385  -0.0000673261  -0.0000248445  -0.0000233243   0.0006840279
       -0.0002504058  -0.0001908774  -0.0001157466   0.0001900866   0.0000201728
       -0.0000129641  -0.0000007678  -0.0000289089   0.0000793771   0.0000649204
        0.0000474918  -0.0001294375  -0.0000267145  -0.0000240873   0.0000442257
        0.0000149818   0.0000311121   0.0000474521  -0.0000715994   0.0002278973
       -0.0000908566  -0.0001435571  -0.0000478319  -0.0000215324  -0.0000326996
       -0.0483836568  -0.0534667273   0.0074669863   0.0013734909  -0.0051977889
       -0.0013258483  -0.2324542920   0.0053872612  -0.1456242293   0.0087030445
        0.0067635652   0.0002381775  -0.0183084457  -0.0170450073   0.0074080738
       -0.0157940242  -0.0131819541  -0.0016005463  -0.0066920978   0.0160240353
       -0.0192213566  -0.0001794683   0.0000098408  -0.0001331851   0.0002136325
       -0.0010819304   0.0007974317  -0.0001662597   0.0005000145  -0.0005205054
       -0.0000711476  -0.0000297105   0.0000669581  -0.0000173920  -0.0000199033
        0.0000100561  -0.0000038474  -0.0000048800  -0.0000032826   0.0000157605
       -0.0000018296  -0.0000022130   0.0000121986   0.0000075224   0.0000037720
        0.0000008071   0.0000085841   0.0000040973  -0.0000009978  -0.0000089768
       -0.0000060516   0.0000204696   0.0000220142   0.0000256874   0.0000005005
        0.0000329948   0.0000334807  -0.0000230698  -0.0000212519   0.0000412521
        0.0000280101  -0.0000107595  -0.0000076072  -0.0000015148   0.0000253197
       -0.0000267534   0.0000173741   0.0000458148  -0.0000278832   0.0000139141
        0.0000272891   0.0000135513  -0.0000272894   0.0000278604  -0.0000083877
        0.0000104703   0.0000152457  -0.0000119124  -0.0000218125   0.0000321123
        0.0000341261   0.0000836726  -0.0001883887  -0.0000614502   0.0000052122
        0.0000558031   0.0000665147  -0.0000189430   0.0000262488   0.0000174592
        0.0007566254   0.0004523144   0.0001570606  -0.0013183959   0.0002170272
       -0.0007645308   0.0002919367   0.0001870751  -0.0001330469  -0.0051724526
        0.0011522748  -0.0054868332
       -0.0749570966  -0.1496853611   0.0131436348   0.1293268957   0.4940799383
       -0.1857719749   0.0401872303  -0.1941565654   0.1482391316  -0.0344777113
       -0.0484543583   0.0121169280  -0.0041212756   0.0003818330   0.0029183080
        0.0187043283  -0.0057424551   0.0147535838  -0.0013037843  -0.0014416846
        0.0003994885   0.0004887175   0.0000870614   0.0001853081   0.0000537175
        0.0000617991  -0.0001197161  -0.0001110080   0.0000126583   0.0000260371
        0.0003456216  -0.0000742606  -0.0000410839  -0.0004688265   0.0001395157
        0.0000645092   0.0002489320  -0.0002120127  -0.0001122530  -0.0002510629
        0.0001922694   0.0001021551   0.0000391998  -0.0000748277  -0.0000423760
        0.0001177455  -0.0000675759  -0.0000365499  -0.0002760498   0.0000255369
        0.0000082356   0.0000650258   0.0000409023   0.0000250297  -0.0000329692
        0.0000176126   0.0000096867  -0.0000109687   0.0000149290   0.0000083708
       -0.0000127112  -0.0000069429  -0.0000043816   0.0000207934  -0.0000122631
       -0.0000066080   0.0000044664  -0.0000305478  -0.0000172408   0.0003354458
        0.0000373449   0.0000316959  -0.0000184987   0.0000776903   0.0000227464
        0.0000562908  -0.0001183870  -0.0000232213  -0.0000079247   0.0004014718
       -0.0002489991  -0.0000976192  -0.0000282225   0.0000731958   0.0000030094
        0.0000141394   0.0000115842  -0.0000484167   0.0000622299   0.0000524565
        0.0000255472  -0.0001172160  -0.0000254484  -0.0000170535   0.0000311489
        0.0000122204   0.0000323269   0.0000220598  -0.0000786043   0.0001104418
       -0.0000792317  -0.0000100464  -0.0000300687   0.0000400177   0.0000028777
       -0.0119360171   0.0139480818  -0.0219373542  -0.0051213772  -0.0004253683
        0.0023807374  -0.0467189762  -0.0791162199  -0.0113761477  -0.0167376648
       -0.0254288466   0.0073565637  -0.0025332247   0.0026686456   0.0035773413
       -0.0073978438  -0.0044781947  -0.0014614599   0.0008992503  -0.0000085904
        0.0007783226  -0.0001358557   0.0001434944  -0.0002318747  -0.0001784415
        0.0001826762   0.0001588426   0.0002557989  -0.0013190331   0.0010710811
       -0.0001012843   0.0000387654   0.0000769020   0.0000096226  -0.0000179908
       -0.0000065125  -0.0000043480  -0.0000036541  -0.0000040962   0.0000117849
       -0.0000023632  -0.0000031320   0.0000084269   0.0000042863   0.0000027055
       -0.0000009236   0.0000053177   0.0000022918  -0.0000034231  -0.0000090754
       -0.0000073020   0.0000267851   0.0000141127   0.0000068741   0.0000085822
        0.0000242104   0.0000129277   0.0000170103  -0.0000166934  -0.0000120596
        0.0000388494  -0.0000224134  -0.0000018385  -0.0000133707   0.0000158042
       -0.0000442947   0.0000162308   0.0000370571  -0.0000324526   0.0000141373
        0.0000265268   0.0000185740  -0.0000256203   0.0000155153  -0.0000087002
        0.0000094113   0.0000172772  -0.0000164175  -0.0000266933   0.0000183446
        0.0000270451   0.0000085018  -0.0001062371  -0.0001007899  -0.0000178432
        0.0000604768   0.0000337023   0.0000138258  -0.0000165653  -0.0000024548
       -0.0008355818  -0.0003155429  -0.0003554786  -0.0004861464  -0.0000881682
       -0.0002453730   0.0001605838  -0.0002822114   0.0004907906   0.0168531440
       -0.0010016703   0.0141843564
        0.0100432671   0.0168555280  -0.0650254714   0.1757858486  -0.1857719749
        0.4310967862  -0.0608837789   0.1064780854  -0.1819227205   0.0543340449
        0.0436966260   0.0049262386  -0.0025222823   0.0021273663   0.0037309101
       -0.0255553454   0.0159009427  -0.0351980741   0.0001703089   0.0000366386
       -0.0004025744  -0.0001738102  -0.0001038410   0.0000337673  -0.0000362416
       -0.0000435439   0.0000765808   0.0000656431   0.0000082062  -0.0000287882
       -0.0000531091  -0.0000374715  -0.0000235683   0.0000662466  -0.0000326320
        0.0000111097  -0.0000343764   0.0000323876  -0.0000010596   0.0000329986
       -0.0000238605  -0.0000022462  -0.0000030708   0.0000117768   0.0000040559
       -0.0000179830   0.0000072029   0.0000013303   0.0000390625  -0.0000003987
        0.0000083865  -0.0000122748  -0.0000062795  -0.0000053427   0.0000075541
       -0.0000014240  -0.0000010630   0.0000013212  -0.0000011668  -0.0000010536
        0.0000012403   0.0000014185   0.0000004658  -0.0000026362   0.0000038409
        0.0000011601  -0.0000000577   0.0000076547   0.0000027683  -0.0000523290
        0.0000013374  -0.0000135028  -0.0000725291   0.0000313006  -0.0000012652
        0.0000614644   0.0000712796  -0.0000145372   0.0000189264   0.0001635847
        0.0000797954  -0.0000662216  -0.0000569935   0.0001031220   0.0000050503
       -0.0000217498  -0.0000225725   0.0000349569  -0.0000103894  -0.0000277111
       -0.0000035216   0.0000120965   0.0000257571  -0.0000032781   0.0000059364
       -0.0000027958  -0.0000106645   0.0000314059   0.0000096132   0.0000624677
       -0.0000146753  -0.0000203501   0.0000303971  -0.0000140490  -0.0000757160
       -0.0261739001  -0.0541935465   0.0233818252  -0.0007121740   0.0027775835
        0.0032080580  -0.1024888369   0.0289857607  -0.1510202565   0.0045123009
        0.0078459766  -0.0018749040   0.0166882515   0.0166578021  -0.0032992882
       -0.0177094386  -0.0184263190   0.0020055700  -0.0065298109   0.0130080967
       -0.0146152548  -0.0001144190  -0.0001063126   0.0000720487   0.0002051243
        0.0009351225  -0.0009571759  -0.0005221989  -0.0004094662   0.0004517461
        0.0000140033  -0.0000633152  -0.0000151039  -0.0000057656   0.0000004332
        0.0000123417   0.0000017835   0.0000007175   0.0000019278  -0.0000007630
        0.0000007247   0.0000015415  -0.0000001796   0.0000008184   0.0000001793
        0.0000004996  -0.0000005661   0.0000002338   0.0000030093   0.0000018359
        0.0000032592  -0.0000100002  -0.0000065237   0.0000091368  -0.0000038246
       -0.0000036634   0.0000082415  -0.0000106973  -0.0000205006   0.0000386350
       -0.0000083041   0.0000065533  -0.0000102099   0.0000139362   0.0000063030
        0.0000092003  -0.0000025357   0.0000003044   0.0000092326  -0.0000059795
       -0.0000098188  -0.0000110890   0.0000092724  -0.0000012075   0.0000039155
       -0.0000004423  -0.0000010585   0.0000072121   0.0000106021  -0.0000012483
       -0.0000138188   0.0000294349  -0.0000372641   0.0000960302   0.0000246388
       -0.0000390753   0.0000089814  -0.0000003839   0.0000361618   0.0000188327
       -0.0007133111   0.0006065115  -0.0006864915   0.0002957539   0.0007716447
        0.0004606863   0.0003236144  -0.0000589940   0.0001254203  -0.0183765481
        0.0023923633  -0.0147520980
        0.0016886900  -0.0161602929   0.0119078023  -0.0856912024   0.0401872303
       -0.0608837789   0.5132913134   0.1495681834   0.1884450258  -0.1766466261
       -0.1514830333   0.0228668928   0.0020775585  -0.0019100040   0.0001270730
       -0.0449891442  -0.0149550188  -0.0266381217  -0.0001421827  -0.0008248807
       -0.0035400888   0.0002438601  -0.0000610070   0.0007557443  -0.0001535773
       -0.0000286765   0.0000464304   0.0000783585   0.0000215082  -0.0000942846
       -0.0000691439  -0.0000229480  -0.0000103309   0.0001569535  -0.0000548768
       -0.0000029804  -0.0000698920   0.0000695276   0.0000435374   0.0000932274
       -0.0000281404  -0.0000204063   0.0000073021   0.0000138803   0.0000050798
       -0.0000429871   0.0000172487   0.0000081586   0.0000657440  -0.0000045529
       -0.0000073800  -0.0000289846  -0.0000139163  -0.0000069793   0.0000089461
       -0.0000048202  -0.0000028811  -0.0000031925  -0.0000018152  -0.0000008768
       -0.0000072561  -0.0000017730  -0.0000001219  -0.0000056782  -0.0000010532
        0.0000005477   0.0000021509   0.0000088067   0.0000065214  -0.0000976241
       -0.0000211621   0.0000062767   0.0000365416   0.0001176337  -0.0000249985
        0.0000357270  -0.0000426011  -0.0000205065  -0.0000679191  -0.0000210989
        0.0005641875  -0.0000568945  -0.0001707055   0.0001174623   0.0000959434
       -0.0000240781  -0.0000033253  -0.0000093819  -0.0000064964   0.0000383611
        0.0000026084  -0.0000267842   0.0000068854  -0.0000283681   0.0000504962
        0.0000069885   0.0000291898   0.0000151237  -0.0000349633   0.0000080241
        0.0000465431   0.0000050669  -0.0000203955  -0.0001461893  -0.0000644362
       -0.0038538506  -0.0130931189   0.0116941434  -0.0004710480   0.0000112221
       -0.0003177773   0.0026844914   0.0235843564  -0.0174098720  -0.0018250796
       -0.0027610077   0.0005816786  -0.0008928850  -0.0013857805   0.0005505055
        0.0004631785  -0.0011349107   0.0013496579  -0.2053208410  -0.0118397577
       -0.1218924511   0.0007698250   0.0021115058  -0.0009812188  -0.0000695198
        0.0012213387  -0.0006811537   0.0001107715   0.0007314430  -0.0007480362
       -0.0001185011  -0.0000232201   0.0000158612   0.0000060445   0.0000022019
        0.0000073155  -0.0000005420   0.0000002132  -0.0000005873  -0.0000038563
       -0.0000012804   0.0000002857  -0.0000018751  -0.0000002522   0.0000015132
       -0.0000030908  -0.0000013878   0.0000005550  -0.0000034652   0.0000018679
        0.0000015218   0.0000277956  -0.0000193830   0.0000019143   0.0000247428
        0.0000430030   0.0000359865  -0.0000924340  -0.0000291011   0.0000211145
        0.0000666111   0.0000216119  -0.0000227688   0.0000089605  -0.0000056991
       -0.0000118834   0.0000001725   0.0000020902  -0.0000055678   0.0000007815
        0.0000067165  -0.0000041728  -0.0000057288   0.0000006935   0.0000019903
        0.0000064948   0.0000151632   0.0000010616  -0.0000134698   0.0000023285
       -0.0000082763  -0.0000121467  -0.0000770298  -0.0001295674   0.0000727346
       -0.0000088651   0.0000429421   0.0000971142   0.0000367062   0.0001142444
        0.0002580884   0.0001044888  -0.0000619801   0.0000892690   0.0002639778
        0.0000067870   0.0001498531  -0.0000552255   0.0001325253  -0.0019402838
       -0.0018251665  -0.0058878717
       -0.0032149826  -0.0222085643   0.0176427001  -0.0127883523  -0.1941565654
        0.1064780854   0.1495681834   0.5015168304  -0.1997884614  -0.0963845042
       -0.2089075782   0.0531748426  -0.0141285479  -0.0237331265   0.0102155371
       -0.0503473463   0.0126060439  -0.0428714223  -0.0000095427   0.0034734738
        0.0009652804  -0.0010831888  -0.0005243062  -0.0006642558  -0.0000431241
       -0.0003111606   0.0000209889   0.0001330680   0.0000329966  -0.0000024660
       -0.0001073730  -0.0000218751  -0.0000150533   0.0001620939  -0.0000682264
       -0.0000193769  -0.0000834492   0.0000905847   0.0000317363   0.0000613156
       -0.0000871640  -0.0000366654  -0.0000132344   0.0000417184   0.0000210168
       -0.0000327003   0.0000377570   0.0000156904   0.0000894299  -0.0000200528
       -0.0000027635  -0.0000194768  -0.0000105964  -0.0000090882   0.0000077843
       -0.0000061103  -0.0000047787   0.0000017875  -0.0000046969  -0.0000041733
        0.0000045142   0.0000001304  -0.0000014426  -0.0000065173   0.0000039413
        0.0000000531   0.0000018147   0.0000069738   0.0000014927  -0.0001117703
        0.0000060791  -0.0000150850  -0.0001057935  -0.0000551728   0.0000128848
       -0.0000515671   0.0001735995   0.0001171010   0.0005147555  -0.0000356900
        0.0001860010  -0.0001032810   0.0001272311   0.0000667086  -0.0000086920
       -0.0000186788  -0.0000525973   0.0000043229   0.0000059857  -0.0000869857
       -0.0000240042   0.0000711602   0.0000482707   0.0000222379  -0.0000224122
       -0.0000159576  -0.0000239745   0.0000371684  -0.0000082497  -0.0001119957
       -0.0000205095   0.0001674879   0.0000360085  -0.0000200147   0.0000599362
       -0.0160458265  -0.0468788502   0.0230681001   0.0002108721  -0.0004479667
       -0.0001295954   0.0599021271   0.0229137689   0.0289082696  -0.0022849343
       -0.0032791733   0.0009312352   0.0005795304  -0.0012538844   0.0006830964
        0.0015091263   0.0007007004   0.0010954223  -0.0118432122  -0.0408106205
       -0.0026295687  -0.0013870588   0.0003363066  -0.0013492495   0.0002270453
       -0.0021043311   0.0018865002  -0.0006607408  -0.0014224933   0.0003021823
       -0.0000669057   0.0000152294  -0.0000324163  -0.0000286041   0.0000162853
        0.0000125947  -0.0000002036  -0.0000006138   0.0000004522  -0.0000044453
       -0.0000009279  -0.0000006064  -0.0000030552  -0.0000022846  -0.0000027329
        0.0000006857  -0.0000019839  -0.0000013632   0.0000018341   0.0000022345
        0.0000030489  -0.0000449405   0.0000096035  -0.0000035436  -0.0000078133
        0.0000284057   0.0000247815   0.0000142255  -0.0001308274   0.0000162616
       -0.0000179784   0.0000129269  -0.0000154614   0.0000271535   0.0000221904
       -0.0000196003   0.0000084116   0.0000095183  -0.0000016484  -0.0000066343
       -0.0000146937  -0.0000167294   0.0000056496   0.0000021124   0.0000094646
        0.0000017615   0.0000044288   0.0000033734   0.0000193227  -0.0000139940
       -0.0000156987   0.0000510038  -0.0000376700  -0.0000727184   0.0000485479
        0.0000163066   0.0000040567  -0.0000111382   0.0000424273   0.0000365372
        0.0003486846   0.0005450278  -0.0000843366  -0.0001559294   0.0006186076
       -0.0002077592   0.0003045123  -0.0000063843  -0.0002272927  -0.0024949716
        0.0031114456   0.0021979530
        0.0013404788   0.0079828725  -0.0038900674  -0.0186451910   0.1482391316
       -0.1819227205   0.1884450258  -0.1997884614   0.4161947988  -0.0205872052
        0.0140243042  -0.0741111817   0.0104156543   0.0213550453  -0.0049958992
        0.0051944228  -0.0182831016   0.0213003563  -0.0053419369   0.0006237012
        0.0014525713  -0.0001814697  -0.0007592269   0.0007492847  -0.0001590094
        0.0000797792  -0.0000931361  -0.0000313217   0.0000096934  -0.0000301026
        0.0001847250  -0.0000791558  -0.0000458847  -0.0001882750   0.0000394085
        0.0000198251   0.0000975227  -0.0000703280  -0.0000257609  -0.0000807785
        0.0000861894   0.0000372880   0.0000273387  -0.0000477794  -0.0000276781
        0.0000426530  -0.0000123062  -0.0000043618  -0.0001182525   0.0000057604
       -0.0000049023   0.0000184327   0.0000151932   0.0000116166  -0.0000122538
        0.0000074112   0.0000051727  -0.0000076226   0.0000098078   0.0000072049
       -0.0000117357  -0.0000044094  -0.0000004923   0.0000083968  -0.0000084160
       -0.0000020667   0.0000062882  -0.0000096813  -0.0000026743   0.0001322706
        0.0000161822   0.0000410127  -0.0000778017   0.0001013588  -0.0000684435
       -0.0001984862  -0.0000269303  -0.0000197956   0.0002873004   0.0005955434
       -0.0007970813  -0.0000874498   0.0000743389  -0.0000176091   0.0000427954
        0.0000005010   0.0000817550   0.0000178140   0.0000364770  -0.0000286922
        0.0000167839  -0.0000842100  -0.0000226062  -0.0000282216   0.0000401722
        0.0000176396   0.0000075713  -0.0000337994  -0.0000280348   0.0001428563
       -0.0001367240  -0.0000931036  -0.0000228155   0.0001070555   0.0000348009
        0.0134091141   0.0223272781  -0.0143452191  -0.0006039594   0.0002211314
       -0.0003430723  -0.0462681718   0.0008885897  -0.0346847411  -0.0001575246
       -0.0001767639   0.0004740619  -0.0004794157   0.0000584715   0.0004270928
       -0.0005634454  -0.0012596911   0.0005403367  -0.1221103681  -0.0029614338
       -0.1243173031   0.0016848524   0.0011973944   0.0001922773  -0.0000376241
        0.0019536705  -0.0017972080   0.0001556939   0.0019674019  -0.0018248406
       -0.0000288332  -0.0000206289   0.0000347630   0.0000049277  -0.0000048667
        0.0000103745  -0.0000037464   0.0000015406  -0.0000002794   0.0000031685
        0.0000001219   0.0000010259   0.0000029236   0.0000032650   0.0000045012
       -0.0000024885   0.0000029300   0.0000031309  -0.0000029540  -0.0000040989
       -0.0000027082   0.0000077801  -0.0000092574   0.0000052208   0.0000241448
        0.0000245602   0.0000343689  -0.0000908996   0.0000490099  -0.0000274129
        0.0000596117   0.0000308300   0.0000095247  -0.0000170106  -0.0000425558
        0.0000038726   0.0000035788   0.0000383106   0.0000053866   0.0000046185
        0.0000106534   0.0000087193  -0.0000112391   0.0000020205  -0.0000057255
        0.0000004881   0.0000020286   0.0000012720  -0.0000226844   0.0000226560