$hessian                                                                        
        0.5120220598  -0.0136881161   0.0318961352  -0.0910887034  -0.0160384563
        0.0488383314  -0.0213040480  -0.0032085471   0.0239484022   0.0046452067
        0.0021368941  -0.0109728551  -0.0024855975  -0.0046637277   0.0046248124
       -0.0007358536   0.0003578784  -0.0002332344   0.0000854670   0.0000296518
        0.0001398010   0.0000246524  -0.0000561268   0.0001165833  -0.0000301549
        0.0000754799  -0.0000409225   0.0000296409   0.0000145146  -0.0000097074
       -0.0000080615   0.0000008583  -0.0000034748  -0.0000047951   0.0000024460
        0.0000072169  -0.0000247132  -0.0000183010   0.0000155716   0.0000177950
        0.0000027282  -0.0000040320  -0.0000136273  -0.0000040244   0.0000002856
        0.0000047458  -0.0000027677  -0.0000044416   0.0000057487   0.0000061044
       -0.0000049141  -0.0000097108  -0.0000045964  -0.0000026482  -0.0000005922
        0.0000055134  -0.0000037273   0.0000009942  -0.0000007859   0.0000006314
       -0.0000003283  -0.0000009752  -0.0000017564   0.0000058429  -0.0000015878
       -0.0000015283  -0.0000011539   0.0000009287   0.0000006836   0.0000054883
       -0.0000005125  -0.0000015405   0.0000002779  -0.0000041394  -0.0000001205
       -0.0000010644   0.0000047981   0.0000005735   0.0000008482  -0.0000004740
       -0.0000003600   0.0000004630   0.0000015648  -0.0000006100   0.0000017034
       -0.0000004826  -0.0000001089   0.0000031432   0.0000005114  -0.0000003635
        0.0000011223  -0.0000011294  -0.0000001684  -0.0000005150  -0.0000004718
       -0.0000001677  -0.0000001134   0.0000014507  -0.0000000134  -0.0000009249
       -0.0000020876  -0.0000003700   0.0000012285   0.0000003081  -0.0000001400
       -0.0000004992  -0.0000009021  -0.0000001349   0.0000024151   0.0000005493
       -0.0000001312  -0.0000013882  -0.0000007815   0.0000000373   0.0000048932
       -0.0000013373   0.0000003383  -0.0000060546  -0.0000019925   0.0000001209
        0.0000007833   0.0000076561  -0.0000007162  -0.0000013561  -0.0000058331
       -0.0000003339  -0.0000008546  -0.0000006682   0.0000008800   0.0000016917
       -0.0000009560  -0.0000011932  -0.0000010582  -0.0000027226  -0.0000000093
        0.0000015992   0.0000006569   0.0000001406   0.0000007359  -0.0000008902
       -0.0000000493   0.0000016151  -0.0000006420   0.0000006283   0.0000007187
       -0.0000007719   0.0000009192   0.0000001022  -0.0000009995   0.0000016054
       -0.0000002697  -0.0000005446  -0.0000013064   0.0000009912  -0.0000023215
       -0.0000011994   0.0000069029  -0.0000009801   0.0000003927  -0.0000177944
       -0.0000034372   0.0000149531   0.0000054344   0.0000057293  -0.0000100039
        0.0000109304   0.0000089667   0.0000296405  -0.0000068649  -0.0000003336
       -0.0000201273  -0.0000179665  -0.0000131247  -0.0000074140   0.0000073644
        0.0000048280   0.0000027216   0.0000351441  -0.0000055855   0.0000047155
       -0.0000330560   0.0000156422  -0.0000036227  -0.0000056562  -0.0000162118
        0.0000008338   0.0000006335   0.0000018812  -0.0000002725  -0.0000037755
       -0.0000030711   0.0000001180  -0.0000007469  -0.0000004513  -0.0000000099
        0.0000036549   0.0000014726  -0.0000006311  -0.0000039081  -0.0000024946
        0.0000004570   0.0000168949   0.0000052539   0.0000003714  -0.0000136327
       -0.0000071598  -0.0000002330   0.0000060949   0.0000090361  -0.0000018790
        0.0000031984   0.0000169965  -0.0000102300   0.0000299430   0.0000092714
       -0.0000113048  -0.0000326658   0.0000209627  -0.0000063866   0.0000150999
        0.0000024175   0.0000073674  -0.0000603800  -0.0001858759   0.0002415710
        0.0006842505  -0.0006538995   0.0002422588  -0.0465738088  -0.0254957333
       -0.0017044311  -0.2394748305   0.0917334259   0.0085925587  -0.1120122371
       -0.0307507897  -0.1037955111  -0.0056108675   0.0022082565   0.0013102943
        0.0006976617  -0.0003179487   0.0011035007   0.0005771014  -0.0010738260
        0.0004252474  -0.0008387267  -0.0006220367  -0.0032829233   0.0003062557
        0.0003964087  -0.0005412775   0.0008307068  -0.0000711472  -0.0009248806
        0.0004260293  -0.0000926469   0.0001932361   0.0000043140   0.0000171226
       -0.0000090781   0.0000075385  -0.0000040152  -0.0000086002   0.0000049454
        0.0000047375  -0.0000083996  -0.0000028689   0.0000033562   0.0000022556
       -0.0000022486   0.0000007682   0.0000015415  -0.0000011995  -0.0000002451
       -0.0000002187  -0.0000007133  -0.0000004097  -0.0000003994  -0.0000020479
       -0.0000003551  -0.0000003845  -0.0000018183  -0.0000000117  -0.0000001347
       -0.0000012982  -0.0000003903  -0.0000000972  -0.0000016459   0.0000004228
       -0.0000001020  -0.0000014400   0.0000013392   0.0000000500  -0.0000002713
        0.0000002985   0.0000002522  -0.0000003564   0.0000008061  -0.0000006033
       -0.0000000567   0.0000013037  -0.0000003037  -0.0000003734   0.0000011645
        0.0000005984  -0.0000007696  -0.0000000631   0.0000004481  -0.0000003857
       -0.0000000704   0.0000002003  -0.0000013079   0.0000003806   0.0000005135
       -0.0000009744   0.0000002791  -0.0000003784   0.0000000525   0.0000010072
        0.0000002457  -0.0000003135  -0.0000001316  -0.0000005823  -0.0000005416
        0.0000014506  -0.0000000273  -0.0000010076   0.0000005803  -0.0000001312
       -0.0000002773   0.0000006344   0.0000005233  -0.0000006532   0.0000003881
        0.0000005960  -0.0000017489  -0.0000007414  -0.0000005352  -0.0000039485
       -0.0000008709  -0.0000008823   0.0000059510   0.0000060702   0.0000022357
        0.0000061506  -0.0000002445   0.0000010013   0.0000028235  -0.0000023273
        0.0000006223   0.0000012480  -0.0000034339   0.0000006688  -0.0000005545
       -0.0000035703   0.0000006305   0.0000000642   0.0000001581   0.0000002913
       -0.0000035533  -0.0000081260   0.0000010711  -0.0000068688  -0.0000057140
        0.0000011458   0.0000026838  -0.0000082805   0.0000091344  -0.0000071071
       -0.0000073359   0.0000162016  -0.0000576319  -0.0000357701  -0.0000510548
       -0.0000387085  -0.0000157766  -0.0001088336
       -0.0136881161   0.5149138158   0.0218565362  -0.0169274675  -0.0735097481
        0.0292902983   0.0067017956   0.0018993655  -0.0086057126   0.0021601638
        0.0013531639  -0.0051552611  -0.0142965833  -0.0140286091   0.0235133084
       -0.0000332162  -0.0012749085  -0.0000862382  -0.0003668704   0.0004825081
        0.0007883790  -0.0001566947   0.0001621286   0.0003228060  -0.0001098612
       -0.0003856118   0.0000913373  -0.0001958795   0.0003108043   0.0000133829
       -0.0000059779  -0.0000047651   0.0000029962  -0.0000047605   0.0000333171
        0.0000286886  -0.0000228958  -0.0000071473  -0.0000089304   0.0000243108
        0.0000079852   0.0000033801  -0.0000426889  -0.0000127610  -0.0000046727
        0.0000107029  -0.0000008207  -0.0000055693   0.0000060288   0.0000032889
        0.0000095876  -0.0000168786  -0.0000079862  -0.0000300906   0.0000236955
        0.0000108083   0.0000336495  -0.0000124764  -0.0000016229  -0.0000010009
        0.0000075929   0.0000015073   0.0000006915  -0.0000058445   0.0000052855
        0.0000082846   0.0000036205   0.0000034855   0.0000012034  -0.0000072279
       -0.0000017807  -0.0000007335   0.0000065791  -0.0000016417  -0.0000004071
       -0.0000074267   0.0000001795  -0.0000038037   0.0000087443  -0.0000018133
       -0.0000002347  -0.0000018712  -0.0000045082  -0.0000006330   0.0000021170
        0.0000014844  -0.0000008806  -0.0000015859  -0.0000019305  -0.0000010204
        0.0000011913  -0.0000009615  -0.0000007487  -0.0000009425   0.0000004964
       -0.0000005318   0.0000014425  -0.0000013710   0.0000002390   0.0000001161
        0.0000009205  -0.0000007174   0.0000001212  -0.0000009807  -0.0000003927
        0.0000006637   0.0000004904  -0.0000001500  -0.0000022528  -0.0000003408
        0.0000001598   0.0000006167   0.0000007811  -0.0000000788  -0.0000037077
        0.0000011702  -0.0000004958   0.0000030592   0.0000036114   0.0000010150
       -0.0000051604   0.0000018914   0.0000015463   0.0000001507  -0.0000003698
        0.0000003592  -0.0000000577   0.0000016266  -0.0000015977   0.0000003237
        0.0000014330   0.0000019066   0.0000004897  -0.0000008521   0.0000006356
       -0.0000021909  -0.0000022005  -0.0000000161  -0.0000005605   0.0000001719
        0.0000002150  -0.0000011435   0.0000008520   0.0000001401  -0.0000008625
        0.0000007451  -0.0000001642   0.0000008311   0.0000006168  -0.0000012313
       -0.0000010298   0.0000014772   0.0000022608   0.0000038272  -0.0000014657
       -0.0000003991  -0.0000022394  -0.0000069724  -0.0000128817  -0.0000141688
       -0.0000036099   0.0000278467   0.0000217737  -0.0000000818  -0.0000293495
        0.0000028926  -0.0000052422  -0.0000205846   0.0000193249   0.0000049651
        0.0000116540   0.0000032257  -0.0000019060  -0.0000106955   0.0000060301
        0.0000140919   0.0000045979  -0.0000394339  -0.0002561555  -0.0000033341
        0.0000229638  -0.0000714368   0.0000124088   0.0000335928   0.0000245856
        0.0000017346  -0.0000264060  -0.0000099188   0.0000012240   0.0000015285
        0.0000078411  -0.0000007250   0.0000009108  -0.0000023289   0.0000002632
        0.0000249789   0.0000001597  -0.0000006844  -0.0000184773  -0.0000122325
       -0.0000005255   0.0000056614   0.0000202656   0.0000019398   0.0000011858
        0.0000042309  -0.0000011509  -0.0000004988   0.0000095582  -0.0000015689
        0.0000108924  -0.0000342535   0.0000050201   0.0000249877   0.0000221618
       -0.0000337187  -0.0000126827   0.0000000075  -0.0000006168   0.0002293900
        0.0001550352  -0.0000118191  -0.0006396404  -0.0010066375   0.0010429122
       -0.0004893788  -0.0047957271  -0.0004076959  -0.0254272381  -0.2792681001
       -0.0067914533   0.0917625707  -0.0857077955  -0.0048206419  -0.0306475072
       -0.0572457101  -0.0476333053   0.0028764735  -0.0006458180  -0.0007639772
       -0.0001384934   0.0001509530  -0.0001232245   0.0008813699   0.0008145338
       -0.0008403737  -0.0006597025   0.0000406238  -0.0017998049   0.0002077773
        0.0007199864  -0.0011652329  -0.0000473310   0.0001145879   0.0001655346
       -0.0008826134  -0.0024775990   0.0009698162  -0.0000092723   0.0000300160
        0.0000160170  -0.0000467109   0.0000032280  -0.0000409684   0.0000032984
       -0.0000081892   0.0000006809   0.0000002110  -0.0000003549  -0.0000002650
        0.0000022863  -0.0000001707  -0.0000008411   0.0000004696   0.0000002903
       -0.0000000580   0.0000007004   0.0000011887  -0.0000004679   0.0000001645
        0.0000011578  -0.0000006482   0.0000005261   0.0000004398  -0.0000001667
        0.0000009282   0.0000001901   0.0000000752   0.0000006460   0.0000001885
        0.0000001178   0.0000004567  -0.0000000740   0.0000004103   0.0000002124
       -0.0000011781   0.0000001660   0.0000000547  -0.0000001378   0.0000004927
        0.0000001954  -0.0000001551  -0.0000001865   0.0000001581   0.0000001315
        0.0000006881   0.0000006714  -0.0000004160   0.0000001090   0.0000001766
       -0.0000002721   0.0000005367   0.0000008129  -0.0000007488   0.0000006677
        0.0000001479  -0.0000002855   0.0000003094   0.0000002275   0.0000002711
        0.0000007006  -0.0000000593  -0.0000001944   0.0000010476   0.0000002031
       -0.0000002887   0.0000007543   0.0000014402   0.0000003259   0.0000005438
        0.0000000221  -0.0000007917   0.0000006201   0.0000005599  -0.0000008384
       -0.0000009450   0.0000034542   0.0000011605   0.0000013073   0.0000012446
       -0.0000002514   0.0000025475   0.0000107084  -0.0000128978  -0.0000031748
       -0.0000006078  -0.0000109903  -0.0000036062   0.0000038232   0.0000018950
        0.0000001214  -0.0000010459  -0.0000120889   0.0000019783  -0.0000070901
       -0.0000085533   0.0000019390  -0.0000106470  -0.0000001385   0.0000002084
       -0.0000155809  -0.0000090217   0.0000004287  -0.0000232435  -0.0000063658
        0.0000001697  -0.0000111642  -0.0000008545  -0.0000002722   0.0000501669
       -0.0000145437   0.0000416154  -0.0000935907  -0.0004627163   0.0001249899
       -0.0000026258   0.0000087584   0.0000194748
        0.0318961352   0.0218565362   0.4763464862   0.0486889299   0.0277281128
       -0.1479653828   0.0070066856   0.0002296726  -0.0058157565   0.0082190080
        0.0045701387  -0.0312922536   0.0024536793   0.0054204405  -0.0028229736
       -0.0002989815  -0.0007770491  -0.0005738815   0.0000048060  -0.0000391209
        0.0001390240   0.0000817058   0.0000962343  -0.0000455376  -0.0000512573
       -0.0002124932   0.0000556366  -0.0001138835   0.0001945914  -0.0000011774
       -0.0000295237  -0.0000132583  -0.0000008226   0.0000271553  -0.0000449693
       -0.0000154954  -0.0000119239  -0.0000155587  -0.0000005254   0.0000083406
        0.0000028971  -0.0000057467   0.0000055201   0.0000038244   0.0000102325
        0.0000336247  -0.0000073812  -0.0000672902  -0.0000314541   0.0000091812
        0.0000589588  -0.0000104412  -0.0000075868  -0.0000231376   0.0000063225
        0.0000082428   0.0000270787   0.0000004889  -0.0000006591   0.0000023316
       -0.0000029209   0.0000013223   0.0000045070  -0.0000000964  -0.0000017198
       -0.0000027877  -0.0000008022  -0.0000023984   0.0000032265   0.0000007806
        0.0000022659  -0.0000026664  -0.0000010351   0.0000019642  -0.0000000945
        0.0000000536  -0.0000012622   0.0000022840  -0.0000023922   0.0000032644
       -0.0000033733   0.0000012817  -0.0000005440   0.0000005385  -0.0000012543
        0.0000006610  -0.0000002310   0.0000007432   0.0000010112   0.0000006203
       -0.0000005064   0.0000009639  -0.0000005202   0.0000013012  -0.0000002681
        0.0000001718  -0.0000004570  -0.0000005139   0.0000014895  -0.0000004827
        0.0000010084  -0.0000008600   0.0000004899  -0.0000002981  -0.0000002982
        0.0000008499   0.0000003782   0.0000000123  -0.0000011214  -0.0000010256
        0.0000018425   0.0000003273   0.0000003655  -0.0000009418  -0.0000015368
       -0.0000005766   0.0000002381   0.0000004359  -0.0000021684   0.0000034495
       -0.0000001541  -0.0000014515   0.0000007700  -0.0000000374   0.0000011842
       -0.0000003042   0.0000010162   0.0000009522  -0.0000015018   0.0000006769
        0.0000010583  -0.0000000394  -0.0000006527   0.0000009275   0.0000006745
       -0.0000001445  -0.0000011462  -0.0000017149  -0.0000003026   0.0000002871
       -0.0000013260  -0.0000000756   0.0000004759  -0.0000017620  -0.0000002082
        0.0000001750  -0.0000015562   0.0000005195  -0.0000005586  -0.0000019029
        0.0000002049   0.0000029437  -0.0000001175   0.0000002262  -0.0000006704
        0.0000024703   0.0000021963  -0.0000018206  -0.0000019101   0.0000184234
        0.0000016855  -0.0000332911  -0.0000179693  -0.0000029451   0.0000384578
       -0.0000288318  -0.0000098763  -0.0000616589   0.0000231833   0.0000050659
        0.0000550811  -0.0000046873  -0.0000050811   0.0000015929   0.0000022603
        0.0000166044   0.0000063362  -0.0000031315  -0.0001061091   0.0000058900
       -0.0000114979  -0.0000202762  -0.0000041327   0.0000168991   0.0000191259
        0.0000048505  -0.0000059635  -0.0000107650  -0.0000001157   0.0000005207
        0.0000000289   0.0000014790  -0.0000032651  -0.0000012930  -0.0000010702
        0.0000019086  -0.0000042968   0.0000001175  -0.0000035641  -0.0000018422
        0.0000007032   0.0000019585   0.0000088976   0.0000009832  -0.0000015521
        0.0000000822   0.0000029088  -0.0000045087   0.0000035400   0.0000012783
        0.0000094389  -0.0000008075  -0.0000018830  -0.0000187359  -0.0000310202
       -0.0000111663   0.0000257088  -0.0000024097   0.0000066806   0.0001056767
        0.0000573841  -0.0000080456   0.0001715335   0.0000734452  -0.0002057814
        0.0002620654  -0.0001060577   0.0004156547  -0.0017032509  -0.0066557610
       -0.0426588371   0.0085165898  -0.0046875134  -0.0438046709  -0.1037453738
       -0.0474902239  -0.1997501179   0.0006360718  -0.0002765085   0.0004413362
       -0.0008773604   0.0002604534   0.0007522017  -0.0005354515   0.0003653528
        0.0001410214  -0.0024705688  -0.0010785889  -0.0050268554   0.0008912647
        0.0009841338   0.0004418652   0.0010456841   0.0001679727   0.0006326843
        0.0000159604  -0.0005644391   0.0004238911  -0.0000058497  -0.0000154572
        0.0000114221  -0.0000131369   0.0000099234  -0.0000065556   0.0000076316
        0.0000065014  -0.0000006258  -0.0000004937   0.0000013929   0.0000003512
       -0.0000005035   0.0000001029  -0.0000001901   0.0000001060   0.0000005116
        0.0000004792  -0.0000006112  -0.0000003040   0.0000006462  -0.0000002664
        0.0000006266   0.0000001827   0.0000000270  -0.0000000560   0.0000008061
       -0.0000000040   0.0000003857   0.0000006020   0.0000000224   0.0000000622
        0.0000003626   0.0000001620  -0.0000004360   0.0000004813   0.0000000737
       -0.0000000173  -0.0000004685  -0.0000002701  -0.0000002199   0.0000014092
       -0.0000002920  -0.0000008693   0.0000008583  -0.0000002334   0.0000007171
       -0.0000002876  -0.0000011664   0.0000006122   0.0000000463   0.0000008003
        0.0000003921   0.0000006219   0.0000008859  -0.0000006153  -0.0000001196
       -0.0000009390   0.0000004370   0.0000008013  -0.0000000844  -0.0000004398
       -0.0000005580  -0.0000002762   0.0000001854   0.0000014338  -0.0000000038
       -0.0000010287  -0.0000003816   0.0000007709  -0.0000001983  -0.0000005789
       -0.0000005031  -0.0000002201   0.0000014984  -0.0000009566  -0.0000032135
       -0.0000002957  -0.0000003263   0.0000011393   0.0000002879  -0.0000009669
        0.0000010777  -0.0000005126  -0.0000007666   0.0000078739   0.0000012083
       -0.0000057902   0.0000031847   0.0000019372  -0.0000014001   0.0000034004
       -0.0000008145  -0.0000003929   0.0000018586  -0.0000012548   0.0000016415
        0.0000023762  -0.0000000516  -0.0000003837   0.0000003495  -0.0000005264
        0.0000009803   0.0000017080   0.0000008121   0.0000016132   0.0000016428
        0.0000006799  -0.0000057398   0.0000052105  -0.0000004612   0.0000067161
        0.0000003254   0.0000103048  -0.0000685343  -0.0000067630   0.0000548721
       -0.0001028352   0.0000633014   0.0001060366
       -0.0910887034  -0.0169274675   0.0486889299   0.4633374480   0.0088043545
       -0.0126495698  -0.1547392014   0.0515665754   0.0032245714  -0.0961325345
       -0.0213934125  -0.0498740907  -0.0600143391  -0.0189777089   0.0041316876
        0.0030448468   0.0068429033  -0.0004037376   0.0051169527   0.0004127773
        0.0040523943   0.0002900745  -0.0001109709   0.0005947577  -0.0013434107
        0.0003777493  -0.0007494688   0.0001861742  -0.0000332037  -0.0000648987
        0.0000392544   0.0000135997  -0.0000083030  -0.0000023132   0.0000188391
        0.0000196845  -0.0000011152  -0.0000296679   0.0000161259  -0.0000030293
       -0.0000079070  -0.0000050172  -0.0000001750  -0.0000036793   0.0000036230
        0.0000070606  -0.0000010974  -0.0000298701  -0.0000024400  -0.0000002841
        0.0000139422  -0.0000148382  -0.0000052080  -0.0000139677   0.0000038079
        0.0000048125   0.0000068179  -0.0000021039  -0.0000019228   0.0000018783
       -0.0000007084  -0.0000000550  -0.0000008490   0.0000041951  -0.0000019441
       -0.0000012691  -0.0000019447   0.0000001301   0.0000011097   0.0000027055
       -0.0000018320  -0.0000018258  -0.0000004938   0.0000011654   0.0000001510
        0.0000012175  -0.0000008823   0.0000010244  -0.0000003062  -0.0000007269
       -0.0000005446   0.0000001993   0.0000005335  -0.0000002713   0.0000012842
       -0.0000010153   0.0000001263   0.0000029569   0.0000000345   0.0000000525
        0.0000014477  -0.0000023912  -0.0000000325  -0.0000005845  -0.0000007246
        0.0000000768   0.0000001108   0.0000006581   0.0000000216  -0.0000006178
       -0.0000014256  -0.0000001608   0.0000013457  -0.0000007374  -0.0000000699
       -0.0000006511  -0.0000013907  -0.0000000526   0.0000020224   0.0000004888
       -0.0000000781  -0.0000002410  -0.0000015852  -0.0000000264   0.0000027368
       -0.0000011709   0.0000001765  -0.0000036052  -0.0000006883   0.0000001430
       -0.0000001256   0.0000046272  -0.0000001237  -0.0000013146  -0.0000043304
       -0.0000004842  -0.0000005217  -0.0000016384   0.0000007757   0.0000019643
       -0.0000014864  -0.0000022321  -0.0000008861  -0.0000019462  -0.0000000655
        0.0000008873   0.0000004748  -0.0000002312   0.0000003947  -0.0000014018
       -0.0000007111   0.0000009117  -0.0000013513  -0.0000003180   0.0000007564
       -0.0000016523   0.0000003372  -0.0000000359  -0.0000014947   0.0000018531
        0.0000001159  -0.0000013597  -0.0000017036   0.0000016134  -0.0000036770
       -0.0000012539   0.0000049432  -0.0000031070   0.0000002155  -0.0000056264
        0.0000017664   0.0000015765  -0.0000024076   0.0000021596   0.0000065145
       -0.0000028446   0.0000044803   0.0000029817   0.0000036163   0.0000019142
        0.0000099412  -0.0000053429  -0.0000043179   0.0000016393  -0.0000062507
       -0.0000132123  -0.0000017920  -0.0000129850   0.0002774700   0.0000323749
       -0.0000801013  -0.0000171275   0.0000180784  -0.0000062576  -0.0000264706
        0.0000016602   0.0000065836   0.0000051408   0.0000000582  -0.0000006413
       -0.0000048150   0.0000004625  -0.0000037770   0.0000054585  -0.0000004460
       -0.0000061545   0.0000043300  -0.0000004016   0.0000068283   0.0000102798
       -0.0000007646   0.0000012378  -0.0000066450  -0.0000033608  -0.0000133587
        0.0000063809  -0.0000023134   0.0000091411   0.0000131112  -0.0000021334
       -0.0000014349   0.0000465068  -0.0000021250  -0.0000219513  -0.0000106086
        0.0000071428   0.0000079559   0.0000026677  -0.0000032181  -0.0001179322
       -0.0002882268   0.0000281542   0.0037280681  -0.0015171390   0.0044648539
       -0.0030332805  -0.0131322363   0.0014923142  -0.0027776838  -0.0034967226
        0.0042472800  -0.0171353712  -0.0064861792   0.0228744271   0.0064888878
        0.0043563700  -0.0118701407  -0.0164463398   0.0063352909   0.0036330710
       -0.0188318492   0.0077934577  -0.0029943014  -0.0000210225   0.0024408029
        0.0003582762   0.0065376842   0.0036097845   0.0096477437  -0.0041990226
       -0.0044847043  -0.0059378336  -0.0189246350  -0.0061701937  -0.0211651967
       -0.0018714192   0.0003196005  -0.0007278122  -0.0001512474   0.0005201757
       -0.0000252216   0.0000308346  -0.0000051529  -0.0000095506  -0.0000186793
        0.0000042504  -0.0000162591  -0.0000018213   0.0000042250   0.0000022688
       -0.0000022917   0.0000013060   0.0000014393  -0.0000008867   0.0000000170
       -0.0000001804  -0.0000012277  -0.0000012090  -0.0000002914  -0.0000021970
       -0.0000006036  -0.0000001893  -0.0000017137  -0.0000002922  -0.0000000762
       -0.0000015443  -0.0000005263  -0.0000001108  -0.0000014142   0.0000001306
       -0.0000001453  -0.0000012985   0.0000008373  -0.0000000762  -0.0000003545
        0.0000004062   0.0000000911  -0.0000004012   0.0000008067  -0.0000008414
       -0.0000001331   0.0000010765   0.0000000040  -0.0000004085   0.0000005895
        0.0000004979  -0.0000011406   0.0000000069   0.0000003367   0.0000000692
       -0.0000000796   0.0000007718  -0.0000004002   0.0000002090   0.0000009733
       -0.0000007341   0.0000004235  -0.0000006154   0.0000003033   0.0000003365
       -0.0000000309  -0.0000001442  -0.0000001001  -0.0000006629  -0.0000006788
        0.0000006650  -0.0000003301  -0.0000012331   0.0000004072  -0.0000001890
       -0.0000004122   0.0000006854   0.0000005878  -0.0000011035   0.0000001350
        0.0000013586  -0.0000029449  -0.0000008844  -0.0000007054  -0.0000031822
        0.0000000966  -0.0000019643  -0.0000010658   0.0000078684   0.0000033328
        0.0000094844   0.0000019854   0.0000001247   0.0000007981  -0.0000042700
        0.0000007052   0.0000005175   0.0000004899  -0.0000003081   0.0000017034
       -0.0000011056   0.0000000252   0.0000015690  -0.0000037142   0.0000006337
        0.0000033956  -0.0000049089   0.0000006945   0.0000045726  -0.0000038567
        0.0000002446  -0.0000207405  -0.0000221314  -0.0000001312   0.0000312628
       -0.0000227445   0.0000049083  -0.0000897777  -0.0006481744   0.0001283715
       -0.0017388347   0.0000770714  -0.0011554504
       -0.0160384563  -0.0735097481   0.0277281128   0.0088043545   0.4727654549
       -0.0123776041   0.0436108779  -0.0845326062   0.0001541324  -0.0169621139
       -0.0693306810  -0.0220477358  -0.0162617590  -0.1753662979   0.0035462091
        0.0003024731  -0.0228938875  -0.0062896444   0.0003938208   0.0002706769
       -0.0022827625  -0.0000659032  -0.0014415560  -0.0004191875   0.0001743050
        0.0004801968   0.0000502800   0.0002040439  -0.0003247168   0.0000223387
        0.0000425751   0.0000086025  -0.0000156586  -0.0000092429   0.0000732237
       -0.0000201351  -0.0000008610  -0.0000129480  -0.0000197938  -0.0000166705
       -0.0000122549  -0.0000009995  -0.0000116103   0.0000000386   0.0000043947
        0.0000055346  -0.0000032781   0.0000060003  -0.0000060408   0.0000006986
       -0.0000054130  -0.0000018540  -0.0000089155  -0.0000049975   0.0000065323
        0.0000032916   0.0000029668  -0.0000002372  -0.0000014383   0.0000009102
       -0.0000008260  -0.0000021141  -0.0000004405  -0.0000014931  -0.0000011541
        0.0000005540  -0.0000017742  -0.0000024711  -0.0000001453  -0.0000009641
       -0.0000013568  -0.0000009363   0.0000005738  -0.0000030301  -0.0000007386
       -0.0000027994   0.0000003512   0.0000002500  -0.0000005454   0.0000000905
       -0.0000005783  -0.0000017066  -0.0000005956  -0.0000002527  -0.0000014109
       -0.0000005600   0.0000000084  -0.0000020891  -0.0000004159  -0.0000000945
       -0.0000012380  -0.0000008568  -0.0000000369  -0.0000020359  -0.0000001616
        0.0000000301  -0.0000014199   0.0000003242   0.0000000377  -0.0000015012
       -0.0000002653  -0.0000002762  -0.0000008018   0.0000004618  -0.0000001183
       -0.0000008438  -0.0000001784  -0.0000000235  -0.0000012875   0.0000003205
       -0.0000001824  -0.0000010435   0.0000007618  -0.0000000243  -0.0000013309
       -0.0000001195  -0.0000001859  -0.0000029844  -0.0000011854  -0.0000003125
       -0.0000007539   0.0000010521   0.0000003129  -0.0000007399  -0.0000017604
       -0.0000001467  -0.0000015375   0.0000004802  -0.0000010547   0.0000000215
        0.0000001568   0.0000007032   0.0000003428  -0.0000015296   0.0000002029
       -0.0000012522  -0.0000029807  -0.0000003611  -0.0000003693  -0.0000005195
        0.0000001782  -0.0000018073  -0.0000010397   0.0000001087  -0.0000003534
       -0.0000004530  -0.0000000572   0.0000005274  -0.0000001562  -0.0000011229
       -0.0000012992   0.0000007119   0.0000007753  -0.0000014593  -0.0000017684
        0.0000001306  -0.0000017017  -0.0000044949  -0.0000014534  -0.0000040444
        0.0000021376   0.0000009817   0.0000066070  -0.0000021461   0.0000009951
       -0.0000080195  -0.0000052072  -0.0000201770   0.0000026462   0.0000019789
        0.0000129716   0.0000061983   0.0000220442   0.0000169366  -0.0000058398
       -0.0000291903  -0.0000019380  -0.0000136292   0.0001748783   0.0000077001
        0.0000330656  -0.0000061889  -0.0000027076  -0.0000287462  -0.0000310976
       -0.0000057967   0.0000137732   0.0000222534  -0.0000000640   0.0000048997
       -0.0000039118   0.0000017348   0.0000074143   0.0000015396   0.0000011853
       -0.0000056481   0.0000084587  -0.0000005708   0.0000145153   0.0000015565
       -0.0000000910  -0.0000048203  -0.0000170077  -0.0000091232   0.0000143191
        0.0000082946  -0.0000021793   0.0000150821  -0.0000099291  -0.0000050897
        0.0000154556  -0.0000238464   0.0000007564   0.0000246009   0.0000561630
        0.0000058492  -0.0000229203  -0.0000015248   0.0000025911  -0.0001536877
       -0.0000473718   0.0000370685  -0.0012083854   0.0021023223   0.0012278768
       -0.0072925281  -0.0187171327   0.0098720943  -0.0151425580  -0.0138193428
        0.0251521074   0.0059374275   0.0034360411  -0.0099141967   0.0034568751
        0.0020523555  -0.0054242770  -0.0045238809   0.0023736094  -0.0006030881
       -0.0056397232   0.0033142611   0.0007948551   0.0269795682  -0.0190920965
       -0.0002915802   0.0032637557   0.0013538606   0.0041306886  -0.0173611293
       -0.0128935178  -0.0233554827   0.0071099163   0.0035263607   0.0098885912
       -0.0003494982   0.0006501651   0.0013235310  -0.0001171378  -0.0003825644
        0.0002073486  -0.0000048792  -0.0000834356   0.0000392018   0.0000377565
        0.0000040293   0.0000076647   0.0000005011  -0.0000009131  -0.0000002863
       -0.0000002404  -0.0000006437  -0.0000001358  -0.0000020164   0.0000002262
       -0.0000002358  -0.0000023746  -0.0000000680  -0.0000003296  -0.0000029036
        0.0000010406  -0.0000002169  -0.0000017628   0.0000008494  -0.0000000639
       -0.0000014782   0.0000007297  -0.0000000132  -0.0000007325   0.0000011524
       -0.0000000622  -0.0000003434   0.0000007257  -0.0000000355  -0.0000003970
       -0.0000008825  -0.0000000465  -0.0000002281  -0.0000001966  -0.0000001895
        0.0000004353  -0.0000007584  -0.0000005613   0.0000008565  -0.0000004567
       -0.0000000787   0.0000003783  -0.0000003066  -0.0000004996   0.0000006964
       -0.0000003858  -0.0000003394   0.0000013374  -0.0000011160  -0.0000001913
        0.0000011313  -0.0000007987  -0.0000004539   0.0000012959  -0.0000005386
       -0.0000003541   0.0000004655  -0.0000003858   0.0000000541   0.0000009529
       -0.0000005118  -0.0000003732   0.0000006032   0.0000003251  -0.0000001783