      -----------------------------------------------------------      
     |                   =====================                   |     
     |                           x T B                           |     
     |                   =====================                   |     
     |                         S. Grimme                         |     
     |          Mulliken Center for Theoretical Chemistry        |     
     |                    University of Bonn                     |     
      -----------------------------------------------------------      

   * xtb version 6.7.1 (edcfbbe) compiled by 'albert@albert-system' on 2024-07-22

   xtb is free software: you can redistribute it and/or modify it under
   the terms of the GNU Lesser General Public License as published by
   the Free Software Foundation, either version 3 of the License, or
   (at your option) any later version.
   
   xtb is distributed in the hope that it will be useful,
   but WITHOUT ANY WARRANTY; without even the implied warranty of
   MERCHANTABILITY or FITNESS FOR A PARTICULAR PURPOSE.  See the
   GNU Lesser General Public License for more details.
   
   Cite this work as:
   * C. Bannwarth, E. Caldeweyher, S. Ehlert, A. Hansen, P. Pracht,
     J. Seibert, S. Spicher, S. Grimme, WIREs Comput. Mol. Sci., 2020, 11,
     e01493. DOI: 10.1002/wcms.1493
   
   for GFN2-xTB:
   * C. Bannwarth, S. Ehlert and S. Grimme., J. Chem. Theory Comput., 2019,
     15, 1652-1671. DOI: 10.1021/acs.jctc.8b01176
   for GFN1-xTB:
   * S. Grimme, C. Bannwarth, P. Shushkov, J. Chem. Theory Comput., 2017,
     13, 1989-2009. DOI: 10.1021/acs.jctc.7b00118
   for GFN0-xTB:
   * P. Pracht, E. Caldeweyher, S. Ehlert, S. Grimme, ChemRxiv, 2019, preprint.
     DOI: 10.26434/chemrxiv.8326202.v1
   for GFN-FF:
   * S. Spicher and S. Grimme, Angew. Chem. Int. Ed., 2020, 59, 15665-15673.
     DOI: 10.1002/anie.202004239
   
   for ALPB and GBSA implicit solvation:
   * S. Ehlert, M. Stahn, S. Spicher, S. Grimme, J. Chem. Theory Comput.,
     2021, 17, 4250-4261. DOI: 10.1021/acs.jctc.1c00471
   
   for ddCOSMO and CPCM-X implicit solvation:
   * M. Stahn, S. Ehlert, S. Grimme, J. Phys. Chem. A,
     2023, XX, XXXX-XXXX. DOI: 10.1021/acs.jpca.3c04382
   
   for DFT-D4:
   * E. Caldeweyher, C. Bannwarth and S. Grimme, J. Chem. Phys., 2017,
     147, 034112. DOI: 10.1063/1.4993215
   * E. Caldeweyher, S. Ehlert, A. Hansen, H. Neugebauer, S. Spicher,
     C. Bannwarth and S. Grimme, J. Chem. Phys., 2019, 150, 154122.
     DOI: 10.1063/1.5090222
   * E. Caldeweyher, J.-M. Mewes, S. Ehlert and S. Grimme, Phys. Chem. Chem. Phys.
     2020, 22, 8499-8512. DOI: 10.1039/D0CP00502A
   
   for sTDA-xTB:
   * S. Grimme and C. Bannwarth, J. Chem. Phys., 2016, 145, 054103.
     DOI: 10.1063/1.4959605
   
   in the mass-spec context:
   * V. Asgeirsson, C. Bauer and S. Grimme, Chem. Sci., 2017, 8, 4879.
     DOI: 10.1039/c7sc00601b
   * J. Koopman and S. Grimme, ACS Omega 2019, 4, 12, 15120-15133.
     DOI: 10.1021/acsomega.9b02011
   
   for metadynamics refer to:
   * S. Grimme, J. Chem. Theory Comput., 2019, 155, 2847-2862
     DOI: 10.1021/acs.jctc.9b00143
   
   for SPH calculations refer to:
   * S. Spicher and S. Grimme, J. Chem. Theory Comput., 2021, 17, 1701-1714
     DOI: 10.1021/acs.jctc.0c01306
   
   for ONIOM refer to:
   * C. Plett, A. Katbashev, S. Ehlert, S. Grimme, M. Bursch,
     Phys. Chem. Chem. Phys., 2023, 25, 17860-17868. DOI: 10.1039/D3CP02178E
   
   for DIPRO refer to:
   * J. Kohn, N. Gildemeister, S. Grimme, D. Fazzi, A. Hansen,
     J. Chem. Phys., 2023, just accepted.
   
   for PTB refer to:
   * S. Grimme, M. Mueller, A. Hansen, J. Chem. Phys., 2023, 158, 124111.
     DOI: 10.1063/5.0137838
   
   with help from (in alphabetical order)
   P. Atkinson, C. Bannwarth, F. Bohle, G. Brandenburg, E. Caldeweyher
   M. Checinski, S. Dohm, S. Ehlert, S. Ehrlich, I. Gerasimov, C. Hölzer
   A. Katbashev, J. Kohn, J. Koopman, C. Lavigne, S. Lehtola, F. März, M. Müller,
   F. Musil, H. Neugebauer, J. Pisarek, C. Plett, P. Pracht, F. Pultar,
   J. Seibert, P. Shushkov, S. Spicher, M. Stahn, M. Steiner, T. Strunk,
   J. Stückrath, T. Rose, and J. Unsleber
   
 * started run on 2025/09/09 at 06:00:00.238     
   ID    Z sym.   atoms
    1    6 C      1-12, 14-16, 18-31, 33-45
    2    7 N      13, 17, 32
    3    1 H      46-72

           -------------------------------------------------
          |                Calculation Setup                |
           -------------------------------------------------

          program call               : xtb data2507/gas/TCP/TCP.xyz --gfn 2 --ohess vtight --parallel 40 --molden --ceasefiles --namespace data2507/gas/TCP/TCP_gas_S0_preOpt
          calculation namespace      : data2507/gas/TCP/TCP_gas_S0_preOpt
          coordinate file            : data2507/gas/TCP/TCP.xyz
          omp threads                :                    40


           -------------------------------------------------
          |                 G F N 2 - x T B                 |
           -------------------------------------------------

        Reference                      10.1021/acs.jctc.8b01176
      * Hamiltonian:
        H0-scaling (s, p, d)           1.850000    2.230000    2.230000
        zeta-weighting                 0.500000
      * Dispersion:
        s8                             2.700000
        a1                             0.520000
        a2                             5.000000
        s9                             5.000000
      * Repulsion:
        kExp                           1.500000    1.000000
        rExp                           1.000000
      * Coulomb:
        alpha                          2.000000
        third order                    shell-resolved
        anisotropic                    true
        a3                             3.000000
        a5                             4.000000
        cn-shift                       1.200000
        cn-exp                         4.000000
        max-rad                        5.000000


          ...................................................
          :                      SETUP                      :
          :.................................................:
          :  # basis functions                 207          :
          :  # atomic orbitals                 207          :
          :  # shells                          117          :
          :  # electrons                       210          :
          :  max. iterations                   250          :
          :  Hamiltonian                  GFN2-xTB          :
          :  restarted?                      false          :
          :  GBSA solvation                  false          :
          :  PC potential                    false          :
          :  electronic temp.          300.0000000     K    :
          :  accuracy                    1.0000000          :
          :  -> integral cutoff          0.2500000E+02      :
          :  -> integral neglect         0.1000000E-07      :
          :  -> SCF convergence          0.1000000E-05 Eh   :
          :  -> wf. convergence          0.1000000E-03 e    :
          :  Broyden damping             0.4000000          :
          :  net charge                          0          :
          :  unpaired electrons                  0          :
          ...................................................

 iter      E             dE          RMSdq      gap      omega  full diag
   1   -114.4491748 -0.114449E+03  0.392E+00    2.67       0.0  T
   2   -114.5483277 -0.991529E-01  0.249E+00    3.05       1.0  T
   3   -114.5243417  0.239860E-01  0.116E+00    2.97       1.0  T
   4   -114.5678443 -0.435027E-01  0.300E-01    3.00       1.0  T
   5   -114.5723972 -0.455287E-02  0.915E-02    3.01       1.0  T
   6   -114.5726528 -0.255573E-03  0.456E-02    3.02       1.0  T
   7   -114.5727639 -0.111168E-03  0.173E-02    3.01       1.0  T
   8   -114.5727630  0.966085E-06  0.638E-03    3.01       1.8  T
   9   -114.5727658 -0.280492E-05  0.106E-03    3.01      11.1  T
  10   -114.5727658 -0.579199E-07  0.466E-04    3.01      25.3  T
  11   -114.5727658 -0.730043E-08  0.223E-04    3.01      52.8  T

   *** convergence criteria satisfied after 11 iterations ***

         #    Occupation            Energy/Eh            Energy/eV
      -------------------------------------------------------------
         1        2.0000           -0.6770090             -18.4224
       ...           ...                  ...                  ...
        99        2.0000           -0.4040985             -10.9961
       100        2.0000           -0.3811773             -10.3724
       101        2.0000           -0.3811766             -10.3723
       102        2.0000           -0.3810348             -10.3685
       103        2.0000           -0.3683540             -10.0234
       104        2.0000           -0.3659719              -9.9586
       105        2.0000           -0.3646533              -9.9227 (HOMO)
       106                         -0.2539370              -6.9100 (LUMO)
       107                         -0.2535361              -6.8991
       108                         -0.2506644              -6.8209
       109                         -0.2459197              -6.6918
       110                         -0.2458264              -6.6893
       ...                                ...                  ...
       207                          0.7174566              19.5230
      -------------------------------------------------------------
                  HL-Gap            0.1107163 Eh            3.0127 eV
             Fermi-level           -0.3092952 Eh           -8.4163 eV

 SCC (total)                   0 d,  0 h,  0 min,  0.135 sec
 SCC setup                      ...        0 min,  0.001 sec (  0.411%)
 Dispersion                     ...        0 min,  0.003 sec (  2.468%)
 classical contributions        ...        0 min,  0.000 sec (  0.218%)
 integral evaluation            ...        0 min,  0.007 sec (  5.181%)
 iterations                     ...        0 min,  0.113 sec ( 83.670%)
 molecular gradient             ...        0 min,  0.010 sec (  7.332%)
 printout                       ...        0 min,  0.001 sec (  0.654%)

         :::::::::::::::::::::::::::::::::::::::::::::::::::::
         ::                     SUMMARY                     ::
         :::::::::::::::::::::::::::::::::::::::::::::::::::::
         :: total energy            -112.565781577708 Eh    ::
         :: gradient norm              0.121622869098 Eh/a0 ::
         :: HOMO-LUMO gap              3.012744690986 eV    ::
         ::.................................................::
         :: SCC energy              -114.572556721720 Eh    ::
         :: -> isotropic ES            0.009454857442 Eh    ::
         :: -> anisotropic ES          0.013992883718 Eh    ::
         :: -> anisotropic XC          0.063711534599 Eh    ::
         :: -> dispersion             -0.102297490839 Eh    ::
         :: repulsion energy           2.006775144012 Eh    ::
         :: add. restraining           0.000000000000 Eh    ::
         :: total charge              -0.000000000000 e     ::
         :::::::::::::::::::::::::::::::::::::::::::::::::::::

      ----------------------------------------------------------- 
     |                   =====================                   |
     |                        A N C O P T                        |
     |                   =====================                   |
     |               Approximate Normal Coordinate               |
     |                Rational Function Optimizer                |
      ----------------------------------------------------------- 

Optimization log is written to '/dev/null'
      ----------------------------------------------------------- 
     |                   =====================                   |
     |                        A N C O P T                        |
     |                   =====================                   |
     |               Approximate Normal Coordinate               |
     |                Rational Function Optimizer                |
      ----------------------------------------------------------- 

          ...................................................
          :                      SETUP                      :
          :.................................................:
          :   optimization level         verytight          :
          :   max. optcycles                  1440          :
          :   ANC micro-cycles                  20          :
          :   degrees of freedom               210          :
          :.................................................:
          :   RF solver                   davidson          :
          :   write xtbopt.log                true          :
          :   linear?                        false          :
          :   energy convergence         0.1000000E-06 Eh   :
          :   grad. convergence          0.2000000E-03 Eh/α :
          :   maxmium RF displ.          1.0000000          :
          :   Hlow (freq-cutoff)         0.1000000E-01      :
          :   Hmax (freq-cutoff)         5.0000000          :
          :   S6 in model hess.         20.0000000          :
          ...................................................

generating ANC from exact Hessian ...
Using Lindh-Hessian (1995)
 Shifting diagonal of input Hessian by   9.839753729266416E-003
 Lowest  eigenvalues of input Hessian
    0.000000    0.000000    0.000000    0.000000    0.000000    0.000000
    0.010000    0.010050    0.010059    0.010180    0.010283    0.010321
    0.011545    0.011800    0.011910    0.012333    0.012563    0.013305
 Highest eigenvalues
    2.092316    2.094205    2.096742    2.100654    2.121619    2.122896
 

........................................................................
.............................. CYCLE    1 ..............................
........................................................................

 iter      E             dE          RMSdq      gap      omega  full diag
   1   -114.5727658 -0.114573E+03  0.619E-05    3.01       0.0  T
   2   -114.5727658 -0.118803E-09  0.366E-05    3.01     322.0  T
   3   -114.5727658 -0.947864E-10  0.147E-05    3.01     799.8  T
     SCC iter.                  ...        0 min,  0.027 sec
     gradient                   ...        0 min,  0.010 sec
 * total energy  :  -112.5657816 Eh     change       -0.1537501E-08 Eh
   gradient norm :     0.1216239 Eh/α   predicted     0.0000000E+00 (-100.00%)
   displ. norm   :     0.3812041 α      lambda       -0.2233900E-01
   maximum displ.:     0.2726854 α      in ANC's #46, #44, #16, ...

........................................................................
.............................. CYCLE    2 ..............................
........................................................................

 iter      E             dE          RMSdq      gap      omega  full diag
   1   -114.6626637 -0.114663E+03  0.176E-01    3.05       0.0  T
   2   -114.6627380 -0.742743E-04  0.107E-01    3.05       1.0  T
   3   -114.6626629  0.750314E-04  0.461E-02    3.05       1.0  T
   4   -114.6627717 -0.108736E-03  0.570E-03    3.05       2.1  T
   5   -114.6627728 -0.116871E-05  0.333E-03    3.05       3.5  T
   6   -114.6627731 -0.221020E-06  0.125E-03    3.05       9.4  T
   7   -114.6627731 -0.650010E-07  0.331E-04    3.05      35.6  T
   8   -114.6627731 -0.362746E-08  0.182E-04    3.05      64.7  T
     SCC iter.                  ...        0 min,  0.065 sec
     gradient                   ...        0 min,  0.009 sec
 * total energy  :  -112.5810386 Eh     change       -0.1525704E-01 Eh
   gradient norm :     0.0398835 Eh/α   predicted    -0.1280182E-01 ( -16.09%)
   displ. norm   :     0.3218858 α      lambda       -0.5444974E-02
   maximum displ.:     0.1969908 α      in ANC's #46, #16, #44, ...

........................................................................
.............................. CYCLE    3 ..............................
........................................................................

 iter      E             dE          RMSdq      gap      omega  full diag
   1   -114.7110141 -0.114711E+03  0.109E-01    3.06       0.0  T
   2   -114.7110707 -0.565829E-04  0.680E-02    3.06       1.0  T
   3   -114.7110414  0.292601E-04  0.357E-02    3.06       1.0  T
   4   -114.7110993 -0.578879E-04  0.540E-03    3.06       2.2  T
   5   -114.7111011 -0.182924E-05  0.203E-03    3.06       5.8  T
   6   -114.7111013 -0.157063E-06  0.102E-03    3.06      11.6  T
   7   -114.7111013 -0.218822E-07  0.278E-04    3.06      42.4  T
   8   -114.7111013 -0.259888E-08  0.127E-04    3.06      93.1  T
     SCC iter.                  ...        0 min,  0.066 sec
     gradient                   ...        0 min,  0.010 sec
 * total energy  :  -112.5841979 Eh     change       -0.3159239E-02 Eh
   gradient norm :     0.0086419 Eh/α   predicted    -0.3004994E-02 (  -4.88%)
   displ. norm   :     0.2119389 α      lambda       -0.7318815E-03
   maximum displ.:     0.1891374 α      in ANC's #16, #46, #36, ...

........................................................................
.............................. CYCLE    4 ..............................
........................................................................

 iter      E             dE          RMSdq      gap      omega  full diag
   1   -114.7190064 -0.114719E+03  0.398E-02    3.06       0.0  T
   2   -114.7190197 -0.133536E-04  0.270E-02    3.06       1.0  T
   3   -114.7190184  0.129863E-05  0.136E-02    3.06       1.0  T
   4   -114.7190255 -0.710982E-05  0.320E-03    3.06       3.7  T
   5   -114.7190262 -0.649702E-06  0.690E-04    3.06      17.1  T
   6   -114.7190262 -0.285357E-07  0.306E-04    3.06      38.5  T
     SCC iter.                  ...        0 min,  0.049 sec
     gradient                   ...        0 min,  0.010 sec
 * total energy  :  -112.5847449 Eh     change       -0.5470732E-03 Eh
   gradient norm :     0.0067004 Eh/α   predicted    -0.3823789E-03 ( -30.10%)
   displ. norm   :     0.2325102 α      lambda       -0.4655877E-03
   maximum displ.:     0.2097718 α      in ANC's #16, #8, #11, ...

........................................................................
.............................. CYCLE    5 ..............................
........................................................................

 iter      E             dE          RMSdq      gap      omega  full diag
   1   -114.7212225 -0.114721E+03  0.422E-02    3.06       0.0  T
   2   -114.7212302 -0.778900E-05  0.269E-02    3.06       1.0  T
   3   -114.7212223  0.793670E-05  0.121E-02    3.06       1.0  T
   4   -114.7212331 -0.107778E-04  0.247E-03    3.06       4.8  T
   5   -114.7212336 -0.477906E-06  0.599E-04    3.06      19.7  T
   6   -114.7212336 -0.166037E-07  0.290E-04    3.06      40.6  T
     SCC iter.                  ...        0 min,  0.049 sec
     gradient                   ...        0 min,  0.010 sec
 * total energy  :  -112.5850685 Eh     change       -0.3235599E-03 Eh
   gradient norm :     0.0036276 Eh/α   predicted    -0.2453806E-03 ( -24.16%)
   displ. norm   :     0.1339438 α      lambda       -0.1387354E-03
   maximum displ.:     0.1092269 α      in ANC's #16, #8, #11, ...

........................................................................
.............................. CYCLE    6 ..............................
........................................................................

 iter      E             dE          RMSdq      gap      omega  full diag
   1   -114.7214243 -0.114721E+03  0.252E-02    3.06       0.0  T
   2   -114.7214250 -0.677009E-06  0.151E-02    3.06       1.0  T
   3   -114.7214228  0.224389E-05  0.481E-03    3.06       2.5  T
   4   -114.7214253 -0.255571E-05  0.698E-04    3.06      16.9  T
   5   -114.7214253 -0.388280E-07  0.238E-04    3.06      49.5  T
   6   -114.7214253 -0.116427E-08  0.131E-04    3.06      89.7  T
     SCC iter.                  ...        0 min,  0.049 sec
     gradient                   ...        0 min,  0.010 sec
 * total energy  :  -112.5851747 Eh     change       -0.1061774E-03 Eh
   gradient norm :     0.0027412 Eh/α   predicted    -0.7061503E-04 ( -33.49%)
   displ. norm   :     0.1424638 α      lambda       -0.9509228E-04
   maximum displ.:     0.0989958 α      in ANC's #16, #8, #3, ...

........................................................................
.............................. CYCLE    7 ..............................
........................................................................

 iter      E             dE          RMSdq      gap      omega  full diag
   1   -114.7217158 -0.114722E+03  0.255E-02    3.06       0.0  T
   2   -114.7217163 -0.481988E-06  0.152E-02    3.06       1.0  T
   3   -114.7217143  0.192379E-05  0.467E-03    3.06       2.5  T
   4   -114.7217165 -0.219091E-05  0.520E-04    3.06      22.7  T
   5   -114.7217166 -0.168891E-07  0.214E-04    3.06      55.1  T
   6   -114.7217166 -0.742531E-09  0.120E-04    3.06      98.3  T
     SCC iter.                  ...        0 min,  0.049 sec
     gradient                   ...        0 min,  0.009 sec
 * total energy  :  -112.5852408 Eh     change       -0.6611344E-04 Eh
   gradient norm :     0.0018210 Eh/α   predicted    -0.4851148E-04 ( -26.62%)
   displ. norm   :     0.1621226 α      lambda       -0.3779819E-04
   maximum displ.:     0.0878316 α      in ANC's #8, #16, #3, ...

........................................................................
.............................. CYCLE    8 ..............................
........................................................................

 iter      E             dE          RMSdq      gap      omega  full diag
   1   -114.7221957 -0.114722E+03  0.270E-02    3.06       0.0  T
   2   -114.7221963 -0.590423E-06  0.160E-02    3.06       1.0  T
   3   -114.7221945  0.179738E-05  0.482E-03    3.06       2.4  T
   4   -114.7221966 -0.205836E-05  0.563E-04    3.06      20.9  T
   5   -114.7221966 -0.204918E-07  0.238E-04    3.06      49.4  T
   6   -114.7221966 -0.122834E-08  0.135E-04    3.06      87.0  T
     SCC iter.                  ...        0 min,  0.049 sec
     gradient                   ...        0 min,  0.010 sec
 * total energy  :  -112.5852690 Eh     change       -0.2820336E-04 Eh
   gradient norm :     0.0012966 Eh/α   predicted    -0.1912008E-04 ( -32.21%)
   displ. norm   :     0.1607402 α      lambda        0.4239753E-04
   maximum displ.:     0.0869302 α      in ANC's #8, #16, #3, ...

........................................................................
.............................. CYCLE    9 ..............................
........................................................................

 iter      E             dE          RMSdq      gap      omega  full diag
   1   -114.7223850 -0.114722E+03  0.268E-02    3.06       0.0  T
   2   -114.7223855 -0.574646E-06  0.159E-02    3.05       1.0  T
   3   -114.7223838  0.177875E-05  0.479E-03    3.06       2.5  T
   4   -114.7223858 -0.203658E-05  0.555E-04    3.05      21.2  T
   5   -114.7223858 -0.197633E-07  0.236E-04    3.05      50.0  T
   6   -114.7223858 -0.118622E-08  0.134E-04    3.05      87.7  T
     SCC iter.                  ...        0 min,  0.049 sec
     gradient                   ...        0 min,  0.010 sec
 * total energy  :  -112.5852405 Eh     change        0.2851262E-04 Eh
   gradient norm :     0.0028736 Eh/α   predicted     0.2143953E-04 ( -24.81%)
   displ. norm   :     0.0917807 α      lambda       -0.4905752E-04
   maximum displ.:     0.0668842 α      in ANC's #16, #8, #11, ...

........................................................................
.............................. CYCLE   10 ..............................
........................................................................

 iter      E             dE          RMSdq      gap      omega  full diag
   1   -114.7223802 -0.114722E+03  0.162E-02    3.05       0.0  T
   2   -114.7223803 -0.194154E-06  0.969E-03    3.06       1.2  T
   3   -114.7223795  0.857017E-06  0.303E-03    3.06       3.9  T
   4   -114.7223805 -0.973370E-06  0.326E-04    3.06      36.2  T
   5   -114.7223805 -0.625246E-08  0.137E-04    3.06      86.0  T
     SCC iter.                  ...        0 min,  0.041 sec
     gradient                   ...        0 min,  0.009 sec
 * total energy  :  -112.5852764 Eh     change       -0.3591392E-04 Eh
   gradient norm :     0.0015425 Eh/α   predicted    -0.2473981E-04 ( -31.11%)
   displ. norm   :     0.0844557 α      lambda       -0.2428172E-04
   maximum displ.:     0.0737373 α      in ANC's #16, #8, #36, ...

........................................................................
.............................. CYCLE   11 ..............................
........................................................................

 iter      E             dE          RMSdq      gap      omega  full diag
   1   -114.7221480 -0.114722E+03  0.158E-02    3.06       0.0  T
   2   -114.7221481 -0.130223E-06  0.947E-03    3.06       1.2  T
   3   -114.7221473  0.840738E-06  0.282E-03    3.06       4.2  T
   4   -114.7221482 -0.948258E-06  0.281E-04    3.06      41.9  T
   5   -114.7221482 -0.311329E-08  0.138E-04    3.06      85.6  T
     SCC iter.                  ...        0 min,  0.041 sec
     gradient                   ...        0 min,  0.009 sec
 * total energy  :  -112.5852965 Eh     change       -0.2005961E-04 Eh
   gradient norm :     0.0004729 Eh/α   predicted    -0.1218046E-04 ( -39.28%)
   displ. norm   :     0.0519698 α      lambda       -0.7147170E-05
   maximum displ.:     0.0395010 α      in ANC's #3, #8, #2, ...

........................................................................
.............................. CYCLE   12 ..............................
........................................................................

 iter      E             dE          RMSdq      gap      omega  full diag
   1   -114.7220453 -0.114722E+03  0.822E-03    3.06       0.0  T
   2   -114.7220454 -0.489459E-07  0.482E-03    3.06       2.4  T
   3   -114.7220453  0.756371E-07  0.135E-03    3.06       8.7  T
   4   -114.7220454 -0.896744E-07  0.139E-04    3.06      84.7  T
   5   -114.7220454 -0.938869E-09  0.519E-05    3.06     227.0  T
     SCC iter.                  ...        0 min,  0.041 sec
     gradient                   ...        0 min,  0.009 sec
 * total energy  :  -112.5853062 Eh     change       -0.9767415E-05 Eh
   gradient norm :     0.0004165 Eh/α   predicted    -0.3578200E-05 ( -63.37%)
   displ. norm   :     0.0791696 α      lambda       -0.9110692E-05
   maximum displ.:     0.0576544 α      in ANC's #3, #8, #2, ...

........................................................................
.............................. CYCLE   13 ..............................
........................................................................

 iter      E             dE          RMSdq      gap      omega  full diag
   1   -114.7218789 -0.114722E+03  0.129E-02    3.06       0.0  T
   2   -114.7218790 -0.109975E-06  0.752E-03    3.06       1.6  T
   3   -114.7218788  0.185249E-06  0.207E-03    3.06       5.7  T
   4   -114.7218790 -0.219090E-06  0.195E-04    3.06      60.5  T
   5   -114.7218790 -0.193137E-08  0.804E-05    3.06     146.7  T
     SCC iter.                  ...        0 min,  0.041 sec
     gradient                   ...        0 min,  0.010 sec
 * total energy  :  -112.5853183 Eh     change       -0.1204474E-04 Eh
   gradient norm :     0.0002329 Eh/α   predicted    -0.4569489E-05 ( -62.06%)
   displ. norm   :     0.0853401 α      lambda       -0.8008835E-05
   maximum displ.:     0.0628329 α      in ANC's #3, #8, #2, ...

........................................................................
.............................. CYCLE   14 ..............................
........................................................................

 iter      E             dE          RMSdq      gap      omega  full diag
   1   -114.7219237 -0.114722E+03  0.139E-02    3.06       0.0  T
   2   -114.7219238 -0.923910E-07  0.813E-03    3.06       1.4  T
   3   -114.7219236  0.147816E-06  0.179E-03    3.06       6.6  T
   4   -114.7219238 -0.174286E-06  0.188E-04    3.06      62.7  T
   5   -114.7219238 -0.175045E-08  0.826E-05    3.06     142.6  T
     SCC iter.                  ...        0 min,  0.041 sec
     gradient                   ...        0 min,  0.009 sec
 * total energy  :  -112.5853289 Eh     change       -0.1061526E-04 Eh
   gradient norm :     0.0002272 Eh/α   predicted    -0.4018314E-05 ( -62.15%)
   displ. norm   :     0.0735036 α      lambda       -0.6143811E-05
   maximum displ.:     0.0551014 α      in ANC's #3, #2, #5, ...

........................................................................
.............................. CYCLE   15 ..............................
........................................................................

 iter      E             dE          RMSdq      gap      omega  full diag
   1   -114.7219238 -0.114722E+03  0.117E-02    3.06       0.0  T
   2   -114.7219238 -0.408963E-07  0.683E-03    3.06       1.7  T
   3   -114.7219238  0.603279E-07  0.113E-03    3.06      10.4  T
   4   -114.7219239 -0.722926E-07  0.130E-04    3.06      90.5  T
   5   -114.7219239 -0.725549E-09  0.621E-05    3.06     189.9  T
     SCC iter.                  ...        0 min,  0.041 sec
     gradient                   ...        0 min,  0.010 sec
 * total energy  :  -112.5853374 Eh     change       -0.8490219E-05 Eh
   gradient norm :     0.0002609 Eh/α   predicted    -0.3083501E-05 ( -63.68%)
   displ. norm   :     0.0704091 α      lambda       -0.5949304E-05
   maximum displ.:     0.0528308 α      in ANC's #3, #2, #5, ...

........................................................................
.............................. CYCLE   16 ..............................
........................................................................

 iter      E             dE          RMSdq      gap      omega  full diag
   1   -114.7219799 -0.114722E+03  0.108E-02    3.06       0.0  T
   2   -114.7219799 -0.199208E-07  0.633E-03    3.06       1.9  T
   3   -114.7219799  0.193856E-07  0.664E-04    3.06      17.7  T
   4   -114.7219799 -0.254535E-07  0.104E-04    3.06     112.8  T
     SCC iter.                  ...        0 min,  0.033 sec
     gradient                   ...        0 min,  0.009 sec
 * total energy  :  -112.5853458 Eh     change       -0.8481278E-05 Eh
   gradient norm :     0.0002802 Eh/α   predicted    -0.2981779E-05 ( -64.84%)
   displ. norm   :     0.0842161 α      lambda       -0.7302621E-05
   maximum displ.:     0.0614583 α      in ANC's #3, #2, #5, ...

........................................................................
.............................. CYCLE   17 ..............................
........................................................................

 iter      E             dE          RMSdq      gap      omega  full diag
   1   -114.7219949 -0.114722E+03  0.124E-02    3.06       0.0  T
   2   -114.7219950 -0.148453E-07  0.727E-03    3.06       1.6  T
   3   -114.7219950  0.108200E-07  0.475E-04    3.06      24.8  T
   4   -114.7219950 -0.167493E-07  0.108E-04    3.06     109.5  T
     SCC iter.                  ...        0 min,  0.033 sec
     gradient                   ...        0 min,  0.009 sec
 * total energy  :  -112.5853562 Eh     change       -0.1030232E-04 Eh
   gradient norm :     0.0002571 Eh/α   predicted    -0.3664113E-05 ( -64.43%)
   displ. norm   :     0.1159799 α      lambda       -0.9613609E-05
   maximum displ.:     0.0825516 α      in ANC's #3, #2, #5, ...

........................................................................
.............................. CYCLE   18 ..............................
........................................................................

 iter      E             dE          RMSdq      gap      omega  full diag
   1   -114.7220150 -0.114722E+03  0.168E-02    3.06       0.0  T
   2   -114.7220150 -0.246623E-07  0.983E-03    3.06       1.2  T
   3   -114.7220150  0.168888E-07  0.574E-04    3.06      20.5  T
   4   -114.7220150 -0.277097E-07  0.154E-04    3.06      76.8  T
     SCC iter.                  ...        0 min,  0.033 sec
     gradient                   ...        0 min,  0.010 sec
 * total energy  :  -112.5853692 Eh     change       -0.1304990E-04 Eh
   gradient norm :     0.0002103 Eh/α   predicted    -0.4836527E-05 ( -62.94%)
   displ. norm   :     0.1405009 α      lambda       -0.9925949E-05
   maximum displ.:     0.0996364 α      in ANC's #3, #2, #5, ...

........................................................................
.............................. CYCLE   19 ..............................
........................................................................

 iter      E             dE          RMSdq      gap      omega  full diag
   1   -114.7220461 -0.114722E+03  0.201E-02    3.05       0.0  T
   2   -114.7220462 -0.341418E-07  0.118E-02    3.05       1.0  T
   3   -114.7220462  0.285944E-07  0.700E-04    3.05      16.8  T
   4   -114.7220462 -0.441790E-07  0.181E-04    3.05      65.2  T
     SCC iter.                  ...        0 min,  0.033 sec
     gradient                   ...        0 min,  0.010 sec
 * total energy  :  -112.5853821 Eh     change       -0.1288562E-04 Eh
   gradient norm :     0.0001645 Eh/α   predicted    -0.5009133E-05 ( -61.13%)
   displ. norm   :     0.1210525 α      lambda       -0.6646638E-05
   maximum displ.:     0.0871880 α      in ANC's #3, #2, #5, ...

........................................................................
.............................. CYCLE   20 ..............................
........................................................................

 iter      E             dE          RMSdq      gap      omega  full diag
   1   -114.7220762 -0.114722E+03  0.174E-02    3.05       0.0  T
   2   -114.7220762 -0.284492E-07  0.102E-02    3.05       1.2  T
   3   -114.7220762  0.305985E-07  0.682E-04    3.05      17.3  T
   4   -114.7220762 -0.432027E-07  0.162E-04    3.05      72.5  T
     SCC iter.                  ...        0 min,  0.033 sec
     gradient                   ...        0 min,  0.009 sec
 * total energy  :  -112.5853905 Eh     change       -0.8449371E-05 Eh
   gradient norm :     0.0001639 Eh/α   predicted    -0.3345813E-05 ( -60.40%)
   displ. norm   :     0.0779296 α      lambda       -0.3418140E-05
   maximum displ.:     0.0583141 α      in ANC's #3, #2, #5, ...
 * RMSD in coord.:     0.2005134 α      energy gain  -0.1960896E-01 Eh

generating ANC from exact Hessian ...
Using Lindh-Hessian (1995)
 Shifting diagonal of input Hessian by   9.822029719054484E-003
 Lowest  eigenvalues of input Hessian
    0.000000    0.000000    0.000000    0.000000    0.000000    0.000000
    0.010000    0.010056    0.010067    0.010194    0.010309    0.010354
    0.011680    0.011963    0.012118    0.012493    0.012731    0.013514
 Highest eigenvalues
    2.176516    2.182226    2.184417    2.185454    2.242223    2.242397
 

........................................................................
.............................. CYCLE   21 ..............................
........................................................................

 iter      E             dE          RMSdq      gap      omega  full diag
   1   -114.7221632 -0.114722E+03  0.116E-02    3.05       0.0  T
   2   -114.7221632 -0.144756E-07  0.678E-03    3.05       1.7  T
   3   -114.7221632  0.224965E-07  0.541E-04    3.05      21.8  T
   4   -114.7221632 -0.286832E-07  0.112E-04    3.05     105.0  T
     SCC iter.                  ...        0 min,  0.033 sec
     gradient                   ...        0 min,  0.010 sec
 * total energy  :  -112.5853950 Eh     change       -0.4447808E-05 Eh
   gradient norm :     0.0001487 Eh/α   predicted     0.0000000E+00 (-100.00%)
   displ. norm   :     0.0145354 α      lambda       -0.3383452E-07
   maximum displ.:     0.0134208 α      in ANC's #3, #5, #11, ...

........................................................................
.............................. CYCLE   22 ..............................
........................................................................

 iter      E             dE          RMSdq      gap      omega  full diag
   1   -114.7221706 -0.114722E+03  0.285E-03    3.05       0.0  T
   2   -114.7221706 -0.182304E-08  0.167E-03    3.05       7.0  T
   3   -114.7221706  0.397456E-08  0.265E-04    3.05      44.5  T
   4   -114.7221706 -0.463913E-08  0.313E-05    3.05     376.8  T
     SCC iter.                  ...        0 min,  0.033 sec
     gradient                   ...        0 min,  0.009 sec
 * total energy  :  -112.5853964 Eh     change       -0.1443265E-05 Eh
   gradient norm :     0.0001209 Eh/α   predicted    -0.5174723E-06 ( -64.15%)
   displ. norm   :     0.0213589 α      lambda       -0.1360217E-05
   maximum displ.:     0.0178253 α      in ANC's #3, #5, #11, ...

........................................................................
.............................. CYCLE   23 ..............................
........................................................................

 iter      E             dE          RMSdq      gap      omega  full diag
   1   -114.7221672 -0.114722E+03  0.420E-03    3.05       0.0  T
   2   -114.7221672 -0.409470E-08  0.246E-03    3.05       4.8  T
   3   -114.7221672  0.751743E-08  0.391E-04    3.05      30.1  T
   4   -114.7221672 -0.891136E-08  0.432E-05    3.05     273.1  T
     SCC iter.                  ...        0 min,  0.033 sec
     gradient                   ...        0 min,  0.010 sec
 * total energy  :  -112.5853984 Eh     change       -0.1952545E-05 Eh
   gradient norm :     0.0001411 Eh/α   predicted    -0.6803537E-06 ( -65.16%)
   displ. norm   :     0.0297742 α      lambda       -0.1738034E-05
   maximum displ.:     0.0236739 α      in ANC's #3, #5, #11, ...

........................................................................
.............................. CYCLE   24 ..............................
........................................................................

 iter      E             dE          RMSdq      gap      omega  full diag
   1   -114.7221595 -0.114722E+03  0.592E-03    3.05       0.0  T
   2   -114.7221595 -0.649197E-08  0.347E-03    3.05       3.4  T
   3   -114.7221595  0.104303E-07  0.460E-04    3.05      25.6  T
   4   -114.7221596 -0.126319E-07  0.587E-05    3.05     200.6  T
     SCC iter.                  ...        0 min,  0.033 sec
     gradient                   ...        0 min,  0.009 sec
 * total energy  :  -112.5854008 Eh     change       -0.2465185E-05 Eh
   gradient norm :     0.0001130 Eh/α   predicted    -0.8696558E-06 ( -64.72%)
   displ. norm   :     0.0370099 α      lambda       -0.1964046E-05
   maximum displ.:     0.0289053 α      in ANC's #3, #5, #11, ...

........................................................................
.............................. CYCLE   25 ..............................
........................................................................

 iter      E             dE          RMSdq      gap      omega  full diag
   1   -114.7221662 -0.114722E+03  0.723E-03    3.05       0.0  T
   2   -114.7221662 -0.760292E-08  0.424E-03    3.05       2.8  T
   3   -114.7221662  0.111114E-07  0.468E-04    3.05      25.2  T
   4   -114.7221662 -0.138287E-07  0.691E-05    3.05     170.7  T
     SCC iter.                  ...        0 min,  0.033 sec
     gradient                   ...        0 min,  0.009 sec
 * total energy  :  -112.5854036 Eh     change       -0.2791921E-05 Eh
   gradient norm :     0.0001056 Eh/α   predicted    -0.9829604E-06 ( -64.79%)
   displ. norm   :     0.0411312 α      lambda       -0.2059046E-05
   maximum displ.:     0.0317756 α      in ANC's #3, #5, #11, ...

........................................................................
.............................. CYCLE   26 ..............................
........................................................................

 iter      E             dE          RMSdq      gap      omega  full diag
   1   -114.7221753 -0.114722E+03  0.797E-03    3.05       0.0  T
   2   -114.7221753 -0.726085E-08  0.467E-03    3.05       2.5  T
   3   -114.7221753  0.108038E-07  0.437E-04    3.05      26.9  T
   4   -114.7221753 -0.137179E-07  0.749E-05    3.05     157.3  T
     SCC iter.                  ...        0 min,  0.032 sec
     gradient                   ...        0 min,  0.010 sec
 * total energy  :  -112.5854066 Eh     change       -0.2925667E-05 Eh
   gradient norm :     0.0001064 Eh/α   predicted    -0.1033393E-05 ( -64.68%)
   displ. norm   :     0.0455002 α      lambda       -0.2196821E-05
   maximum displ.:     0.0347982 α      in ANC's #3, #5, #11, ...

........................................................................
.............................. CYCLE   27 ..............................
........................................................................

 iter      E             dE          RMSdq      gap      omega  full diag
   1   -114.7221917 -0.114722E+03  0.875E-03    3.05       0.0  T
   2   -114.7221917 -0.695962E-08  0.513E-03    3.05       2.3  T
   3   -114.7221917  0.112517E-07  0.412E-04    3.05      28.6  T
   4   -114.7221917 -0.144940E-07  0.811E-05    3.05     145.4  T
     SCC iter.                  ...        0 min,  0.033 sec
     gradient                   ...        0 min,  0.009 sec
 * total energy  :  -112.5854097 Eh     change       -0.3144127E-05 Eh
   gradient norm :     0.0001063 Eh/α   predicted    -0.1102271E-05 ( -64.94%)
   displ. norm   :     0.0521219 α      lambda       -0.2456710E-05
   maximum displ.:     0.0393113 α      in ANC's #3, #5, #8, ...

........................................................................
.............................. CYCLE   28 ..............................
........................................................................

 iter      E             dE          RMSdq      gap      omega  full diag
   1   -114.7222069 -0.114722E+03  0.100E-02    3.06       0.0  T
   2   -114.7222069 -0.800877E-08  0.588E-03    3.06       2.0  T
   3   -114.7222069  0.151039E-07  0.447E-04    3.06      26.4  T
   4   -114.7222069 -0.193595E-07  0.918E-05    3.06     128.4  T
     SCC iter.                  ...        0 min,  0.033 sec
     gradient                   ...        0 min,  0.009 sec
 * total energy  :  -112.5854132 Eh     change       -0.3512729E-05 Eh
   gradient norm :     0.0001027 Eh/α   predicted    -0.1232763E-05 ( -64.91%)
   displ. norm   :     0.0640582 α      lambda       -0.2883853E-05
   maximum displ.:     0.0477561 α      in ANC's #3, #5, #8, ...

........................................................................
.............................. CYCLE   29 ..............................
........................................................................

 iter      E             dE          RMSdq      gap      omega  full diag
   1   -114.7222134 -0.114722E+03  0.124E-02    3.06       0.0  T
   2   -114.7222134 -0.116250E-07  0.725E-03    3.06       1.6  T
   3   -114.7222134  0.251008E-07  0.552E-04    3.06      21.4  T
   4   -114.7222134 -0.317732E-07  0.113E-04    3.06     104.6  T
     SCC iter.                  ...        0 min,  0.033 sec
     gradient                   ...        0 min,  0.010 sec
 * total energy  :  -112.5854173 Eh     change       -0.4126543E-05 Eh
   gradient norm :     0.0001040 Eh/α   predicted    -0.1445329E-05 ( -64.97%)
   displ. norm   :     0.0745516 α      lambda       -0.3185685E-05
   maximum displ.:     0.0550739 α      in ANC's #3, #5, #8, ...

........................................................................
.............................. CYCLE   30 ..............................
........................................................................

 iter      E             dE          RMSdq      gap      omega  full diag
   1   -114.7222188 -0.114722E+03  0.144E-02    3.06       0.0  T
   2   -114.7222188 -0.158093E-07  0.846E-03    3.06       1.4  T
   3   -114.7222188  0.366620E-07  0.654E-04    3.06      18.0  T
   4   -114.7222188 -0.460079E-07  0.132E-04    3.06      89.4  T
     SCC iter.                  ...        0 min,  0.033 sec
     gradient                   ...        0 min,  0.010 sec
 * total energy  :  -112.5854218 Eh     change       -0.4421180E-05 Eh
   gradient norm :     0.0001065 Eh/α   predicted    -0.1600946E-05 ( -63.79%)
   displ. norm   :     0.0825517 α      lambda       -0.3166184E-05
   maximum displ.:     0.0609974 α      in ANC's #3, #5, #8, ...

........................................................................
.............................. CYCLE   31 ..............................
........................................................................

 iter      E             dE          RMSdq      gap      omega  full diag
   1   -114.7222130 -0.114722E+03  0.161E-02    3.06       0.0  T
   2   -114.7222130 -0.199485E-07  0.944E-03    3.06       1.2  T
   3   -114.7222129  0.474164E-07  0.739E-04    3.06      15.9  T
   4   -114.7222130 -0.592085E-07  0.148E-04    3.06      79.7  T
     SCC iter.                  ...        0 min,  0.033 sec
     gradient                   ...        0 min,  0.010 sec
 * total energy  :  -112.5854261 Eh     change       -0.4368632E-05 Eh
   gradient norm :     0.0000898 Eh/α   predicted    -0.1588316E-05 ( -63.64%)
   displ. norm   :     0.0743705 α      lambda       -0.2472491E-05
   maximum displ.:     0.0555233 α      in ANC's #3, #5, #8, ...

........................................................................
.............................. CYCLE   32 ..............................
........................................................................

 iter      E             dE          RMSdq      gap      omega  full diag
   1   -114.7222194 -0.114722E+03  0.145E-02    3.06       0.0  T
   2   -114.7222194 -0.161102E-07  0.851E-03    3.06       1.4  T
   3   -114.7222194  0.383210E-07  0.664E-04    3.06      17.8  T
   4   -114.7222194 -0.478899E-07  0.133E-04    3.06      88.9  T
     SCC iter.                  ...        0 min,  0.033 sec
     gradient                   ...        0 min,  0.009 sec
 * total energy  :  -112.5854296 Eh     change       -0.3421147E-05 Eh
   gradient norm :     0.0000759 Eh/α   predicted    -0.1241508E-05 ( -63.71%)
   displ. norm   :     0.0547622 α      lambda       -0.1597920E-05
   maximum displ.:     0.0416858 α      in ANC's #3, #5, #8, ...

........................................................................
.............................. CYCLE   33 ..............................
........................................................................

 iter      E             dE          RMSdq      gap      omega  full diag
   1   -114.7222354 -0.114722E+03  0.108E-02    3.06       0.0  T
   2   -114.7222355 -0.892274E-08  0.632E-03    3.06       1.9  T
   3   -114.7222354  0.203634E-07  0.488E-04    3.06      24.2  T
   4   -114.7222355 -0.255528E-07  0.982E-05    3.06     120.0  T
     SCC iter.                  ...        0 min,  0.038 sec
     gradient                   ...        0 min,  0.010 sec
 * total energy  :  -112.5854318 Eh     change       -0.2237027E-05 Eh
   gradient norm :     0.0000719 Eh/α   predicted    -0.8007536E-06 ( -64.20%)
   displ. norm   :     0.0364989 α      lambda       -0.9920259E-06
   maximum displ.:     0.0287445 α      in ANC's #3, #5, #8, ...

........................................................................
.............................. CYCLE   34 ..............................
........................................................................

 iter      E             dE          RMSdq      gap      omega  full diag
   1   -114.7222504 -0.114722E+03  0.719E-03    3.06       0.0  T
   2   -114.7222504 -0.383903E-08  0.422E-03    3.06       2.8  T
   3   -114.7222504  0.791030E-08  0.308E-04    3.06      38.3  T
   4   -114.7222504 -0.100972E-07  0.648E-05    3.06     181.7  T
     SCC iter.                  ...        0 min,  0.033 sec
     gradient                   ...        0 min,  0.009 sec
 * total energy  :  -112.5854332 Eh     change       -0.1415186E-05 Eh
   gradient norm :     0.0000680 Eh/α   predicted    -0.4972291E-06 ( -64.86%)
   displ. norm   :     0.0227232 α      lambda       -0.6269120E-06
   maximum displ.:     0.0188700 α      in ANC's #3, #5, #8, ...

........................................................................
.............................. CYCLE   35 ..............................
........................................................................

 iter      E             dE          RMSdq      gap      omega  full diag
   1   -114.7222607 -0.114722E+03  0.450E-03    3.06       0.0  T
   2   -114.7222607 -0.155244E-08  0.264E-03    3.06       4.5  T
   3   -114.7222607  0.279299E-08  0.188E-04    3.06      62.5  T
   4   -114.7222607 -0.360716E-08  0.402E-05    3.06     293.1  T
     SCC iter.                  ...        0 min,  0.032 sec
     gradient                   ...        0 min,  0.009 sec
 * total energy  :  -112.5854341 Eh     change       -0.9122008E-06 Eh
   gradient norm :     0.0000635 Eh/α   predicted    -0.3141988E-06 ( -65.56%)
   displ. norm   :     0.0143291 α      lambda       -0.4383144E-06
   maximum displ.:     0.0128221 α      in ANC's #3, #5, #8, ...

........................................................................
.............................. CYCLE   36 ..............................
........................................................................

 iter      E             dE          RMSdq      gap      omega  full diag
   1   -114.7222677 -0.114722E+03  0.280E-03    3.06       0.0  T
   2   -114.7222677 -0.621398E-09  0.164E-03    3.06       7.2  T
   3   -114.7222677  0.850690E-09  0.112E-04    3.06     105.7  T
   4   -114.7222677 -0.113809E-08  0.246E-05    3.06     478.9  T
     SCC iter.                  ...        0 min,  0.032 sec
     gradient                   ...        0 min,  0.009 sec
 * total energy  :  -112.5854348 Eh     change       -0.6468541E-06 Eh
   gradient norm :     0.0000612 Eh/α   predicted    -0.2195047E-06 ( -66.07%)
   displ. norm   :     0.0105515 α      lambda       -0.3664500E-06
   maximum displ.:     0.0099645 α      in ANC's #3, #2, #5, ...

........................................................................
.............................. CYCLE   37 ..............................
........................................................................

 iter      E             dE          RMSdq      gap      omega  full diag
   1   -114.7222714 -0.114722E+03  0.197E-03    3.06       0.0  T
   2   -114.7222714 -0.347029E-09  0.116E-03    3.06      10.2  T
   3   -114.7222714  0.386436E-09  0.817E-05    3.06     144.2  T
   4   -114.7222714 -0.524636E-09  0.166E-05    3.06     709.6  T
     SCC iter.                  ...        0 min,  0.033 sec
     gradient                   ...        0 min,  0.009 sec
 * total energy  :  -112.5854353 Eh     change       -0.5435377E-06 Eh
   gradient norm :     0.0000599 Eh/α   predicted    -0.1833510E-06 ( -66.27%)
   displ. norm   :     0.0100727 α      lambda       -0.3690624E-06
   maximum displ.:     0.0093828 α      in ANC's #3, #2, #11, ...

........................................................................
.............................. CYCLE   38 ..............................
........................................................................

 iter      E             dE          RMSdq      gap      omega  full diag
   1   -114.7222734 -0.114722E+03  0.175E-03    3.06       0.0  T
   2   -114.7222734 -0.344613E-09  0.102E-03    3.06      11.5  T
   3   -114.7222734  0.413053E-09  0.887E-05    3.06     132.9  T
   4   -114.7222734 -0.540140E-09  0.147E-05    3.06     799.7  T
     SCC iter.                  ...        0 min,  0.033 sec
     gradient                   ...        0 min,  0.010 sec
 * total energy  :  -112.5854359 Eh     change       -0.5486155E-06 Eh
   gradient norm :     0.0000590 Eh/α   predicted    -0.1849637E-06 ( -66.29%)
   displ. norm   :     0.0116124 α      lambda       -0.4204706E-06
   maximum displ.:     0.0101655 α      in ANC's #3, #2, #5, ...

........................................................................
.............................. CYCLE   39 ..............................
........................................................................

 iter      E             dE          RMSdq      gap      omega  full diag
   1   -114.7222767 -0.114722E+03  0.189E-03    3.06       0.0  T
   2   -114.7222767 -0.446846E-09  0.111E-03    3.06      10.6  T
   3   -114.7222767  0.609347E-09  0.106E-04    3.06     111.7  T
   4   -114.7222767 -0.778968E-09  0.166E-05    3.06     710.1  T
     SCC iter.                  ...        0 min,  0.033 sec
     gradient                   ...        0 min,  0.009 sec
 * total energy  :  -112.5854365 Eh     change       -0.6197633E-06 Eh
   gradient norm :     0.0000578 Eh/α   predicted    -0.2106987E-06 ( -66.00%)
   displ. norm   :     0.0148956 α      lambda       -0.5131100E-06
   maximum displ.:     0.0122199 α      in ANC's #3, #5, #2, ...

........................................................................
.............................. CYCLE   40 ..............................
........................................................................

 iter      E             dE          RMSdq      gap      omega  full diag
   1   -114.7222778 -0.114722E+03  0.232E-03    3.06       0.0  T
   2   -114.7222778 -0.708681E-09  0.136E-03    3.06       8.7  T
   3   -114.7222778  0.102760E-08  0.136E-04    3.06      86.9  T
   4   -114.7222778 -0.131084E-08  0.219E-05    3.06     537.8  T
     SCC iter.                  ...        0 min,  0.033 sec
     gradient                   ...        0 min,  0.009 sec
 * total energy  :  -112.5854372 Eh     change       -0.7548479E-06 Eh
   gradient norm :     0.0000568 Eh/α   predicted    -0.2576867E-06 ( -65.86%)
   displ. norm   :     0.0195844 α      lambda       -0.6385011E-06
   maximum displ.:     0.0152675 α      in ANC's #3, #5, #2, ...

........................................................................
.............................. CYCLE   41 ..............................
........................................................................

 iter      E             dE          RMSdq      gap      omega  full diag
   1   -114.7222799 -0.114722E+03  0.300E-03    3.06       0.0  T
   2   -114.7222799 -0.113036E-08  0.176E-03    3.06       6.7  T
   3   -114.7222799  0.155349E-08  0.167E-04    3.06      70.6  T
   4   -114.7222799 -0.202263E-08  0.285E-05    3.06     413.2  T
     SCC iter.                  ...        0 min,  0.032 sec
     gradient                   ...        0 min,  0.009 sec
 * total energy  :  -112.5854382 Eh     change       -0.9322221E-06 Eh
   gradient norm :     0.0000679 Eh/α   predicted    -0.3208791E-06 ( -65.58%)
   displ. norm   :     0.0259586 α      lambda       -0.8028962E-06
   maximum displ.:     0.0194544 α      in ANC's #3, #5, #2, ...

........................................................................
.............................. CYCLE   42 ..............................
........................................................................

 iter      E             dE          RMSdq      gap      omega  full diag
   1   -114.7222810 -0.114722E+03  0.396E-03    3.06       0.0  T
   2   -114.7222810 -0.190128E-08  0.232E-03    3.06       5.1  T
   3   -114.7222810  0.247013E-08  0.212E-04    3.06      55.5  T
   4   -114.7222810 -0.329121E-08  0.388E-05    3.06     303.6  T
     SCC iter.                  ...        0 min,  0.033 sec
     gradient                   ...        0 min,  0.009 sec
 * total energy  :  -112.5854393 Eh     change       -0.1145753E-05 Eh
   gradient norm :     0.0000692 Eh/α   predicted    -0.4057077E-06 ( -64.59%)
   displ. norm   :     0.0332753 α      lambda       -0.9553041E-06
   maximum displ.:     0.0244218 α      in ANC's #3, #5, #2, ...
 * RMSD in coord.:     0.0838576 α      energy gain  -0.4877676E-04 Eh

generating ANC from exact Hessian ...
Using Lindh-Hessian (1995)
 Shifting diagonal of input Hessian by   9.820828586255331E-003
 Lowest  eigenvalues of input Hessian
    0.000000    0.000000    0.000000    0.000000    0.000000    0.000000
    0.010000    0.010051    0.010068    0.010193    0.010310    0.010350
    0.011674    0.011967    0.012108    0.012488    0.012723    0.013522
 Highest eigenvalues
    2.176628    2.182413    2.184617    2.185368    2.242007    2.242510
 

........................................................................
.............................. CYCLE   43 ..............................
........................................................................

 iter      E             dE          RMSdq      gap      omega  full diag
   1   -114.7222811 -0.114722E+03  0.504E-03    3.06       0.0  T
   2   -114.7222811 -0.288679E-08  0.295E-03    3.06       4.0  T
   3   -114.7222811  0.330316E-08  0.249E-04    3.06      47.3  T
   4   -114.7222811 -0.456919E-08  0.486E-05    3.06     242.4  T
     SCC iter.                  ...        0 min,  0.032 sec
     gradient                   ...        0 min,  0.010 sec
 * total energy  :  -112.5854407 Eh     change       -0.1371004E-05 Eh
   gradient norm :     0.0000650 Eh/α   predicted     0.0000000E+00 (-100.00%)
   displ. norm   :     0.0000974 α      lambda        0.0000000E+00
   maximum displ.:     0.0000701 α      in ANC's #3, #129, #11, ...

........................................................................
.............................. CYCLE   44 ..............................
........................................................................

 iter      E             dE          RMSdq      gap      omega  full diag
   1   -114.7222810 -0.114722E+03  0.549E-05    3.06       0.0  T
   2   -114.7222810 -0.294023E-10  0.331E-05    3.06     355.6  T
   3   -114.7222810 -0.138840E-10  0.206E-05    3.06     572.2  T
     SCC iter.                  ...        0 min,  0.025 sec
     gradient                   ...        0 min,  0.009 sec
 * total energy  :  -112.5854407 Eh     change       -0.5527099E-08 Eh
   gradient norm :     0.0000576 Eh/α   predicted    -0.3600646E-08 ( -34.85%)
   displ. norm   :     0.0000974 α      lambda        0.0000000E+00
   maximum displ.:     0.0000701 α      in ANC's #3, #129, #11, ...

   *** GEOMETRY OPTIMIZATION CONVERGED AFTER 44 ITERATIONS ***

------------------------------------------------------------------------
 total energy gain   :        -0.0196591 Eh      -12.3363 kcal/mol
 total RMSD          :         0.2398280 a0        0.1269 Å
 total power (kW/mol):        -1.1730680 (step)  -21.2603 (real)
------------------------------------------------------------------------

 ANCopt (total)                0 d,  0 h,  0 min,  2.428 sec
 optimizer setup                ...        0 min,  0.000 sec (  0.012%)
 model hessian                  ...        0 min,  0.083 sec (  3.402%)
 ANC generation                 ...        0 min,  0.014 sec (  0.594%)
 coordinate transformation      ...        0 min,  0.004 sec (  0.161%)
 single point calculation       ...        0 min,  2.299 sec ( 94.686%)
 optimization log               ...        0 min,  0.011 sec (  0.464%)
 hessian update                 ...        0 min,  0.006 sec (  0.258%)
 rational function              ...        0 min,  0.006 sec (  0.245%)

================
 final structure:
================
72
 xtb: 6.7.1 (edcfbbe)
C           -6.21969404954340        1.18085057470330        0.82597587169747
C           -5.29411159881201        0.30870590827638        1.39351201341149
C           -3.97158744160272        0.30153666833467        0.99365209736082
C           -3.58867920832086        1.18432006872678       -0.00478222436243
C           -4.51535310296657        2.09174384344365       -0.56604743318692
C           -5.83925809315561        2.08267782400908       -0.14763677932391
C           -3.78643284138419        2.88604082692026       -1.51507828937571
C           -4.15018539310093        3.91251793328475       -2.37646330113398
C           -3.18468174307846        4.46071676712658       -3.19669089970906
C           -1.87577673239756        3.98520576624193       -3.17703003395122
C           -1.49045557524172        2.96453426654083       -2.32867457868034
C           -2.44977066838758        2.42844880786752       -1.48204042411893
N           -2.34269800877514        1.39833240037593       -0.56456019133790
C           -1.17314183514404        0.69048970891870       -0.26862790430799
C           -1.17686800335917       -0.70056991345705       -0.26968513163619
C           -0.00277725421170       -1.39531109744145       -0.00000743524768
N           -0.00561789863812       -2.79593456938536       -0.00025310822703
C            0.85388274690839       -3.60701244398865       -0.71624096217786
C            1.85182392124422       -3.26144579896818       -1.61454992682363
C            2.55765452979478       -4.28167979728895       -2.22239748380895
C            2.27422429659343       -5.61913828457502       -1.95609732551198
C            1.26279963596208       -5.97039011040359       -1.08456485925694
C            0.54117205027315       -4.96137903502936       -0.46061531059254
C           -0.56084720977846       -4.95915700961814        0.46048152669249
C           -1.28638131768027       -5.96523285714235        1.08464812456427
C           -2.29626603261680       -5.60987470406117        1.95630325127122
C           -2.57436741252581       -4.27127479986776        2.22247862161468
C           -1.86462524209194       -3.25391732504723        1.61436656540561
C           -0.86818767109222       -3.60354148837342        0.71595503165941
C            1.17404870270594       -0.70526382422901        0.26981832642652
C            1.17580258380675        0.68580859194785        0.26893423756906
N            2.34817281987640        1.38902496873326        0.56475680927293
C            3.59324318502177        1.17013506230794        0.00482957940877
C            3.97256394198764        0.28590852526784       -0.99369697660149
C            5.29505390663673        0.28791989805754       -1.39373093844030
C            6.22412171763660        1.15639455688681       -0.82626218284569
C            5.84734838010818        2.05964867161892        0.14744960328973
C            4.52353515474244        2.07390714471301        0.56600443721324
C            3.79783420736519        2.87108078131663        1.51509117270920
C            4.16569422213923        3.89615629511537        2.37640148002080
C            3.20242006202535        4.44818992002654        3.19667846303334
C            1.89164350698538        3.97786002046160        3.17711834368445
C            1.50224611123710        2.95865995012073        2.32885585447561
C            2.45938247980605        2.41874271513442        1.48219177277377
C            0.00270275813401        1.38305004818785        0.00020118949733
H           -7.24520153350368        1.15456251228750        1.16278319993035
H           -5.61518646143917       -0.37464973009440        2.16568271377459
H           -3.25988606797057       -0.36353678879089        1.45707260390007
H           -6.55162739493947        2.77182383128176       -0.57526168517347
H           -5.16929624850835        4.26740652093805       -2.40330207365245
H           -3.44507506774763        5.26221008281182       -3.87169772843144
H           -1.14509129115851        4.42116897179895       -3.84213442458838
H           -0.47723589194100        2.59222052112568       -2.33911754427918
H           -2.07911750352976       -1.24030074437694       -0.51183001484605
H            2.06173212547444       -2.22859202177398       -1.84582241502247
H            3.34267354237716       -4.03657150279508       -2.92241977519343
H            2.84941589919321       -6.38848105627466       -2.44915152144391
H            1.03058181938902       -7.00690623130172       -0.89217467750213
H           -1.05825259222035       -7.00268443071945        0.89241429909712
H           -2.87441283815766       -6.37687555817320        2.44954802947524
H           -3.35828070886702       -4.02297166620207        2.92261377989313
H           -2.07038768961239       -2.22021673926753        1.84557897820766
H            2.07418296778431       -1.24857822787155        0.51182082622480
H            3.25819537242509       -0.37632222325756       -1.45708429415620
H            5.61335546634032       -0.39666069269398       -2.16596439797339
H            7.24949151264841        1.12605260445922       -1.16315025648408
H            6.56246505194279        2.74598390802750        0.57501253176245
H            5.18619986764829        4.24702034925055        2.40315654590969
H            3.46601875936956        5.24868633239860        3.87162437890255
H            1.16272311935435        4.41674754461473        3.84223659345586
H            0.48756296293167        2.59035641965134        2.33937946447725
H            0.00484723563186        2.46161855915489        0.00021619134351
 
 Bond Distances (Angstroems)
 ---------------------------
C1-C2=1.3926         C1-C6=1.3806         C1-H46=1.0797        C2-C1=1.3926         C2-C3=1.3817         C2-H47=1.0800        
C3-C2=1.3817         C3-C4=1.3866         C3-H48=1.0787        C4-C3=1.3866         C4-C5=1.4132         C4-N13=1.3826        
C5-C4=1.4132         C5-C6=1.3885         C5-C7=1.4363         C6-C1=1.3806         C6-C5=1.3885         C6-H49=1.0795        
C7-C5=1.4363         C7-C8=1.3885         C7-C12=1.4132        C8-C7=1.3885         C8-C9=1.3804         C8-H50=1.0795        
C9-C8=1.3804         C9-C10=1.3927        C9-H51=1.0797        C10-C9=1.3927        C10-C11=1.3820       C10-H52=1.0800       
C11-C10=1.3820       C11-C12=1.3873       C11-H53=1.0795       C12-C7=1.4132        C12-C11=1.3873       C12-N13=1.3836       
N13-C4=1.3826        N13-C12=1.3836       N13-C14=1.3987       C14-N13=1.3987       C14-C15=1.3911       C14-C45=1.3909       
C15-C14=1.3911       C15-C16=1.3906       C15-H54=1.0789       C16-C15=1.3906       C16-N17=1.4006       C16-C30=1.3906       
N17-C16=1.4006       N17-C18=1.3817       N17-C29=1.3817       C18-N17=1.3817       C18-C19=1.3865       C18-C23=1.4133       
C19-C18=1.3865       C19-C20=1.3815       C19-H55=1.0790       C20-C19=1.3815       C20-C21=1.3929       C20-H56=1.0800       
C21-C20=1.3929       C21-C22=1.3806       C21-H57=1.0797       C22-C21=1.3806       C22-C23=1.3886       C22-H58=1.0795       
C23-C18=1.4133       C23-C22=1.3886       C23-C24=1.4363       C24-C23=1.4363       C24-C25=1.3886       C24-C29=1.4133       
C25-C24=1.3886       C25-C26=1.3806       C25-H59=1.0795       C26-C25=1.3806       C26-C27=1.3929       C26-H60=1.0797       
C27-C26=1.3929       C27-C28=1.3815       C27-H61=1.0800       C28-C27=1.3815       C28-C29=1.3865       C28-H62=1.0790       
C29-N17=1.3817       C29-C24=1.4133       C29-C28=1.3865       C30-C16=1.3906       C30-C31=1.3911       C30-H63=1.0789       
C31-C30=1.3911       C31-N32=1.3987       C31-C45=1.3909       N32-C31=1.3987       N32-C33=1.3826       N32-C44=1.3836       
C33-N32=1.3826       C33-C34=1.3866       C33-C38=1.4132       C34-C33=1.3866       C34-C35=1.3817       C34-H64=1.0787       
C35-C34=1.3817       C35-C36=1.3926       C35-H65=1.0800       C36-C35=1.3926       C36-C37=1.3806       C36-H66=1.0797       
C37-C36=1.3806       C37-C38=1.3885       C37-H67=1.0795       C38-C33=1.4132       C38-C37=1.3885       C38-C39=1.4363       
C39-C38=1.4363       C39-C40=1.3885       C39-C44=1.4132       C40-C39=1.3885       C40-C41=1.3804       C40-H68=1.0795       
C41-C40=1.3804       C41-C42=1.3927       C41-H69=1.0797       C42-C41=1.3927       C42-C43=1.3820       C42-H70=1.0800       
C43-C42=1.3820       C43-C44=1.3872       C43-H71=1.0795       C44-N32=1.3836       C44-C39=1.4132       C44-C43=1.3872       
C45-C14=1.3909       C45-C31=1.3909       C45-H72=1.0786       H46-C1=1.0797        H47-C2=1.0800        H48-C3=1.0787        
H49-C6=1.0795        H50-C8=1.0795        H51-C9=1.0797        H52-C10=1.0800       H53-C11=1.0795       H54-C15=1.0789       
H55-C19=1.0790       H56-C20=1.0800       H57-C21=1.0797       H58-C22=1.0795       H59-C25=1.0795       H60-C26=1.0797       
H61-C27=1.0800       H62-C28=1.0790       H63-C30=1.0789       H64-C34=1.0787       H65-C35=1.0800       H66-C36=1.0797       
H67-C37=1.0795       H68-C40=1.0795       H69-C41=1.0797       H70-C42=1.0800       H71-C43=1.0795       H72-C45=1.0786       
 C  H  Rav=1.0795 sigma=0.0004  Rmin=1.0786  Rmax=1.0800    27
 C  C  Rav=1.3937 sigma=0.0150  Rmin=1.3804  Rmax=1.4363    45
 N  C  Rav=1.3882 sigma=0.0079  Rmin=1.3817  Rmax=1.4006     9
 
 selected bond angles (degree)
 --------------------
C6-C1-C2=120.89                H46-C1-C2=119.27               H46-C1-C6=119.84               C3-C2-C1=121.43                
H47-C2-C1=119.34               H47-C2-C3=119.22               C4-C3-C2=118.00                H48-C3-C2=120.69               
H48-C3-C4=121.31               C5-C4-C3=120.91                N13-C4-C3=129.71               N13-C4-C5=109.31               
C6-C5-C4=120.09                C7-C5-C4=106.54                C7-C5-C6=133.36                C5-C6-C1=118.65                
H49-C6-C1=120.97               H49-C6-C5=120.38               C8-C7-C5=133.30                C12-C7-C5=106.59               
C12-C7-C8=120.11               C9-C8-C7=118.62                H50-C8-C7=120.38               H50-C8-C9=121.00               
C10-C9-C8=120.89               H51-C9-C8=119.84               H51-C9-C10=119.27              C11-C10-C9=121.52              
H52-C10-C9=119.30              H52-C10-C11=119.18             
 
 selected dihedral angles (degree)
 ---------------------------------
C3-C2-C1-C6=359.17            C3-C2-C1-H46=179.81           H47-C2-C1-C6=178.93           H47-C2-C1-H46=359.58          
C4-C3-C2-C1=359.41            C4-C3-C2-H47=179.65           H48-C3-C2-C1=178.60           H48-C3-C2-H47=358.84          
C5-C4-C3-C2=  1.92            C5-C4-C3-H48=182.74           N13-C4-C3-C2=178.62           N13-C4-C3-H48=359.43          
C6-C5-C4-C3=358.12            C6-C5-C4-N13=180.82           C7-C5-C4-C3=177.56            C7-C5-C4-N13=  0.25           
C5-C6-C1-C2=  0.89            C5-C6-C1-H46=180.24           H49-C6-C1-C2=181.15           H49-C6-C1-H46=  0.50          
C1-C6-C5-C4=  0.43            C1-C6-C5-C7=181.18            H49-C6-C5-C4=180.18           H49-C6-C5-C7=  0.92           
C8-C7-C5-C4=179.06            C8-C7-C5-C6=358.39            C12-C7-C5-C4=359.74           C12-C7-C5-C6=179.07           
C9-C8-C7-C5=181.21            C9-C8-C7-C12=  0.46           H50-C8-C7-C5=  0.93           H50-C8-C7-C12=180.18          
C10-C9-C8-C7=  0.85           C10-C9-C8-H50=181.14          H51-C9-C8-C7=180.21           H51-C9-C8-H50=  0.50          
C11-C10-C9-C8=359.14          C11-C10-C9-H51=179.78         H52-C10-C9-C8=178.92          H52-C10-C9-H51=359.56         
           -------------------------------------------------
          |                Final Singlepoint                |
           -------------------------------------------------

          ...................................................
          :                      SETUP                      :
          :.................................................:
          :  # basis functions                 207          :
          :  # atomic orbitals                 207          :
          :  # shells                          117          :
          :  # electrons                       210          :
          :  max. iterations                   250          :
          :  Hamiltonian                  GFN2-xTB          :
          :  restarted?                      false          :
          :  GBSA solvation                  false          :
          :  PC potential                    false          :
          :  electronic temp.          300.0000000     K    :
          :  accuracy                    1.0000000          :
          :  -> integral cutoff          0.2500000E+02      :
          :  -> integral neglect         0.1000000E-07      :
          :  -> SCF convergence          0.1000000E-05 Eh   :
          :  -> wf. convergence          0.1000000E-03 e    :
          :  Broyden damping             0.4000000          :
          :  net charge                          0          :
          :  unpaired electrons                  0          :
          ...................................................

 iter      E             dE          RMSdq      gap      omega  full diag
   1   -114.7222810 -0.114722E+03  0.443E-06    3.06       0.0  T
   2   -114.7222810 -0.108002E-11  0.336E-06    3.06    3510.8  T
   3   -114.7222810 -0.795808E-12  0.101E-06    3.06   11705.1  T

   *** convergence criteria satisfied after 3 iterations ***

         #    Occupation            Energy/Eh            Energy/eV
      -------------------------------------------------------------
         1        2.0000           -0.6830573             -18.5869
       ...           ...                  ...                  ...
        99        2.0000           -0.4074050             -11.0861
       100        2.0000           -0.3810717             -10.3695
       101        2.0000           -0.3810676             -10.3694
       102        2.0000           -0.3807277             -10.3601
       103        2.0000           -0.3689939             -10.0408
       104        2.0000           -0.3670523              -9.9880
       105        2.0000           -0.3651916              -9.9374 (HOMO)
       106                         -0.2528140              -6.8794 (LUMO)
       107                         -0.2523528              -6.8669
       108                         -0.2471583              -6.7255
       109                         -0.2429883              -6.6120
       110                         -0.2429526              -6.6111
       ...                                ...                  ...
       207                          0.7450969              20.2751
      -------------------------------------------------------------
                  HL-Gap            0.1123776 Eh            3.0580 eV
             Fermi-level           -0.3090028 Eh           -8.4084 eV

 SCC (total)                   0 d,  0 h,  0 min,  0.040 sec
 SCC setup                      ...        0 min,  0.000 sec (  0.421%)
 Dispersion                     ...        0 min,  0.001 sec (  3.350%)
 classical contributions        ...        0 min,  0.000 sec (  0.077%)
 integral evaluation            ...        0 min,  0.004 sec (  9.380%)
 iterations                     ...        0 min,  0.025 sec ( 61.858%)
 molecular gradient             ...        0 min,  0.009 sec ( 23.446%)
 printout                       ...        0 min,  0.001 sec (  1.271%)

         :::::::::::::::::::::::::::::::::::::::::::::::::::::
         ::                     SUMMARY                     ::
         :::::::::::::::::::::::::::::::::::::::::::::::::::::
         :: total energy            -112.585440690149 Eh    ::
         :: gradient norm              0.000057566088 Eh/a0 ::
         :: HOMO-LUMO gap              3.057950106530 eV    ::
         ::.................................................::
         :: SCC energy              -114.721932539003 Eh    ::
         :: -> isotropic ES            0.009562455405 Eh    ::
         :: -> anisotropic ES          0.013005831542 Eh    ::
         :: -> anisotropic XC          0.059872192183 Eh    ::
         :: -> dispersion             -0.103839334369 Eh    ::
         :: repulsion energy           2.136491848854 Eh    ::
         :: add. restraining           0.000000000000 Eh    ::
         :: total charge               0.000000000000 e     ::
         :::::::::::::::::::::::::::::::::::::::::::::::::::::

           ------------------------------------------------- 
          |                Numerical Hessian                |
           ------------------------------------------------- 
step length          :   0.00500
SCC accuracy         :   0.30000
Hessian scale factor :   1.00000
frozen atoms in %    :   0.00000    0
RMS gradient         :   0.00006
estimated CPU  time     13.47 min
estimated wall time      0.34 min

writing file <hessian>.

 projected vibrational frequencies (cm⁻¹)
eigval :       -0.00    -0.00    -0.00     0.00     0.00     0.00
eigval :       17.01    17.30    21.30    22.98    26.33    32.17
eigval :       54.25    68.93    73.04    96.18    99.46   106.34
eigval :      133.64   138.35   139.83   147.30   149.87   151.95
eigval :      205.69   213.14   233.75   252.62   259.89   270.98
eigval :      271.25   273.16   282.89   286.22   323.74   330.49
eigval :      369.22   371.66   392.26   395.27   396.66   420.58
eigval :      422.21   423.10   434.98   436.65   438.38   457.30
eigval :      512.25   512.35   518.98   520.46   520.82   530.02
eigval :      540.62   540.87   541.32   544.14   561.07   578.15
eigval :      588.16   588.51   594.97   620.94   621.12   640.20
eigval :      648.60   665.94   670.95   673.00   673.53   676.86
eigval :      707.66   708.06   708.86   749.76   750.57   757.04
eigval :      764.75   767.65   768.84   770.83   771.54   778.01
eigval :      779.70   781.25   843.11   860.76   861.66   866.96
eigval :      866.97   873.51   879.19   892.63   896.08   897.17
eigval :      897.44   898.85   899.64   900.05   900.88   903.89
eigval :      905.26   908.30   911.56   919.88   920.40   923.03
eigval :      923.40   924.22   926.79   993.19  1010.54  1011.69
eigval :     1012.80  1036.10  1036.54  1066.29  1068.04  1071.50
eigval :     1072.56  1074.44  1075.11  1117.91  1121.25  1123.30
eigval :     1147.45  1150.99  1153.46  1165.80  1166.03  1175.99
eigval :     1179.18  1179.32  1181.29  1181.71  1182.82  1205.76
eigval :     1225.24  1231.56  1232.06  1235.67  1235.88  1237.46
eigval :     1256.55  1295.26  1296.03  1300.76  1302.29  1303.00
eigval :     1303.02  1317.55  1335.08  1335.70  1358.17  1358.44
eigval :     1359.03  1362.24  1362.83  1363.44  1398.26  1417.57
eigval :     1418.26  1427.09  1427.18  1428.13  1457.10  1458.91
eigval :     1465.63  1475.95  1478.41  1478.75  1488.14  1488.25
eigval :     1488.58  1565.55  1566.37  1575.25  1576.74  1576.76
eigval :     1589.81  1590.00  1591.20  1599.91  1600.37  1601.12
eigval :     1614.99  1615.19  1617.04  3077.97  3078.02  3078.09
eigval :     3078.34  3079.05  3079.12  3083.07  3083.14  3083.45
eigval :     3084.57  3085.36  3085.52  3090.37  3090.39  3091.11
eigval :     3092.42  3094.28  3094.58  3097.12  3097.63  3097.64
eigval :     3098.72  3100.27  3100.29  3106.72  3107.19  3110.33
           -------------------------------------------------
          |                Property Printout                |
           -------------------------------------------------

    * Orbital Energies and Occupations

         #    Occupation            Energy/Eh            Energy/eV
      -------------------------------------------------------------
         1        2.0000           -0.6830573             -18.5869
       ...           ...                  ...                  ...
[...]
    31   6 C       32   7 N                                       1.3987411
    32   7 N       33   6 C                                       1.3826178
    33   6 C       34   6 C                                       1.3866494
    34   6 C       35   6 C                                       1.3816697
    35   6 C       36   6 C                                       1.3926365
    36   6 C       37   6 C                                       1.3805583
    33   6 C       38   6 C                                       1.4132108
    37   6 C       38   6 C                                       1.3884788
    38   6 C       39   6 C                                       1.4362777 (max)
    39   6 C       40   6 C                                       1.3885088
    40   6 C       41   6 C                                       1.3803959
    41   6 C       42   6 C                                       1.3927413
    42   6 C       43   6 C                                       1.3820089
    32   7 N       44   6 C                                       1.3836089
    39   6 C       44   6 C                                       1.4132040
    43   6 C       44   6 C                                       1.3872495
    14   6 C       45   6 C                                       1.3908701
    31   6 C       45   6 C                                       1.3908726
     1   6 C       46   1 H                                       1.0797204
     2   6 C       47   1 H                                       1.0799592
     3   6 C       48   1 H                                       1.0787031
     6   6 C       49   1 H                                       1.0794700
     8   6 C       50   1 H                                       1.0794690
     9   6 C       51   1 H                                       1.0797364
    10   6 C       52   1 H                                       1.0799672
    11   6 C       53   1 H                                       1.0795096
    15   6 C       54   1 H                                       1.0788873
    19   6 C       55   1 H                                       1.0790438
    20   6 C       56   1 H                                       1.0799835
    21   6 C       57   1 H                                       1.0797390
    22   6 C       58   1 H                                       1.0794929
    25   6 C       59   1 H                                       1.0794918
    26   6 C       60   1 H                                       1.0797382
    27   6 C       61   1 H                                       1.0799833
    28   6 C       62   1 H                                       1.0790433
    30   6 C       63   1 H                                       1.0788872
    34   6 C       64   1 H                                       1.0787029
    35   6 C       65   1 H                                       1.0799589
    36   6 C       66   1 H                                       1.0797211
    37   6 C       67   1 H                                       1.0794713
    40   6 C       68   1 H                                       1.0794690
    41   6 C       69   1 H                                       1.0797365
    42   6 C       70   1 H                                       1.0799674
    43   6 C       71   1 H                                       1.0795093
    45   6 C       72   1 H                                       1.0785707 (min)

 * 3 distinct bonds (by element types)

   Z      Z             #   av. dist./Å        max./Å        min./Å
   1 H    6 C          27     1.0794790     1.0799835     1.0785707
   6 C    6 C          45     1.3936697     1.4362777     1.3803959
   6 C    7 N           9     1.3882277     1.4006265     1.3817417

           -------------------------------------------------
          |               Frequency Printout                |
           -------------------------------------------------
 projected vibrational frequencies (cm⁻¹)
eigval :       -0.00    -0.00    -0.00     0.00     0.00     0.00
eigval :       17.01    17.30    21.30    22.98    26.33    32.17
eigval :       54.25    68.93    73.04    96.18    99.46   106.34
eigval :      133.64   138.35   139.83   147.30   149.87   151.95
eigval :      205.69   213.14   233.75   252.62   259.89   270.98
eigval :      271.25   273.16   282.89   286.22   323.74   330.49
eigval :      369.22   371.66   392.26   395.27   396.66   420.58
eigval :      422.21   423.10   434.98   436.65   438.38   457.30
eigval :      512.25   512.35   518.98   520.46   520.82   530.02
eigval :      540.62   540.87   541.32   544.14   561.07   578.15
eigval :      588.16   588.51   594.97   620.94   621.12   640.20
eigval :      648.60   665.94   670.95   673.00   673.53   676.86
eigval :      707.66   708.06   708.86   749.76   750.57   757.04
eigval :      764.75   767.65   768.84   770.83   771.54   778.01
eigval :      779.70   781.25   843.11   860.76   861.66   866.96
eigval :      866.97   873.51   879.19   892.63   896.08   897.17
eigval :      897.44   898.85   899.64   900.05   900.88   903.89
eigval :      905.26   908.30   911.56   919.88   920.40   923.03
eigval :      923.40   924.22   926.79   993.19  1010.54  1011.69
eigval :     1012.80  1036.10  1036.54  1066.29  1068.04  1071.50
eigval :     1072.56  1074.44  1075.11  1117.91  1121.25  1123.30
eigval :     1147.45  1150.99  1153.46  1165.80  1166.03  1175.99
eigval :     1179.18  1179.32  1181.29  1181.71  1182.82  1205.76
eigval :     1225.24  1231.56  1232.06  1235.67  1235.88  1237.46
eigval :     1256.55  1295.26  1296.03  1300.76  1302.29  1303.00
eigval :     1303.02  1317.55  1335.08  1335.70  1358.17  1358.44
eigval :     1359.03  1362.24  1362.83  1363.44  1398.26  1417.57
eigval :     1418.26  1427.09  1427.18  1428.13  1457.10  1458.91
eigval :     1465.63  1475.95  1478.41  1478.75  1488.14  1488.25
eigval :     1488.58  1565.55  1566.37  1575.25  1576.74  1576.76
eigval :     1589.81  1590.00  1591.20  1599.91  1600.37  1601.12
eigval :     1614.99  1615.19  1617.04  3077.97  3078.02  3078.09
eigval :     3078.34  3079.05  3079.12  3083.07  3083.14  3083.45
eigval :     3084.57  3085.36  3085.52  3090.37  3090.39  3091.11
eigval :     3092.42  3094.28  3094.58  3097.12  3097.63  3097.64
eigval :     3098.72  3100.27  3100.29  3106.72  3107.19  3110.33
 reduced masses (amu)
   1: 11.58   2: 11.49   3: 11.36   4: 11.32   5: 11.43   6: 11.51   7: 10.86   8: 10.88
   9: 10.91  10: 10.96  11: 10.93  12: 10.90  13: 10.73  14: 11.17  15: 11.19  16: 10.17
  17: 10.20  18: 10.65  19: 10.72  20:  9.85  21:  9.81  22: 10.03  23: 10.93  24: 10.98
  25: 10.74  26: 10.63  27: 11.37  28: 10.33  29: 10.34  30: 10.23  31: 10.35  32: 10.40
  33: 10.78  34: 11.13  35: 11.44  36: 11.51  37: 11.48  38: 11.61  39:  9.26  40:  9.43
  41:  9.47  42:  9.67  43:  9.83  44:  9.86  45: 10.82  46: 10.73  47: 10.71  48: 10.87
  49: 10.69  50: 10.62  51: 10.91  52: 11.10  53: 11.12  54: 11.00  55: 10.02  56: 10.03
  57: 10.09  58: 11.58  59: 11.68  60: 11.49  61: 11.36  62: 11.35  63: 11.34  64: 11.71
  65: 11.71  66: 11.43  67: 11.25  68: 11.43  69: 10.90  70: 11.54  71: 11.56  72: 11.21
  73: 11.39  74: 11.41  75: 11.43  76: 10.85  77: 10.86  78: 10.79  79:  3.55  80:  3.78
  81:  5.06  82: 11.08  83:  9.68  84:  4.01  85:  4.00  86:  3.99  87:  3.42  88:  3.40
  89:  3.40  90:  3.51  91:  3.50  92:  3.42  93:  3.59  94:  7.46  95:  6.25  96:  9.98
  97: 10.77  98:  8.44  99:  4.49 100:  4.53 101:  9.56 102:  3.98 103:  4.02 104:  3.92
 105:  3.66 106:  3.14 107:  3.12 108:  3.05 109:  2.96 110:  2.99 111:  2.95 112: 11.22
 113: 10.81 114: 10.79 115: 10.83 116: 10.35 117: 10.35 118:  5.76 119:  6.03 120:  5.83
 121:  5.96 122:  6.25 123:  6.31 124:  5.05 125:  5.14 126:  7.73 127:  3.67 128:  3.77
 129:  3.86 130:  4.05 131:  4.00 132:  2.09 133:  1.84 134:  2.13 135:  1.88 136:  1.93
 137:  1.99 138:  5.35 139:  3.26 140:  5.76 141:  5.61 142:  5.65 143:  5.63 144:  5.50
 145:  6.99 146:  7.75 147:  7.61 148:  8.49 149:  8.65 150:  8.81 151:  8.29 152: 11.97
 153: 10.37 154: 10.37 155: 10.92 156: 10.83 157: 11.03 158: 11.24 159: 11.17 160: 11.26
 161:  9.61 162:  9.89 163:  9.80 164:  9.20 165:  9.24 166:  9.21 167: 11.24 168: 11.28
 169: 12.37 170: 10.37 171: 10.55 172: 10.52 173: 10.40 174: 10.40 175: 10.40 176: 11.57
 177: 11.57 178: 11.59 179: 11.62 180: 11.61 181: 11.57 182: 11.57 183: 11.57 184: 11.70
 185: 11.71 186: 11.71 187: 11.71 188: 11.71 189: 11.71 190:  1.75 191:  1.75 192:  1.75
 193:  1.75 194:  1.75 195:  1.75 196:  1.80 197:  1.80 198:  1.80 199:  1.80 200:  1.81
 201:  1.81 202:  1.86 203:  1.86 204:  1.86 205:  1.86 206:  1.87 207:  1.87 208:  1.91
 209:  1.91 210:  1.91 211:  1.91 212:  1.89 213:  1.90 214:  1.83 215:  1.83 216:  1.83
 IR intensities (km·mol⁻¹)
   1:  0.01   2:  0.00   3:  0.01   4:  0.00   5:  0.00   6:  0.00   7:  0.23   8:  0.10
   9:  0.02  10:  0.03  11:  0.01  12:  0.04  13:  0.02  14:  0.58  15:  0.16  16:  0.08
  17:  0.11  18:  0.05  19:  0.00  20:  0.57  21:  0.66  22:  0.00  23:  0.00  24:  0.38
  25:  0.49  26:  0.19  27:  1.04  28:  0.01  29:  1.86  30:  1.86  31:  0.03  32:  4.07
  33:  0.01  34:  1.34  35:  0.31  36:  0.58  37:  1.44  38:  3.13  39:  0.30  40:  1.35
  41:  1.29  42:  1.23  43:  0.38  44:  0.01  45: 10.07  46:  9.75  47:  0.07  48:  0.08
  49:  0.00  50:  0.00  51:  2.92  52:  0.54  53:  0.79  54:  0.54  55:  0.52  56:  0.59
  57:  0.00  58:  0.18  59:  0.00  60:  0.02  61:  0.09  62:  0.67  63:  3.08  64: 11.20
  65: 11.31  66:  2.16  67:  0.00  68:  0.00  69:  0.82  70:  0.21  71:  0.27  72:  2.98
  73:  4.62  74:  5.49  75:  0.17  76:  0.00  77:  0.16  78:  0.02  79:  4.60  80: 39.13
  81: 82.88  82:  5.99  83: 36.76  84:  3.78  85:  0.59  86:  0.09  87:  8.67  88:  0.31
  89:  0.18  90:  0.01  91:  0.05  92:  0.08  93:  0.54  94:  1.27  95:  2.76  96: 11.68
  97:  0.52  98:  0.03  99:  0.98 100:  0.46 101:  0.21 102:  0.15 103:  0.75 104:  0.23
 105:  0.27 106:  0.06 107:  0.03 108:  0.13 109:  0.07 110:  0.00 111:  0.18 112:  0.02
 113:  0.21 114:  2.48 115:  0.13 116:  7.19 117:  7.81 118:  0.06 119:  0.47 120:  0.17
 121:  0.07 122:  0.43 123:  0.02 124:  1.07 125:  1.03 126:  0.01 127:  0.01 128:  1.46
 129: 14.25 130:  2.64 131:  1.99 132: 13.44 133:  3.76 134:  0.01 135:  6.50 136:  8.58
 137: 19.54 138:  0.01 139:  0.16 140:  5.68 141:  2.14 142:  7.56 143:  4.29 144: 37.70
 145:  0.01 146:  0.28 147: 21.15 148: 28.54 149:121.90 150:  5.42 151:  0.08 152:  0.03
 153:212.53 154:183.93 155: 95.74 156: 87.44 157:  7.15 158:  8.05 159: 11.51 160:  0.59
 161:  0.01 162:175.58 163:195.10 164:  0.72 165:  3.83 166: 20.75 167:505.34 168:536.15
 169:  2.41 170: 13.77 171:  5.71 172: 63.07 173:  2.25 174:  3.43 175:  0.73 176:319.09
 177:346.71 178:  0.10 179: 17.46 180: 25.86 181: 13.52 182: 14.15 183:  1.64 184: 14.64
 185: 29.70 186: 61.76 187: 32.21 188: 28.71 189:  2.87 190:  0.43 191:  0.94 192:  0.13
 193:  0.21 194:  1.12 195:  0.01 196: 12.40 197: 30.37 198: 30.57 199:  7.19 200: 44.01
 201:  6.59 202: 44.74 203:  7.61 204: 25.43 205:199.38 206:232.60 207:  1.98 208: 25.11
 209: 80.36 210:130.71 211: 20.34 212: 58.02 213:  6.98 214: 10.38 215:  6.02 216:  6.57
 Raman intensities (Ä⁴*amu⁻¹)
   1:  0.00   2:  0.00   3:  0.00   4:  0.00   5:  0.00   6:  0.00   7:  0.00   8:  0.00
   9:  0.00  10:  0.00  11:  0.00  12:  0.00  13:  0.00  14:  0.00  15:  0.00  16:  0.00
  17:  0.00  18:  0.00  19:  0.00  20:  0.00  21:  0.00  22:  0.00  23:  0.00  24:  0.00
  25:  0.00  26:  0.00  27:  0.00  28:  0.00  29:  0.00  30:  0.00  31:  0.00  32:  0.00
  33:  0.00  34:  0.00  35:  0.00  36:  0.00  37:  0.00  38:  0.00  39:  0.00  40:  0.00
  41:  0.00  42:  0.00  43:  0.00  44:  0.00  45:  0.00  46:  0.00  47:  0.00  48:  0.00
  49:  0.00  50:  0.00  51:  0.00  52:  0.00  53:  0.00  54:  0.00  55:  0.00  56:  0.00
  57:  0.00  58:  0.00  59:  0.00  60:  0.00  61:  0.00  62:  0.00  63:  0.00  64:  0.00
  65:  0.00  66:  0.00  67:  0.00  68:  0.00  69:  0.00  70:  0.00  71:  0.00  72:  0.00
  73:  0.00  74:  0.00  75:  0.00  76:  0.00  77:  0.00  78:  0.00  79:  0.00  80:  0.00
  81:  0.00  82:  0.00  83:  0.00  84:  0.00  85:  0.00  86:  0.00  87:  0.00  88:  0.00
  89:  0.00  90:  0.00  91:  0.00  92:  0.00  93:  0.00  94:  0.00  95:  0.00  96:  0.00
  97:  0.00  98:  0.00  99:  0.00 100:  0.00 101:  0.00 102:  0.00 103:  0.00 104:  0.00
 105:  0.00 106:  0.00 107:  0.00 108:  0.00 109:  0.00 110:  0.00 111:  0.00 112:  0.00
 113:  0.00 114:  0.00 115:  0.00 116:  0.00 117:  0.00 118:  0.00 119:  0.00 120:  0.00
 121:  0.00 122:  0.00 123:  0.00 124:  0.00 125:  0.00 126:  0.00 127:  0.00 128:  0.00
 129:  0.00 130:  0.00 131:  0.00 132:  0.00 133:  0.00 134:  0.00 135:  0.00 136:  0.00
 137:  0.00 138:  0.00 139:  0.00 140:  0.00 141:  0.00 142:  0.00 143:  0.00 144:  0.00
 145:  0.00 146:  0.00 147:  0.00 148:  0.00 149:  0.00 150:  0.00 151:  0.00 152:  0.00
 153:  0.00 154:  0.00 155:  0.00 156:  0.00 157:  0.00 158:  0.00 159:  0.00 160:  0.00
 161:  0.00 162:  0.00 163:  0.00 164:  0.00 165:  0.00 166:  0.00 167:  0.00 168:  0.00
 169:  0.00 170:  0.00 171:  0.00 172:  0.00 173:  0.00 174:  0.00 175:  0.00 176:  0.00
 177:  0.00 178:  0.00 179:  0.00 180:  0.00 181:  0.00 182:  0.00 183:  0.00 184:  0.00
 185:  0.00 186:  0.00 187:  0.00 188:  0.00 189:  0.00 190:  0.00 191:  0.00 192:  0.00
 193:  0.00 194:  0.00 195:  0.00 196:  0.00 197:  0.00 198:  0.00 199:  0.00 200:  0.00
 201:  0.00 202:  0.00 203:  0.00 204:  0.00 205:  0.00 206:  0.00 207:  0.00 208:  0.00
 209:  0.00 210:  0.00 211:  0.00 212:  0.00 213:  0.00 214:  0.00 215:  0.00 216:  0.00
 output can be read by thermo (or use thermo option).
 writing <g98.out> molden fake output.
 recommended (thermochemical) frequency scaling factor: 1.0
           -------------------------------------------------
          |             Thermodynamic Functions             |
           -------------------------------------------------

Molecule has the following symmetry elements: (C2) 
It seems to be the C2 point group
c2  symmetry found (for desy threshold:  0.10E+00) used in thermo

          ...................................................
          :                      SETUP                      :
          :.................................................:
          :  # frequencies                         210      :
          :  # imaginary freq.                       0      :
          :  linear?                             false      :
          :  only rotor calc.                    false      :
          :  symmetry                               c2      :
          :  rotational number                       2      :
          :  scaling factor                  1.0000000      :
          :  rotor cutoff                   50.0000000 cm⁻¹ :
          :  imag. cutoff                  -20.0000000 cm⁻¹ :
          :.................................................:

    mode    ω/cm⁻¹     T·S(HO)/kcal·mol⁻¹    T·S(FR)/kcal·mol⁻¹   T·S(vib)
   ------------------------------------------------------------------------
       1     17.01    -2.07395 (  1.32%)    -1.37598 ( 98.68%)    -1.38520
       2     17.30    -2.06368 (  1.41%)    -1.37084 ( 98.59%)    -1.38064
       3     21.30    -1.94070 (  3.19%)    -1.30931 ( 96.81%)    -1.32944
       4     22.98    -1.89571 (  4.27%)    -1.28680 ( 95.73%)    -1.31282
       5     26.33    -1.81525 (  7.14%)    -1.24652 ( 92.86%)    -1.28713
       6     32.17    -1.69671 ( 14.63%)    -1.18716 ( 85.37%)    -1.26172
       7     54.25    -1.38820 ( 58.09%)    -1.03236 ( 41.91%)    -1.23907
       8     68.93    -1.24732 ( 78.32%)    -0.96141 ( 21.68%)    -1.18534
       9     73.04    -1.21340 ( 81.99%)    -0.94428 ( 18.01%)    -1.16494
      10     96.18    -1.05254 ( 93.19%)    -0.86274 (  6.81%)    -1.03962
      11     99.46    -1.03304 ( 94.00%)    -0.85280 (  6.00%)    -1.02222
      12    106.34    -0.99423 ( 95.34%)    -0.83300 (  4.66%)    -0.98672
      13    133.64    -0.86254 ( 98.08%)    -0.76530 (  1.92%)    -0.86067
      14    138.35    -0.84276 ( 98.32%)    -0.75505 (  1.68%)    -0.84129
      15    139.83    -0.83668 ( 98.39%)    -0.75190 (  1.61%)    -0.83532
      16    147.30    -0.80705 ( 98.69%)    -0.73648 (  1.31%)    -0.80613
      17    149.87    -0.79723 ( 98.78%)    -0.73136 (  1.22%)    -0.79642
      18    151.95    -0.78942 ( 98.84%)    -0.72727 (  1.16%)    -0.78870
      19    205.69    -0.62064 ( 99.65%)    -0.63756 (  0.35%)    -0.62069
      20    213.14    -0.60125 ( 99.70%)    -0.62702 (  0.30%)    -0.60133
      21    233.75    -0.55157 ( 99.79%)    -0.59968 (  0.21%)    -0.55167
      22    252.62    -0.51050 ( 99.85%)    -0.57667 (  0.15%)    -0.51060
      23    259.89    -0.49567 ( 99.86%)    -0.56827 (  0.14%)    -0.49577
      24    270.98    -0.47403 ( 99.88%)    -0.55589 (  0.12%)    -0.47413
      25    271.25    -0.47353 ( 99.88%)    -0.55560 (  0.12%)    -0.47363
      26    273.16    -0.46992 ( 99.89%)    -0.55352 (  0.11%)    -0.47001
      27    282.89    -0.45203 ( 99.90%)    -0.54315 (  0.10%)    -0.45211
      28    286.22    -0.44610 ( 99.91%)    -0.53968 (  0.09%)    -0.44618
   ------------------------------------------------------------------------

   temp. (K)  partition function   enthalpy   heat capacity  entropy
                                   cal/mol     cal/K/mol   cal/K/mol   J/K/mol
 298.15  VIB  0.188E+15            19371.912    127.709    117.455
         ROT  0.306E+08              888.752      2.981     37.232
         INT  0.573E+22            20260.665    130.690    154.687
         TR   0.133E+29             1481.254      4.968     44.905
         TOT                       21741.9187   135.6584   199.5919   835.0926

       T/K    H(0)-H(T)+PV         H(T)/Eh          T*S/Eh         G(T)/Eh
   ------------------------------------------------------------------------
    298.15    0.346480E-01    0.587782E+00    0.948326E-01    0.492950E+00
   ------------------------------------------------------------------------

         :::::::::::::::::::::::::::::::::::::::::::::::::::::
         ::                  THERMODYNAMIC                  ::
         :::::::::::::::::::::::::::::::::::::::::::::::::::::
         :: total free energy        -112.092491004130 Eh   ::
         ::.................................................::
         :: total energy             -112.585440690164 Eh   ::
         :: zero point energy           0.553134296651 Eh   ::
         :: G(RRHO) w/o ZPVE           -0.060184610617 Eh   ::
         :: G(RRHO) contrib.            0.492949686034 Eh   ::
         :::::::::::::::::::::::::::::::::::::::::::::::::::::

optimized geometry written to: xtbopt.xyz


           -------------------------------------------------
          | TOTAL ENERGY             -112.585440690164 Eh   |
          | TOTAL ENTHALPY           -111.997658440633 Eh   |
          | TOTAL FREE ENERGY        -112.092491004130 Eh   |
          | GRADIENT NORM               0.000057567806 Eh/α |
          | HOMO-LUMO GAP               3.057950129006 eV   |
           -------------------------------------------------

------------------------------------------------------------------------
 * finished run on 2025/09/09 at 06:00:06.013     
------------------------------------------------------------------------
 total:
 * wall-time:     0 d,  0 h,  0 min,  5.774 sec
 *  cpu-time:     0 d,  0 h,  3 min, 34.547 sec
 * ratio c/w:    37.156 speedup
 SCF:
 * wall-time:     0 d,  0 h,  0 min,  0.135 sec
 *  cpu-time:     0 d,  0 h,  0 min,  5.264 sec
 * ratio c/w:    38.916 speedup
 ANC optimizer:
 * wall-time:     0 d,  0 h,  0 min,  2.470 sec
 *  cpu-time:     0 d,  0 h,  1 min, 38.793 sec
 * ratio c/w:    39.995 speedup
 analytical hessian:
 * wall-time:     0 d,  0 h,  0 min,  2.976 sec
 *  cpu-time:     0 d,  0 h,  1 min, 43.301 sec
 * ratio c/w:    34.706 speedup

