$hessian                                                                        
        0.4987958318   0.0031635441   0.0313905729  -0.1178088602   0.0071737276
        0.0669971979  -0.0260458674   0.0027815398   0.0259447613  -0.0022682115
       -0.0003007788  -0.0043533953  -0.0017497689   0.0001836120   0.0009064217
        0.0000051187  -0.0005443030   0.0001533046   0.0001330281   0.0000851381
       -0.0000375619  -0.0000405028  -0.0000384011   0.0000219675   0.0000034994
        0.0000612236  -0.0000249603  -0.0000768411  -0.0000114168  -0.0000123080
       -0.0000559587   0.0000842581  -0.0000715544   0.0002973459  -0.0000537530
        0.0001270402  -0.0001539148   0.0000094698  -0.0000423698  -0.0001572704
        0.0000280939  -0.0000087781  -0.0000730812  -0.0000590689  -0.0000660911
       -0.0000664580   0.0000285896   0.0000033180  -0.0000265496  -0.0000571886
       -0.0000063286  -0.0000086948   0.0000620828  -0.0000185555   0.0001144778
       -0.0001337009  -0.0000662056   0.0000980405   0.0005136330   0.0002023567
        0.0004254112   0.0000939706   0.0015726499   0.0000528555   0.0000530782
        0.0001053661  -0.0005693014  -0.0003587372  -0.0034545009   0.0060493264
       -0.0002062875  -0.0014429379   0.0004428975  -0.0000106523  -0.0008330518
       -0.0001253295   0.0003002225  -0.0005030045   0.0000201897   0.0001195094
       -0.0000539967  -0.0001000865  -0.0000809652   0.0000614950   0.0001743363
       -0.0002082188   0.0000033031  -0.0000873796   0.0003095862  -0.0001228082
        0.0002001715   0.0000071970  -0.0000716285   0.0000549754   0.0000091659
        0.0000776368   0.0001178625   0.0000204623   0.0001332608   0.0000142806
        0.0000077426  -0.0000022621   0.0003458581  -0.0000525636  -0.0000640964
       -0.0000756311  -0.0002608827  -0.0000943166   0.0002925264   0.0001433294
       -0.0000124368  -0.0002607019   0.0001144829   0.0000487504  -0.0000014348
       -0.0001837090  -0.0000307064  -0.0002024919  -0.0004145282  -0.0004321598
       -0.1154651281   0.1089091087  -0.0120951938  -0.1195198056  -0.0091396105
       -0.1130763286  -0.1236093266  -0.1121963878   0.0082275240   0.0009787546
        0.0000561108   0.0014782398  -0.0000793381  -0.0000940859   0.0000694910
       -0.0000228319  -0.0000088055   0.0000091659   0.0000052595   0.0000033818
        0.0000101116  -0.0000071665   0.0000074946   0.0000000016  -0.0000011278
       -0.0000081635  -0.0000042262  -0.0000088014   0.0000069560   0.0000064479
       -0.0000246745  -0.0000067304   0.0000036804  -0.0000924347   0.0001061900
        0.0000818460   0.0000131950  -0.0000214002   0.0000227872  -0.0000972386
        0.0000672258   0.0000730988  -0.0000578795  -0.0000091665   0.0000694308
        0.0002824683  -0.0000761895  -0.0006255567   0.0000267581   0.0000133852
        0.0000056451  -0.0000336476  -0.0000122921   0.0000167000   0.0000180226
        0.0000124586  -0.0000122076   0.0000288247  -0.0000049033   0.0000157821
        0.0000012363  -0.0000011959  -0.0000791609  -0.0000149627  -0.0000158537
       -0.0000288855  -0.0000146310   0.0000120364  -0.0000330102  -0.0000064504
        0.0000124591  -0.0000144528  -0.0000091904  -0.0000152364  -0.0000147969
       -0.0000127411  -0.0000045402  -0.0000403504   0.0000235036   0.0000089099
        0.0000127846   0.0000098005   0.0000013912  -0.0000172083  -0.0000231320
        0.0000286787   0.0000074542   0.0000289882  -0.0000097288   0.0000077995
        0.0031635441   0.4857763265   0.0007913973   0.0083713935  -0.0596001231
       -0.0105077888   0.0005349778   0.0019511050  -0.0007799347   0.0001157102
        0.0075026713  -0.0003616852  -0.0001989701  -0.0000166938  -0.0000484869
       -0.0000410700  -0.0000056527  -0.0000854727   0.0000101988   0.0000269247
       -0.0000037075   0.0000141501   0.0000106571  -0.0000098102  -0.0000011802
        0.0000119919  -0.0000042026   0.0000001044   0.0000096812   0.0000155559
       -0.0000219487   0.0000090907  -0.0000024074   0.0000044172  -0.0000685943
       -0.0000543677   0.0000071259   0.0000213982   0.0000411066   0.0000005534
        0.0000170384   0.0000092056  -0.0000662514   0.0000252628   0.0000339247
        0.0000010567  -0.0000225089  -0.0000079419  -0.0000803163   0.0000040275
        0.0000181863   0.0000749903   0.0000113642   0.0000088882   0.0000127908
        0.0000006499   0.0000066513   0.0000957690  -0.0000027410   0.0000673316
       -0.0001148323   0.0000346251  -0.0002413591  -0.0000440822  -0.0012956116
        0.0001726524  -0.0001943675   0.0053995797  -0.0006701221   0.0010339503
        0.0007160715  -0.0038109943   0.0001625456  -0.0019237360   0.0001876124
       -0.0007564721  -0.0000019804  -0.0002937610   0.0000943856  -0.0001850303
        0.0000758026  -0.0000603514   0.0000265929  -0.0000304813   0.0001384334
       -0.0002218868   0.0000364982  -0.0001006191   0.0002297003   0.0000127554
       -0.0000532494  -0.0001785824  -0.0000428091  -0.0000098949   0.0000013469
       -0.0000032718  -0.0000063481  -0.0000549827  -0.0000055148  -0.0000021088
       -0.0000012748  -0.0000031453   0.0000191628  -0.0001381927   0.0000698330
        0.0001131786   0.0002618604  -0.0000475857  -0.0001993372  -0.0002225088
        0.0000107625   0.0001109272   0.0000133662   0.0000135875  -0.0000834139
       -0.0001586751   0.0000026501   0.0008502603  -0.0000281166   0.0002497372
        0.1105240990  -0.1987881955   0.0142854043  -0.0091864701  -0.0454427150
       -0.0132050280  -0.1141849968  -0.1912904835   0.0138759029  -0.0001830361
       -0.0025748275   0.0003375289  -0.0000505298   0.0000533244   0.0000430370
       -0.0000014723   0.0000032570   0.0000002923   0.0000061293   0.0000011459
       -0.0000030979   0.0000011547  -0.0000026243  -0.0000007366   0.0000020563
        0.0000043315  -0.0000011118  -0.0000030287   0.0000070424  -0.0000051049
        0.0000030912   0.0000208120   0.0000011139   0.0000812727   0.0000711438
       -0.0000450691  -0.0000946301   0.0000196671   0.0001302510   0.0001869469
       -0.0000738792  -0.0002113936  -0.0000047631  -0.0000139935   0.0000859579
        0.0000485140  -0.0000439810  -0.0000707752  -0.0000350508   0.0000267240
        0.0000125691  -0.0000001164   0.0000024871  -0.0000168344  -0.0000130169
        0.0000034639  -0.0000106439   0.0000009437  -0.0000041889  -0.0000126407
       -0.0000010215   0.0000848955  -0.0000016472   0.0000237276  -0.0000150289
        0.0000056828  -0.0000250621  -0.0000118206   0.0000015575  -0.0000068117
       -0.0000021091  -0.0000003677   0.0000060752  -0.0000019914  -0.0000016977
        0.0000024733   0.0000038743   0.0000043203  -0.0000074763   0.0000019864
        0.0000092565   0.0000085703   0.0000116714   0.0000093818  -0.0000011608
        0.0000135181   0.0000088665   0.0000087771   0.0000020532  -0.0000342630
        0.0313905729   0.0007913973   0.4991674814   0.0763788200  -0.0110478072
       -0.1636084254   0.0054189852  -0.0004935471  -0.0024050891  -0.0008269144
       -0.0004528691   0.0027476993   0.0000059097  -0.0000089853   0.0000665062
        0.0001665238   0.0001286281  -0.0000576557  -0.0000184272  -0.0000373556
        0.0000187725   0.0001792073   0.0000624468  -0.0000179759  -0.0001971247
       -0.0000083815   0.0000199896  -0.0000017360   0.0001040379  -0.0000035969
       -0.0002347631  -0.0001232917   0.0000382243  -0.0000546886   0.0000785506
       -0.0001311240   0.0000617372  -0.0000396309   0.0000989895   0.0000639351
        0.0000011581   0.0000212323  -0.0001154843   0.0000400815   0.0000067042
        0.0000016308  -0.0000232895   0.0000201811  -0.0000717330  -0.0000175829
        0.0000148975   0.0000859651  -0.0000571766  -0.0000382841  -0.0000095073
        0.0000154736   0.0000046106   0.0000434448  -0.0000817687  -0.0000511783
       -0.0007855942  -0.0001203654  -0.0015279019   0.0000454012   0.0001512000
        0.0000712139  -0.0026617866  -0.0007583370  -0.0026906598   0.0117275402
       -0.0035840191  -0.0333552617   0.0019451008   0.0000608582  -0.0004863473
        0.0003638728   0.0004113177  -0.0002020469  -0.0000763436   0.0001425633
        0.0001245638  -0.0000430195   0.0000134745  -0.0000513621   0.0000321330
        0.0000870530  -0.0000073304   0.0000117956  -0.0001211407   0.0000612423
        0.0003263371  -0.0000029874   0.0000050688  -0.0000332916  -0.0000012185
       -0.0000230683  -0.0000024774  -0.0000052385  -0.0000984812   0.0000032346
       -0.0000011017   0.0000119462   0.0002365715   0.0000439352  -0.0000134467
       -0.0000222333   0.0000113981   0.0000642392  -0.0000179411   0.0000462528
        0.0000051725   0.0000581156  -0.0000504918  -0.0000505287  -0.0000555295
       -0.0000410346   0.0001084398   0.0002136109  -0.0004130504  -0.0002142948
       -0.0148122469   0.0166321805  -0.0437370809  -0.1135889546  -0.0131693530
       -0.2100602011   0.0058206099   0.0117181617  -0.0434983185  -0.0016093124
        0.0003840138   0.0012138771   0.0000779079   0.0000236092  -0.0000347854
        0.0000083382  -0.0000359773  -0.0000021894   0.0000170365  -0.0000115227
       -0.0000107334   0.0000071976  -0.0000198640  -0.0000074650   0.0000203803
        0.0000132187  -0.0000029240   0.0000118481   0.0000181464  -0.0000097215
       -0.0000012141   0.0000204520   0.0000027091   0.0000824809  -0.0000361287
       -0.0000034480   0.0000312691  -0.0000004405  -0.0000453063   0.0000170016
       -0.0000187304  -0.0000228888  -0.0000015188  -0.0000250775   0.0000464140
        0.0007509625  -0.0001447031  -0.0012434250  -0.0000881241   0.0000378449
       -0.0001110785  -0.0000101517  -0.0000598510  -0.0000186251  -0.0000292925
       -0.0000306701   0.0000035448  -0.0000435921  -0.0000267114  -0.0000100976
        0.0000118007  -0.0000083037   0.0000246312  -0.0000181990  -0.0000074308
        0.0000176121  -0.0000134672   0.0000116122   0.0000170199  -0.0000106525
       -0.0000036578  -0.0000144003  -0.0000111347  -0.0000004769  -0.0000144595
        0.0000153058   0.0000006975   0.0000291701  -0.0000394244   0.0000241792
       -0.0000180713  -0.0000290783   0.0000294177  -0.0000054884  -0.0000064597
        0.0000518496  -0.0000310434  -0.0000911657  -0.0000656404  -0.0000963428
       -0.1178088602   0.0083713935   0.0763788200   0.6353565915  -0.0083790710
       -0.0361847035  -0.3247789211  -0.0020725970  -0.0448649846  -0.0499776563
        0.0030515216   0.0334816251  -0.0035087076   0.0007645293   0.0012280165
       -0.0030705853  -0.0038422502   0.0009330318   0.0003237962   0.0014746172
       -0.0003134597  -0.0015377113  -0.0008436182   0.0001984731   0.0022941056
        0.0003903138  -0.0005002678  -0.0001953530  -0.0013911489   0.0004093603
        0.0014928185   0.0015887133  -0.0010172363   0.0003748885  -0.0002888440
        0.0020305478  -0.0010204438   0.0001298014  -0.0013527456  -0.0002406523
       -0.0000246233  -0.0001948453   0.0013801516  -0.0010013805  -0.0009851246
       -0.0002820617   0.0007945508   0.0002594373   0.0021650603  -0.0000427365
       -0.0004633300  -0.0016437854   0.0004029992   0.0001265333   0.0009672735
       -0.0000316173  -0.0002190814  -0.0027938420   0.0031394120   0.0014536474
       -0.0048265093  -0.0007757402   0.0007234656  -0.0003369782   0.0003283143
        0.0002458837   0.0294182142  -0.0013597480  -0.0176705279  -0.0881615100
       -0.0001951067  -0.0067253207  -0.0337774388  -0.0031506304  -0.0284273951
        0.0040220503   0.0048019592  -0.0000145758   0.0012401183  -0.0055749259
        0.0000162352   0.0065472151   0.0025942159   0.0000197328  -0.0037320298
       -0.0031136999   0.0004339009  -0.0003118310   0.0051283577  -0.0011574731
       -0.0088130215  -0.0024125993   0.0009591245   0.0007889283  -0.0000539624
       -0.0003233728  -0.0001381726  -0.0000027827  -0.0000214208  -0.0001229969
        0.0000206280   0.0001502866  -0.0083005710   0.0025345301   0.0003633325
       -0.0004030068  -0.0049876942  -0.0000109671  -0.0035493390   0.0030654575
       -0.0002820248   0.0061431697  -0.0025751897   0.0004463086   0.0012620049
        0.0051385429  -0.0011751821   0.0038024285  -0.0042794750   0.0005160601
       -0.0155177552   0.0047887111   0.0160451928   0.0094563328  -0.0011754873
       -0.0111668903  -0.0161332803  -0.0010770994   0.0170805688  -0.0153844190
       -0.0001782446  -0.0049133437  -0.0001497046  -0.0001093648   0.0002152928
       -0.0000847071   0.0000254527  -0.0000629470   0.0000149672  -0.0000001943
        0.0000741421  -0.0000850678   0.0001591270   0.0000012758  -0.0000488220
       -0.0001572763  -0.0000096334   0.0000295078   0.0000027740   0.0001756304
       -0.0001145521  -0.0000712860  -0.0000379527  -0.0005041252  -0.0002921186
        0.0003077470   0.0002019452  -0.0002614247   0.0004091409  -0.0004324143
        0.0006058742   0.0005359406   0.0000377889  -0.0000659190   0.0000591540
       -0.0016178345   0.0004357279   0.0036998489   0.0003159470  -0.0015421031
       -0.0003387009   0.0002943806   0.0002277345   0.0000722667   0.0002585530
        0.0001446099  -0.0001632020   0.0000701577  -0.0000069286  -0.0000817095
        0.0000403049  -0.0000087429   0.0000707717   0.0000530152  -0.0000144599
       -0.0000362642   0.0000651731  -0.0000050685  -0.0000524805   0.0000184960
       -0.0000232484   0.0000435159   0.0000140523   0.0000409407   0.0000448172
        0.0000425278   0.0000152754   0.0001021042   0.0000815628  -0.0000156835
       -0.0000618531   0.0002665985  -0.0000579265  -0.0000692563   0.0002722869
       -0.0002201400   0.0001571011   0.0002922546   0.0015160726  -0.0005700611
        0.0071737276  -0.0596001231  -0.0110478072  -0.0083790710   0.1403382022
        0.0423354627   0.0051935925  -0.0426583705  -0.0018441193   0.0011336407
       -0.0021471930  -0.0020581779   0.0011395533   0.0063203569  -0.0008031506
       -0.0016632544  -0.0001126284   0.0004903520  -0.0000683252  -0.0000168810
        0.0000038080  -0.0003297254  -0.0001428149   0.0000940804   0.0004639053
        0.0000567339  -0.0001145286  -0.0000865959  -0.0003628884   0.0000374640
        0.0002314068   0.0005166393  -0.0002066575  -0.0000575961   0.0000485185
        0.0002265060  -0.0000590000   0.0000078885  -0.0001647303   0.0000143341
       -0.0000289863  -0.0000357199   0.0004186109   0.0002649513   0.0000590191
        0.0001180759  -0.0001130727  -0.0000057979   0.0001409988   0.0000852852
       -0.0000054701  -0.0002790133  -0.0000975399   0.0000148404  -0.0000957981
       -0.0001732809  -0.0000147907   0.0009229000  -0.0000820649  -0.0005134171
        0.0007210927  -0.0022439519   0.0025440081   0.0000593536  -0.0001802705
       -0.0000889113   0.0014788409   0.0001288416  -0.0074666101  -0.0079478288
       -0.0433717885  -0.0164673261  -0.0018994010  -0.0012636105   0.0000583844
        0.0002693254   0.0017773683   0.0009739117   0.0002034073  -0.0019742435
       -0.0000577545   0.0009153577   0.0007540342   0.0002147073  -0.0001556281
       -0.0008657180   0.0001866213  -0.0001470739   0.0015610396  -0.0003234636
       -0.0017375315  -0.0007895346   0.0004574181   0.0000851093  -0.0001171355
        0.0000744570   0.0000048172   0.0001017434  -0.0000060002   0.0000077797
       -0.0000162050  -0.0000026474   0.0010827911  -0.0009236625  -0.0005131938
        0.0002139445   0.0012978227  -0.0000197733  -0.0002289612  -0.0008254250
       -0.0000744127  -0.0002633316   0.0005229887  -0.0002454728  -0.0002938968
       -0.0018380176   0.0003695857   0.0006970405   0.0012807855  -0.0011325533
        0.0160143864  -0.0021134030  -0.0199223664   0.0010466604   0.0000255835
       -0.0023618429  -0.0138351951   0.0028048382   0.0187523192  -0.0024228293
        0.0004490008  -0.0006200265   0.0001892215  -0.0001738315  -0.0000127556
        0.0000080627   0.0000132687  -0.0000093282  -0.0000080252   0.0000106513
        0.0000123292  -0.0000253712   0.0000359366  -0.0000018891   0.0000048570
        0.0000160246  -0.0000020001  -0.0000028284  -0.0000055790   0.0000029650
       -0.0000099959  -0.0000137878   0.0000054486  -0.0003087433  -0.0000973591
       -0.0000013841  -0.0000221399  -0.0000350885   0.0000816544  -0.0000497746
        0.0000860860   0.0000230463  -0.0000510620   0.0000273126   0.0000539058
        0.0003729991   0.0058975353  -0.0010776343  -0.0005186767  -0.0012301922
       -0.0007443253   0.0000338818   0.0000129205  -0.0000359830   0.0000250351
        0.0000037718  -0.0000965003  -0.0000015320  -0.0000089279  -0.0000315096
        0.0000061173  -0.0000373218  -0.0000097761  -0.0000361603   0.0000131527
        0.0000130284   0.0000383404   0.0000107224  -0.0000187254   0.0000223204
        0.0000109743   0.0000097798  -0.0000197334   0.0000110487  -0.0000001481
       -0.0000029127  -0.0000116353  -0.0000023312   0.0000155409  -0.0000106987
        0.0000591673   0.0000106587   0.0000081930   0.0000671775   0.0000013400
       -0.0000150811   0.0000583444   0.0005279845  -0.0008019077   0.0008812206
        0.0669971979  -0.0105077888  -0.1636084254  -0.0361847035   0.0423354627
        0.5592310960   0.0239457028  -0.0021206990  -0.0657948997   0.0149342345
       -0.0020697662  -0.0204076495   0.0022732640  -0.0011831317  -0.0037379828
       -0.0012246837  -0.0026523156   0.0001578722   0.0002449786   0.0014916643
       -0.0003104457  -0.0013748198  -0.0006029262   0.0001854051   0.0017362880
        0.0003871262  -0.0004055501  -0.0000985727  -0.0010230612   0.0003359274
        0.0012029863   0.0007020379  -0.0007087337   0.0005494047  -0.0001724215
        0.0014457613  -0.0009023515   0.0000672146  -0.0008470440  -0.0003998734
        0.0000026450  -0.0001485814   0.0011586236  -0.0006309058  -0.0006280897
       -0.0002618913   0.0007602460   0.0002857431   0.0017418896  -0.0002295108
       -0.0004288523  -0.0014970354   0.0003817481   0.0000881687   0.0005066350
       -0.0005808801  -0.0003503883  -0.0017460709   0.0023300819   0.0009843169
        0.0050936513   0.0015089789   0.0217548905   0.0007131409   0.0000240952
       -0.0007537040   0.0198948231  -0.0075561707  -0.0738995479  -0.0889098473
       -0.0160136280  -0.2080313901  -0.0181380448  -0.0004865592  -0.0030394189
        0.0049849552   0.0019407559   0.0002766259   0.0004922931  -0.0024321311
       -0.0000202324   0.0045120969   0.0013992621   0.0002110773  -0.0025752843
       -0.0015572069   0.0001864426  -0.0000894275   0.0026296016  -0.0009814288
       -0.0050661828  -0.0007058058  -0.0005864955   0.0006547287   0.0000314824
        0.0004853754  -0.0000719281   0.0000020128   0.0001122161  -0.0000738229
        0.0000094220  -0.0000957473  -0.0049419103   0.0007417074  -0.0007720615
       -0.0001641728  -0.0028642397  -0.0002821376  -0.0023932568   0.0017056019
       -0.0002551573   0.0042616471  -0.0014673103   0.0005024583   0.0004888611
        0.0024759327  -0.0007406924   0.0046981232  -0.0017771511   0.0006733390
        0.0070982144  -0.0041267616  -0.0004538698   0.0132594589  -0.0028608953
       -0.0273497538   0.0099096040   0.0032189369  -0.0047816450  -0.0268400887
       -0.0003444186  -0.0059879752   0.0000292663  -0.0004432478   0.0002698102
       -0.0000765136   0.0000031558  -0.0000379255   0.0000132312   0.0000092939
        0.0000715312  -0.0000577565   0.0000922131  -0.0000282032   0.0000009445
       -0.0001093112  -0.0000388737   0.0000153432   0.0000245563   0.0001627582
       -0.0001417865  -0.0000967234  -0.0000196455  -0.0001623556   0.0003641065
        0.0004287502  -0.0001340455  -0.0003389231   0.0005460695  -0.0009729977
        0.0009976295   0.0006748080  -0.0001400449   0.0000176699   0.0004319007
        0.0024394849  -0.0010206264  -0.0029734160  -0.0002151156  -0.0019583762
       -0.0002509648   0.0001688503   0.0002619767   0.0000842842   0.0002597938
        0.0001800111  -0.0001972927   0.0001502282   0.0000564183   0.0000808828
        0.0000743432  -0.0000197687  -0.0001473331   0.0000362478  -0.0000304541
       -0.0000220160   0.0000400013   0.0000098577  -0.0000366917   0.0000292813
        0.0000200208   0.0000500787   0.0000255602  -0.0000073495   0.0000560135
       -0.0000040138   0.0000053723   0.0000026799   0.0001539809  -0.0000502495
        0.0000990983   0.0002609920  -0.0000809563  -0.0001195983   0.0001606106
       -0.0002423658   0.0001535328  -0.0003523642   0.0021757389  -0.0007490535
       -0.0260458674   0.0005349778   0.0054189852  -0.3247789211   0.0051935925
        0.0239457028   0.6523248525  -0.0016667310   0.0294534228  -0.1358464386
        0.0077547462   0.0612469662  -0.0325304638   0.0029599126   0.0224567230
        0.0006691348   0.0034523625   0.0013423182  -0.0005001936  -0.0024133743
        0.0004739599   0.0019482282   0.0011075228  -0.0002644027  -0.0026008755
       -0.0001975351   0.0003743160  -0.0001569881   0.0011187963  -0.0005704661
       -0.0030786420  -0.0008417920   0.0007610249  -0.0001773228   0.0007899255
       -0.0028298089   0.0014114829  -0.0003369170   0.0017292908   0.0004107264
        0.0000250134   0.0002944343  -0.0021518936   0.0002835211   0.0006782684
       -0.0000241523  -0.0001223773  -0.0003513017  -0.0020266079  -0.0003882868
        0.0004159129   0.0016794998  -0.0007633789  -0.0004458680  -0.0015898482
        0.0000334839   0.0004880160   0.0018351287  -0.0023869633   0.0008297097
        0.0345432882   0.0022470375   0.0266815228  -0.0004209155  -0.0005909460
       -0.0034488404  -0.0272917401   0.0003241709   0.0096395000  -0.0396648279
       -0.0072846691  -0.0743547786   0.0014567995   0.0001228232  -0.0022094522
       -0.0066781184  -0.0027084533  -0.0005106465  -0.0008610401   0.0074799301
       -0.0007391387  -0.0082356569  -0.0032295641   0.0002301387   0.0045797722
        0.0039059459  -0.0006763821   0.0002552910  -0.0063181727   0.0009346651
        0.0104086892   0.0025942044  -0.0001837271  -0.0007976276  -0.0000186449
       -0.0001965413   0.0002090808   0.0000298996   0.0001000565   0.0001795735
       -0.0000088049  -0.0000856968   0.0101683548  -0.0027773257   0.0004817194
        0.0004162488   0.0062679481  -0.0005369042   0.0044424540  -0.0038318108
        0.0003326814  -0.0078868025   0.0034178498  -0.0003662738  -0.0010111922
       -0.0074123433   0.0008901971  -0.0065227565   0.0026672308  -0.0008253238
       -0.0007841885  -0.0003707230   0.0014686385   0.0007361330  -0.0002363031
       -0.0020772135  -0.0009109958   0.0006204525   0.0015758302  -0.0921020885
       -0.0085447424  -0.0998094100  -0.0000026601   0.0021248196  -0.0000300590
        0.0001942905  -0.0000988375   0.0000342710   0.0000655831   0.0000412168
       -0.0000537450   0.0000338827  -0.0001682940   0.0000048537   0.0000601581
        0.0001666173   0.0000062981   0.0000833369  -0.0000329656  -0.0001736529
        0.0002034968   0.0001698741   0.0000429120  -0.0002216879  -0.0027388561
       -0.0002848766  -0.0008220676   0.0000605408  -0.0004674846  -0.0004527198
       -0.0001294431  -0.0004348703   0.0001669347   0.0000397813  -0.0008724332
        0.0000407249   0.0003219023   0.0003700371  -0.0003132951   0.0010162926
        0.0000094329  -0.0003381778  -0.0002683063   0.0000355904  -0.0003827558
       -0.0002931032   0.0001478147  -0.0001093119  -0.0000022411   0.0000465499
       -0.0000287224   0.0000094828  -0.0000082846  -0.0000294299  -0.0000197851
       -0.0000039388  -0.0000332073   0.0000277598   0.0000055365  -0.0000219297
        0.0000289655  -0.0000710380  -0.0000264577  -0.0000670829  -0.0000791642
       -0.0000047538  -0.0000292796  -0.0000903315  -0.0001143962   0.0000014730
        0.0000182795  -0.0003996762   0.0001322600   0.0000031061  -0.0002800452
        0.0002709641  -0.0000829124  -0.0002656863  -0.0010452434   0.0001662856
        0.0027815398   0.0019511050  -0.0004935471  -0.0020725970  -0.0426583705
       -0.0021206990  -0.0016667310   0.1099886988   0.0466150123   0.0111946106
       -0.0390309382  -0.0140321452   0.0023214901   0.0018116871   0.0002348442
        0.0008228688  -0.0017287015   0.0006993872   0.0000973920  -0.0002597494
       -0.0001361269   0.0003350656  -0.0000085701  -0.0000960570  -0.0001011394
       -0.0000401294   0.0001114875   0.0000358046  -0.0001739875  -0.0000471476
       -0.0005050014   0.0001964130   0.0000594246   0.0000373509   0.0001597553
        0.0003233919  -0.0001130219  -0.0000347604  -0.0001519310  -0.0000335470
        0.0000182027  -0.0000504832   0.0008890118   0.0001760899  -0.0001648811
       -0.0000136182  -0.0001888041  -0.0000367596   0.0003576003   0.0001082906
       -0.0001097251  -0.0007560718   0.0000753102   0.0002434163  -0.0011846389
       -0.0011519247   0.0000730109  -0.0011048626  -0.0016946634  -0.0007583930
       -0.0029009432  -0.0016963794  -0.0084473846  -0.0003976899   0.0059860473
       -0.0012694884   0.0018668400  -0.0019264977   0.0019641643  -0.0022433537
       -0.0001950150  -0.0023316783  -0.0002804026   0.0057474998  -0.0011247426
        0.0017214975   0.0006812168  -0.0000390204   0.0003690066  -0.0011639398
        0.0000021336   0.0009412891   0.0004690194  -0.0000396137  -0.0004464245
       -0.0005035989   0.0000646491   0.0000140983   0.0008466140   0.0000159205
       -0.0011303825  -0.0001092980   0.0002209823   0.0000712253  -0.0000375401
       -0.0000153457  -0.0000096214   0.0000205687  -0.0000082965  -0.0000106250
        0.0000203356   0.0000074577  -0.0005240993   0.0003232670  -0.0001026236
       -0.0000950314  -0.0002118454  -0.0000115266  -0.0002662860   0.0000959896
        0.0000045974   0.0004266110  -0.0000930618  -0.0000345301  -0.0003343737
        0.0000196158   0.0001507092  -0.0007922429   0.0001743066  -0.0001053728
        0.0007782061  -0.0004231438  -0.0009505650   0.0002039933  -0.0001881820
        0.0001594511  -0.0005089350  -0.0003841391   0.0004588575  -0.0081724745
       -0.0325751093  -0.0185441298   0.0010617858  -0.0012904017  -0.0000111103
       -0.0000064270   0.0000122804  -0.0000268162   0.0000389793  -0.0000040585
        0.0000178691  -0.0000034445   0.0000332654  -0.0000064750  -0.0000077971
        0.0000049897   0.0000083496  -0.0000834999  -0.0000049447  -0.0000216341
       -0.0000135516  -0.0000272349   0.0000401018  -0.0009591706  -0.0011826709
       -0.0001826212   0.0003478843  -0.0000826604  -0.0006135809  -0.0006120987
        0.0002480427   0.0012221895   0.0004158151   0.0001493332  -0.0006036706
       -0.0000076866  -0.0001822060   0.0000064018  -0.0001319177  -0.0002080542
        0.0000045196   0.0000300030   0.0000459145   0.0000089971   0.0000271173
        0.0000312314  -0.0000215341   0.0000127832   0.0000182211  -0.0000328040
       -0.0000026504  -0.0000071715   0.0000033225  -0.0000072864   0.0000063058
        0.0000045894   0.0000132155   0.0000026626  -0.0000064356   0.0000115813
        0.0000059795   0.0000105477  -0.0000076949   0.0000099519   0.0000019269
       -0.0000000808  -0.0000002646   0.0000115709   0.0000040744   0.0000312734
        0.0000020976   0.0000578709  -0.0000112563   0.0000274676   0.0000283576
       -0.0000116409  -0.0000168156   0.0001924517   0.0000214297  -0.0000131373
        0.0259447613  -0.0007799347  -0.0024050891  -0.0448649846  -0.0018441193
       -0.0657948997   0.0294534228   0.0466150123   0.6067549182   0.1223691860
       -0.0166451853  -0.1918975845   0.0025604144   0.0010143838   0.0021584829
       -0.0025717202  -0.0050878815   0.0006800365   0.0008032974   0.0020203702
       -0.0003292802  -0.0018183396  -0.0009785342   0.0001655290   0.0020530686
        0.0001102525  -0.0003037666  -0.0001122405  -0.0008738094   0.0003508298
        0.0018999291   0.0018503483  -0.0008505526   0.0005773345  -0.0011754396
        0.0015499986  -0.0009385737   0.0004401940  -0.0009105935  -0.0005898243
        0.0000240803  -0.0002012005   0.0005011388  -0.0004389816  -0.0006860901
        0.0000343907  -0.0006021795  -0.0000197670   0.0005746333   0.0007133530
       -0.0000495006  -0.0007664226   0.0006639257   0.0002442352   0.0003696264
       -0.0002427577  -0.0003601099  -0.0011532176   0.0034008185   0.0012222946
       -0.0225303185  -0.0074919211  -0.0774393167  -0.0029428902  -0.0005418855
       -0.0023408007   0.0125708477   0.0027167241   0.0184481810  -0.0258560968
       -0.0026175399  -0.0300988650  -0.0033619486  -0.0010920153  -0.0055073417
        0.0036893863   0.0021268956  -0.0005717790   0.0004264106  -0.0059135468
        0.0009268325   0.0063772844   0.0025259161  -0.0004314948  -0.0032754055
       -0.0031705614   0.0006206934  -0.0003782538   0.0052048446  -0.0004125323
       -0.0081415345  -0.0023696049   0.0009015355   0.0006211767   0.0000069658
       -0.0001845770  -0.0001608737  -0.0000364251  -0.0000442215  -0.0001746332
        0.0000050926   0.0000860082  -0.0082251718   0.0027197654   0.0003202165
       -0.0005292082  -0.0053121647   0.0008737202  -0.0032690186   0.0032080125
       -0.0002850942   0.0062769649  -0.0028447240   0.0000852565   0.0006927735
        0.0061932399  -0.0004676365   0.0038865082  -0.0025967793  -0.0000818193
        0.0015778932   0.0002102967  -0.0027059544   0.0023067071   0.0001412002
        0.0012724034   0.0017904791  -0.0006917336  -0.0028183452  -0.0995794599
       -0.0181495568  -0.2508192152   0.0000529745  -0.0015937806   0.0004542736
       -0.0001676462   0.0000890124   0.0000036801  -0.0000779352  -0.0000281540
        0.0000571459  -0.0000682019   0.0002318563   0.0000223794  -0.0000562722
       -0.0002083558   0.0000035653  -0.0001075648   0.0000352086   0.0001418973
       -0.0001718572  -0.0002069003  -0.0000537645   0.0006302289   0.0017433398
        0.0006875012   0.0003919763   0.0001214111   0.0007558746   0.0009007495
       -0.0002570502   0.0000902515   0.0007924913  -0.0003857621  -0.0008896491