$hessian                                                                        
        0.5839537914  -0.0029097163  -0.2045511192  -0.0886659346  -0.0488747401
        0.0207954751   0.0160828119  -0.0273545262  -0.0052402001  -0.0080160782
        0.0262889680  -0.0001888519  -0.0013148049  -0.0011455286   0.0001554605
        0.0002518752  -0.0002616541  -0.0003355135  -0.0001709890  -0.0001022944
        0.0001286563   0.0000839782  -0.0000186050  -0.0000389494   0.0000018794
       -0.0000736071   0.0001079891  -0.0001230826   0.0000891829  -0.0000725038
        0.0002245948  -0.0000454574   0.0000024864  -0.0001063980   0.0000808873
       -0.0001239381   0.0001644723   0.0006879160  -0.0000773649  -0.0000250645
        0.0000548601   0.0000459056   0.0000211585  -0.0000560402  -0.0000210925
       -0.0000496376   0.0000469188  -0.0000690324   0.0000214085   0.0000013536
        0.0000263579  -0.0000094362   0.0000159720  -0.0000250003   0.0000005457
       -0.0000006925   0.0000069607  -0.0000257706  -0.0000069961  -0.0000091907
       -0.0000064743  -0.0000196861   0.0000239495  -0.0000156751   0.0000600258
       -0.0000510822  -0.0000561579  -0.0000724062   0.0000058517   0.0000295107
        0.0000122441   0.0000343648   0.0000089108  -0.0000124102  -0.0000053211
       -0.0000059941   0.0000021742   0.0000076143   0.0000060237  -0.0000020749
        0.0000056882   0.0000144668  -0.0000126895  -0.0000306148  -0.0000010527
        0.0000095953   0.0000011165   0.0000299233  -0.0000294173  -0.0000532994
       -0.0000665885   0.0000283322   0.0000333701   0.0000393538  -0.0000016921
       -0.0000048501  -0.0000379484  -0.0000036310  -0.0000393981   0.0000205128
       -0.0000050118  -0.0000266421  -0.0000225210  -0.0000020067   0.0000022159
        0.0000069637   0.0000170705   0.0000060638  -0.0000145703  -0.0000215018
       -0.0000085237   0.0000086316   0.0000085609   0.0000013231  -0.0000136474
       -0.0000100184  -0.0000025987   0.0000026988  -0.0000055886  -0.0000066605
        0.0000025876   0.0000101337   0.0000100565  -0.0000055822  -0.0000055329
        0.0000004563  -0.0000133130   0.0000057496   0.0000067169   0.0000048269
       -0.0000083582  -0.0000038521   0.0000070634  -0.0000012723   0.0000040027
       -0.0000066309   0.0000049644   0.0000136405   0.0000077381   0.0000066243
       -0.0000048165  -0.0000048028  -0.0000093790  -0.0000013734   0.0000026870
       -0.0000025029  -0.0000089713  -0.0000078893  -0.0000025703  -0.0000025326
       -0.0000080040   0.0000111896   0.0000069939   0.0000083108   0.0000032574
        0.0000025238  -0.0000259529   0.0000054975   0.0000136347   0.0000201624
        0.0000001261  -0.0000119729   0.0000055948   0.0000020223   0.0000023857
        0.0000008560  -0.0000042421  -0.0000001410  -0.0000014194   0.0000026329
       -0.0000023411  -0.0000009065   0.0000025548   0.0000019749  -0.0000004913
       -0.0000025008   0.0000018358   0.0000016065   0.0000004439  -0.0000043109
        0.0000065244  -0.0000072769  -0.0000047547   0.0000178532   0.0000052269
        0.0000248234  -0.0000321345   0.0000025847   0.0000356822   0.0000082467
        0.0000000239   0.0000259929   0.0000107318  -0.0000004344   0.0000123508
        0.0000057713   0.0000091261   0.0000035911   0.0001257151  -0.0000327304
        0.0000324963  -0.0561560957  -0.0176274617   0.0273176904  -0.2246791623
        0.1407462199   0.0678157335  -0.2172188415  -0.0885960429   0.0860554424
        0.0001087138   0.0231665602  -0.0010893779  -0.0025949798  -0.0025351413
        0.0047229840  -0.0000312650  -0.0000000405   0.0000885678  -0.0000187624
       -0.0000154682  -0.0000049060   0.0000080786   0.0000104108   0.0000039825
       -0.0000033795   0.0000108910  -0.0000027150   0.0000108125  -0.0000589964
        0.0000701144  -0.0000012157  -0.0000046961   0.0000076260  -0.0000031207
       -0.0000004355  -0.0000007854  -0.0000008189   0.0000011204  -0.0000023373
        0.0000021746   0.0000017118  -0.0000021473  -0.0000004762   0.0000004453
        0.0000008339   0.0000006415   0.0000025361  -0.0000070731   0.0000010351
        0.0000028040  -0.0000038177  -0.0000024310   0.0000003822   0.0000054519
        0.0000030407  -0.0000008800   0.0000027542  -0.0000014585   0.0000003460
        0.0000012117  -0.0000008440   0.0000040245   0.0000026077   0.0000028831
        0.0000027649   0.0000014114   0.0000028591  -0.0000008378  -0.0000000499
        0.0000026367   0.0000008649   0.0000003431   0.0000020318  -0.0000011032
       -0.0000010111   0.0000004840  -0.0000007426  -0.0000006810  -0.0000020511
       -0.0000004353   0.0000008282  -0.0000023584  -0.0000030632  -0.0000011171
        0.0000003255  -0.0000029064  -0.0000020662  -0.0000006989  -0.0000001074
       -0.0000000547   0.0000000261  -0.0000019152   0.0000003924   0.0000009129
       -0.0000010698  -0.0000010412   0.0000006724   0.0000006146  -0.0000010295
        0.0000006851  -0.0000006273   0.0000011316   0.0000034342   0.0000002285
       -0.0000023527  -0.0000024294   0.0000005837  -0.0000055817  -0.0000019065
       -0.0000031060   0.0000027076  -0.0000020358   0.0000064835   0.0000048798
       -0.0023590414  -0.0022087438   0.0047687190   0.0005770900   0.0007534011
       -0.0003104624
       -0.0029097163   0.6527932281  -0.0342825258   0.0237497127  -0.3277217929
        0.0085239106  -0.0815323332  -0.0257477259   0.0364703847   0.0257431109
       -0.0542274562  -0.0096206311  -0.0007226975   0.0006621861   0.0012567184
        0.0004942619  -0.0002611043  -0.0000536871   0.0001689931  -0.0000285254
       -0.0000860044  -0.0000982101   0.0001336407   0.0001080737   0.0000407495
        0.0000400871  -0.0000911843   0.0000729675  -0.0000172071   0.0000452843
       -0.0000671648  -0.0000283146   0.0001304075   0.0001333799   0.0002037737
       -0.0001067879   0.0000949066   0.0000701782   0.0002047371  -0.0001896313
       -0.0001915864   0.0001342078   0.0000228458   0.0001754158  -0.0000032808
       -0.0001288254  -0.0000186520  -0.0000330999   0.0000121775  -0.0000296498
       -0.0000269232  -0.0000014916   0.0000080716  -0.0000080771  -0.0000095569
       -0.0000009144   0.0000081161  -0.0000032600  -0.0000072462   0.0000092863
       -0.0000049008   0.0000064665   0.0000033073  -0.0000112973  -0.0000088300
        0.0000069887   0.0000033865   0.0000037676  -0.0000107727   0.0000139640
       -0.0000023624   0.0000163128   0.0000012278  -0.0000037070   0.0000030493
       -0.0000085533   0.0000036616   0.0000100815  -0.0000094809  -0.0000016409
       -0.0000054109   0.0000169605  -0.0000010088  -0.0000062125  -0.0000151809
        0.0000013735  -0.0000082667   0.0000191736  -0.0000065904  -0.0000014538
       -0.0000136352   0.0000073395  -0.0000039155  -0.0000082195   0.0000000423
       -0.0000008520  -0.0000035063   0.0000006092  -0.0000059541   0.0000014596
        0.0000009965  -0.0000044357   0.0000011709  -0.0000008579   0.0000011320
        0.0000005893   0.0000041344   0.0000004230  -0.0000044469  -0.0000061359
       -0.0000016455   0.0000032457   0.0000019354  -0.0000001296  -0.0000027033
       -0.0000033924  -0.0000012083  -0.0000007909  -0.0000011192  -0.0000015569
        0.0000004122   0.0000024716   0.0000035917  -0.0000007080  -0.0000003627
        0.0000005976  -0.0000022233  -0.0000001986   0.0000008972   0.0000004977
       -0.0000004673  -0.0000000283   0.0000015799  -0.0000004088   0.0000020094
       -0.0000009449  -0.0000000456   0.0000035461  -0.0000000673   0.0000016655
       -0.0000012452   0.0000003380  -0.0000022710  -0.0000007516  -0.0000013512
       -0.0000018580  -0.0000030112  -0.0000034699   0.0000010484   0.0000006361
       -0.0000018144   0.0000016799   0.0000008705   0.0000008686   0.0000000499
        0.0000006808  -0.0000071291   0.0000021324   0.0000033351   0.0000051874
        0.0000010186  -0.0000030490   0.0000023280  -0.0000000806   0.0000003145
       -0.0000000169  -0.0000021050   0.0000004826   0.0000000763   0.0000004727
       -0.0000014345  -0.0000002482   0.0000013047   0.0000007121  -0.0000001352
       -0.0000011124   0.0000005650   0.0000008395   0.0000001630  -0.0000014871
        0.0000004640  -0.0000013497  -0.0000006275  -0.0000030504   0.0000002175
        0.0000038936  -0.0000021247  -0.0000021613   0.0000029455  -0.0000043082
        0.0000004877   0.0000113823   0.0000090758   0.0000023959   0.0000063979
        0.0000154840  -0.0000035453  -0.0000203368   0.0000523301  -0.0001007764
        0.0001209010   0.0360903589   0.0575561112  -0.0195359786   0.0682471877
       -0.1737151671  -0.0213333809  -0.0886638881  -0.0889261697   0.0423406375
        0.0014883071  -0.0200448181   0.0011656416  -0.0020631264   0.0001852808
        0.0014417240  -0.0000240930   0.0000420655  -0.0001634265   0.0000042649
        0.0000143297   0.0000002928   0.0000081534  -0.0000218087  -0.0000329368
       -0.0000008270   0.0000093367  -0.0000024808  -0.0001626677  -0.0000772828
       -0.0000657540  -0.0000184232  -0.0000006086   0.0000204394  -0.0000051209
       -0.0000014914  -0.0000053599  -0.0000018117   0.0000005019  -0.0000007853
        0.0000009457   0.0000004870  -0.0000012862  -0.0000008932  -0.0000024468
       -0.0000007284  -0.0000017733   0.0000008713  -0.0000009913  -0.0000005983
        0.0000013534  -0.0000013073  -0.0000006209  -0.0000002659   0.0000018250
        0.0000012975  -0.0000004081   0.0000014720  -0.0000007965   0.0000001575
        0.0000006561   0.0000000257   0.0000018844   0.0000012389   0.0000016565
        0.0000012410   0.0000007083   0.0000012898  -0.0000005149  -0.0000000860
        0.0000017892   0.0000005084   0.0000000325   0.0000011131  -0.0000009538
       -0.0000006736   0.0000003207  -0.0000001447  -0.0000002692  -0.0000001657
       -0.0000004323  -0.0000004984  -0.0000006149   0.0000002310  -0.0000004694
       -0.0000000958  -0.0000004432  -0.0000006093  -0.0000002631   0.0000001228
       -0.0000008686  -0.0000004312   0.0000000261  -0.0000001614  -0.0000000169
       -0.0000003602  -0.0000003760   0.0000002579   0.0000001597  -0.0000007899
        0.0000001219   0.0000002792  -0.0000000535   0.0000012186   0.0000002267
       -0.0000011200  -0.0000003965   0.0000004264  -0.0000015005   0.0000013355
       -0.0000008754   0.0000037374   0.0000053061   0.0000090055   0.0000063162
       -0.0025493069   0.0000404781   0.0017532861   0.0227304103  -0.0207703452
       -0.0082863086
       -0.2045511192  -0.0342825258   0.2076936755   0.0166801387   0.0403601924
       -0.0580507146  -0.0016401892   0.0135511228   0.0013907685  -0.0007860058
       -0.0085088699  -0.0055698512   0.0005307423   0.0005218145  -0.0003484025
       -0.0001928430   0.0000987147   0.0001583377   0.0001079459   0.0000722200
        0.0000003647  -0.0000560241   0.0000132007   0.0000246248   0.0000281567
        0.0000205451  -0.0000470720   0.0000528437  -0.0000299024   0.0000220060
       -0.0001269321   0.0000171887   0.0000041213   0.0000324975  -0.0000351024
        0.0000559623  -0.0000573473  -0.0003216468   0.0000242416   0.0000667785
       -0.0000004498   0.0000440907  -0.0000638798   0.0000033786   0.0000398381
        0.0000421252  -0.0000229221   0.0000305439  -0.0000087394  -0.0000030677
       -0.0000102362  -0.0000023194  -0.0000005330  -0.0000005394  -0.0000007387
        0.0000006015  -0.0000028642   0.0000111700   0.0000039262   0.0000026691
        0.0000026345   0.0000118007  -0.0000152616   0.0000032756  -0.0000019280
        0.0000006379   0.0000210169   0.0000245354  -0.0000143712  -0.0000146168
       -0.0000054861  -0.0000146756   0.0000345359  -0.0000058266  -0.0000120089
        0.0000013497  -0.0000119915  -0.0000408830   0.0000570872   0.0000084743
        0.0000350017  -0.0000300684  -0.0000092691  -0.0000539903   0.0000254344
        0.0000071584   0.0000516153   0.0000024171  -0.0000062109  -0.0000358717
       -0.0000357832   0.0000018997   0.0000189266   0.0000479843  -0.0000031413
       -0.0000005167  -0.0000139740  -0.0000057354  -0.0000146386   0.0000091436
        0.0000000257  -0.0000089612   0.0000048218   0.0000013003  -0.0000009330
       -0.0000146554  -0.0000026168  -0.0000054903   0.0000006335  -0.0000019111
        0.0000051372  -0.0000020109  -0.0000051627  -0.0000015231   0.0000002178
        0.0000024110   0.0000019681  -0.0000006404   0.0000065003   0.0000048419
        0.0000032006  -0.0000065299  -0.0000069771  -0.0000022853   0.0000071660
        0.0000031431   0.0000023026  -0.0000052044  -0.0000026091   0.0000046297
        0.0000124637   0.0000044429   0.0000001335  -0.0000102168  -0.0000082466
        0.0000017679  -0.0000000781  -0.0000030209  -0.0000059640   0.0000026019
        0.0000063218   0.0000000286   0.0000060770   0.0000024755  -0.0000006784
       -0.0000010361   0.0000015229   0.0000064902   0.0000044508   0.0000015828
       -0.0000012716  -0.0000017626   0.0000007189   0.0000001304  -0.0000044692
       -0.0000043767  -0.0000016493  -0.0000003080  -0.0000001242  -0.0000010777
        0.0000026814   0.0000020326   0.0000024505  -0.0000077115  -0.0000060516
        0.0000003325   0.0000005295   0.0000011193   0.0000016740  -0.0000011064
       -0.0000009539  -0.0000004511  -0.0000000190   0.0000001692   0.0000009335
       -0.0000011546  -0.0000008766  -0.0000009812   0.0000003253   0.0000004993
       -0.0000102433   0.0000058268   0.0000011866   0.0000149323  -0.0000028418
        0.0000087002  -0.0000110990   0.0000085920   0.0000202396   0.0000086243
        0.0000068261   0.0000175841  -0.0000416145   0.0000038344   0.0000065882
        0.0000047880   0.0000148365   0.0000385435  -0.0000719557   0.0000025550
       -0.0000109789   0.0232443246   0.0043064101  -0.0096402620   0.0720499417
       -0.0534779347  -0.0760780060   0.0859889630   0.0424710800  -0.0743893879
        0.0002456306  -0.0087964573   0.0013394613   0.0048107184   0.0015247109
        0.0059447545   0.0000846257   0.0000188351  -0.0000572476   0.0000121100
        0.0000101653  -0.0000002447  -0.0000062206  -0.0000040715  -0.0000051435
       -0.0000008702  -0.0000039362   0.0000042337  -0.0000557415  -0.0000100626
        0.0000014004   0.0000035583   0.0000018816  -0.0000024009   0.0000051576
       -0.0000009197   0.0000019595   0.0000008838  -0.0000018787   0.0000027506
       -0.0000010859  -0.0000013706   0.0000016166  -0.0000002696  -0.0000012831
        0.0000005153  -0.0000015071   0.0000017699   0.0000079836  -0.0000041074
        0.0000004759   0.0000024345   0.0000006585  -0.0000000100   0.0000018115
       -0.0000000414  -0.0000000499   0.0000007330   0.0000010647   0.0000009805
       -0.0000000386   0.0000011701  -0.0000023194  -0.0000015987  -0.0000020408
       -0.0000025135  -0.0000008781  -0.0000027345   0.0000006045   0.0000004298
       -0.0000036162  -0.0000014852   0.0000000035  -0.0000030487   0.0000027195
        0.0000019062  -0.0000001987  -0.0000004896   0.0000010804   0.0000004151
       -0.0000005459  -0.0000007082   0.0000014343   0.0000014520  -0.0000002271
       -0.0000003435   0.0000023634   0.0000016109   0.0000002351   0.0000001474
       -0.0000004661  -0.0000002713   0.0000010429  -0.0000000915  -0.0000006155
        0.0000007408   0.0000006251  -0.0000004461  -0.0000000885   0.0000007812
       -0.0000001091   0.0000002896  -0.0000003054  -0.0000007495  -0.0000000862
       -0.0000014279  -0.0000008375  -0.0000002134  -0.0000015531   0.0000009862
       -0.0000008387  -0.0000042133   0.0000039515  -0.0000049897  -0.0000055055
        0.0048258288   0.0014110119   0.0058590592  -0.0012650139   0.0010558234
        0.0015813326
       -0.0886659346   0.0237497127   0.0166801387   0.5818084220  -0.0220268078
       -0.2021070402  -0.2508333252  -0.1180883892   0.0972586837  -0.0559294162
        0.0347663335   0.0226109879  -0.0006290972   0.0027439103   0.0020372301
       -0.0011997688   0.0007099201   0.0006877191   0.0000450326  -0.0000691497
        0.0000902691  -0.0000538184  -0.0001417173  -0.0001050126  -0.0000099576
        0.0000543418  -0.0000166015   0.0000285426  -0.0001039904  -0.0000250583
       -0.0001155894   0.0000405435  -0.0002954251   0.0000632173  -0.0003496860
        0.0001529971  -0.0004855139  -0.0004297966   0.0002459549   0.0000947446
        0.0002531031  -0.0003729559   0.0000560772  -0.0001140979   0.0000201876
        0.0001704313   0.0000329982   0.0000303362  -0.0000112116   0.0000450660
        0.0000007936   0.0000107926  -0.0000352703   0.0000491850   0.0000530437
        0.0000131034  -0.0000096748  -0.0000241296   0.0000218469  -0.0000308842
       -0.0000054348  -0.0000264557   0.0000277996   0.0000367205   0.0000265100
       -0.0000359102   0.0000268572   0.0000009444   0.0000284988  -0.0000479988
        0.0000020970  -0.0000355356   0.0000220454   0.0000198216   0.0000039772
       -0.0000120090  -0.0000030557   0.0000017385   0.0000053435   0.0000023310
       -0.0000065145   0.0000025965   0.0000205026   0.0000727243  -0.0000536625
       -0.0000192136  -0.0000607749   0.0000511061   0.0000163146   0.0000157266
       -0.0000249454  -0.0000098761   0.0000065761   0.0000313677  -0.0000023474
       -0.0000014809  -0.0000139152  -0.0000092543  -0.0000109943   0.0000086037
       -0.0000295715  -0.0000115825  -0.0000565301   0.0000082286  -0.0000014561
        0.0000550935   0.0000311545   0.0000255565  -0.0000304129  -0.0000201976
       -0.0000153426   0.0000173913   0.0000137231   0.0000020744  -0.0000149794
       -0.0000167695  -0.0000012463   0.0000094469  -0.0000339720  -0.0000145308
       -0.0000116874   0.0000337657   0.0000157359   0.0000034418  -0.0000376030
       -0.0000204418  -0.0000280486   0.0000256442   0.0000193867  -0.0000134077
       -0.0000549660  -0.0000225289   0.0000041087   0.0000409300   0.0000157336
       -0.0000003617   0.0000271196   0.0000001261   0.0000362848   0.0000045164
       -0.0000090841  -0.0000120855  -0.0000232736  -0.0000055798   0.0000153796
        0.0000049778   0.0000016994   0.0000053921  -0.0000259554  -0.0000130418
       -0.0000030753   0.0000156104   0.0000089787   0.0000111441   0.0000240319
        0.0000026193  -0.0000182623  -0.0000109252   0.0000111659   0.0000196792
       -0.0000338571  -0.0000203218  -0.0000359762   0.0000423599   0.0000296650
        0.0000035809  -0.0000033635  -0.0000073337  -0.0000034299   0.0000068175
        0.0000026864   0.0000004210  -0.0000015794  -0.0000005275  -0.0000028290
        0.0000058903   0.0000058717   0.0000042195  -0.0000062453  -0.0000023280
        0.0000324139  -0.0000063951  -0.0000050045   0.0000222249   0.0000277170
        0.0000093553  -0.0000134311   0.0000119015   0.0000125811  -0.0000013812
        0.0000034135  -0.0000053797  -0.0000093502  -0.0000021227  -0.0000226318
        0.0000062921  -0.0000014786   0.0000109328  -0.0001047245   0.0000897176
       -0.0001723768  -0.0157050099  -0.0280827230   0.0063874799   0.0298015498
        0.0183771534  -0.0138645934  -0.0032137260  -0.0248685154   0.0033129259
       -0.1909789278   0.1135034450   0.0614736940  -0.0025059060  -0.0028597889
        0.0016678978  -0.0000871275   0.0000108479   0.0001690037   0.0000024514
       -0.0000165134   0.0000156200   0.0000090416   0.0000278598   0.0000289023
        0.0000059062  -0.0000234161  -0.0000134927   0.0000596866  -0.0001373605
        0.0004539255  -0.0000004306  -0.0000045578  -0.0000213835  -0.0000074495
       -0.0000025327   0.0000055025  -0.0000020845   0.0000063017  -0.0000087798
        0.0000045736   0.0000035460  -0.0000030927   0.0000036553   0.0000027649
        0.0000019292  -0.0000037160  -0.0000049910  -0.0000030283   0.0000031769
       -0.0000049712   0.0000010498  -0.0000014441   0.0000044537  -0.0000005624
        0.0000048915   0.0000043973   0.0000026589  -0.0000030687   0.0000000514
       -0.0000003812  -0.0000010514   0.0000081036   0.0000026612   0.0000077024
        0.0000080044   0.0000006830   0.0000074622  -0.0000014821  -0.0000017229
        0.0000087447   0.0000026309  -0.0000015568   0.0000066137  -0.0000059049
       -0.0000058198  -0.0000002777   0.0000010758  -0.0000023449  -0.0000023720
        0.0000014035   0.0000012012  -0.0000044908  -0.0000055024   0.0000008821
        0.0000013543  -0.0000070063  -0.0000044447  -0.0000007682   0.0000005575
       -0.0000004729   0.0000016029  -0.0000050777   0.0000007412   0.0000026912
       -0.0000039873  -0.0000027472   0.0000020901  -0.0000006290  -0.0000040722
        0.0000005325  -0.0000010981   0.0000021409   0.0000025778  -0.0000042594
       -0.0000016047  -0.0000024369  -0.0000057712   0.0000016454  -0.0000019080
        0.0000016486   0.0000013620  -0.0000130236  -0.0000038999  -0.0000000365
        0.0002493962  -0.0006909778  -0.0002943678  -0.0019362395   0.0035771838
        0.0039715069
       -0.0488747401  -0.3277217929   0.0403601924  -0.0220268078   0.6582690727
       -0.0245107673  -0.0468283621  -0.1375304684   0.0259374314  -0.0195120434
        0.0580642249   0.0059034048   0.0052211434  -0.0019794573  -0.0020472156
        0.0001151485   0.0003474144  -0.0004404553  -0.0002128963   0.0000442164
        0.0000734118   0.0000681522  -0.0000758129  -0.0001236222  -0.0000558105
        0.0000046838   0.0000282912   0.0000324361   0.0000208342   0.0000184900
        0.0001816651   0.0001766106  -0.0000677260   0.0001272501  -0.0002180554
        0.0001478994  -0.0001002306  -0.0002764424  -0.0002004883   0.0002143410
        0.0002172304  -0.0000540852   0.0000376367  -0.0000764434  -0.0000538362
        0.0001770884  -0.0000401703   0.0001014870  -0.0000115629   0.0000483055
       -0.0000079099  -0.0000040053  -0.0000274188   0.0000367902   0.0000071037
       -0.0000052613  -0.0000107933   0.0000365371   0.0000073761   0.0000147582
        0.0000164785   0.0000245215  -0.0000393700   0.0000042430  -0.0000706105
        0.0000475867   0.0001021366   0.0000844398   0.0000027439  -0.0000605274
       -0.0000154267  -0.0000445225   0.0000189364   0.0000183873   0.0000003877
       -0.0000021037  -0.0000045987  -0.0000079402   0.0000085210   0.0000039538
       -0.0000050812  -0.0000107935   0.0000216342   0.0000380613   0.0000149495
       -0.0000207239  -0.0000093547  -0.0000593024   0.0000372244   0.0000681320
        0.0000891069  -0.0000352942  -0.0000570772  -0.0000604661   0.0000021445
        0.0000077987   0.0000482981   0.0000029013   0.0000495576  -0.0000288760
        0.0000046682   0.0000334223   0.0000333757   0.0000036895  -0.0000049263
       -0.0000070424  -0.0000170882  -0.0000073557   0.0000126557   0.0000220050
        0.0000116373  -0.0000082588  -0.0000113726  -0.0000026923   0.0000154949
        0.0000108903   0.0000026246  -0.0000049805   0.0000045397   0.0000083409
       -0.0000046978  -0.0000100860  -0.0000113898   0.0000057168   0.0000064478
       -0.0000001664   0.0000139288  -0.0000068411  -0.0000069944  -0.0000073264
        0.0000070911   0.0000030093  -0.0000112188   0.0000024116  -0.0000028213
        0.0000081222  -0.0000014556  -0.0000176216  -0.0000060363  -0.0000075046
        0.0000051102   0.0000053882   0.0000097120   0.0000011374  -0.0000007723
        0.0000037719   0.0000110638   0.0000127755   0.0000007286   0.0000000815
        0.0000107498  -0.0000104954  -0.0000076575  -0.0000084843   0.0000000454
       -0.0000018781   0.0000302536  -0.0000099766  -0.0000159414  -0.0000213196
       -0.0000053258   0.0000113957  -0.0000130247   0.0000034149   0.0000017378
       -0.0000002998   0.0000047104  -0.0000010507   0.0000013968  -0.0000018305
        0.0000032760   0.0000013352  -0.0000031705  -0.0000023341   0.0000007441
        0.0000040618  -0.0000013762  -0.0000010542  -0.0000007890   0.0000051700
       -0.0000106998   0.0000105492   0.0000065433  -0.0000241531  -0.0000050256
       -0.0000299363   0.0000420709  -0.0000033289  -0.0000461738  -0.0000228035
        0.0000010852  -0.0000193208  -0.0000218242   0.0000004039  -0.0000099691
       -0.0000027587  -0.0000120412   0.0000036814  -0.0002205675   0.0001249646
       -0.0001636087  -0.0293120127  -0.0419421772   0.0152625931   0.0726900028
       -0.0455539214  -0.0292717604  -0.0029251967  -0.0148283297   0.0024342523
        0.1132785531  -0.1303010323  -0.0443804537  -0.0246553560  -0.0153304001
        0.0113947696   0.0000527515  -0.0000439983   0.0001176502  -0.0000149733
       -0.0000143888  -0.0000099791  -0.0000104897   0.0000217570   0.0000238065
        0.0000097357  -0.0000042582  -0.0000011260  -0.0001123350  -0.0000223665
        0.0002257013  -0.0000026697  -0.0000108837   0.0000201924   0.0000053854
        0.0000027524   0.0000053801   0.0000001942  -0.0000033168   0.0000049413
       -0.0000010254  -0.0000016167   0.0000053707   0.0000015564   0.0000016894
        0.0000006495  -0.0000029532  -0.0000041185   0.0000056044  -0.0000004501
       -0.0000060998   0.0000017386   0.0000033722   0.0000003901  -0.0000047312
       -0.0000023975   0.0000019883  -0.0000015061   0.0000009371   0.0000009218
       -0.0000008591   0.0000010626  -0.0000035589  -0.0000027734  -0.0000019758
       -0.0000017603  -0.0000014209  -0.0000023583   0.0000007607  -0.0000003908
       -0.0000015990  -0.0000002904  -0.0000005612  -0.0000004675  -0.0000002688
       -0.0000001130  -0.0000006186   0.0000006720   0.0000007570   0.0000019320
        0.0000006080  -0.0000001268   0.0000013957   0.0000010604   0.0000011991
        0.0000000079   0.0000015784   0.0000012478   0.0000011256   0.0000000152
        0.0000000741   0.0000005479   0.0000013898  -0.0000000490  -0.0000003173
        0.0000006817   0.0000010456  -0.0000001158  -0.0000008280   0.0000007524
       -0.0000002466   0.0000003702  -0.0000011799  -0.0000028986  -0.0000008123
        0.0000007926   0.0000032554  -0.0000009405   0.0000050030  -0.0000005051
        0.0000059895  -0.0000014383   0.0000092625  -0.0000035496  -0.0000046420
       -0.0006149180  -0.0000361767   0.0001979530   0.0031354720  -0.0013435894
       -0.0009395595
        0.0207954751   0.0085239106  -0.0580507146  -0.2021070402  -0.0245107673
        0.2072782590   0.0926311715   0.0567086744  -0.0901251832   0.0256559948
       -0.0181640314  -0.0121666670   0.0018682334  -0.0019419115   0.0075605954
        0.0017813154   0.0004118724  -0.0003905898  -0.0000614991   0.0001940191
       -0.0001879463   0.0001231221   0.0000356853   0.0000227171  -0.0000451520
       -0.0000671110   0.0000798904   0.0000030515   0.0001002281  -0.0001349598
        0.0003944221  -0.0003498536   0.0003012163  -0.0003471103  -0.0001203520
        0.0000271722  -0.0007419131   0.0007149440   0.0000694400   0.0000281082
       -0.0001005676   0.0000267669   0.0000321171   0.0000300465  -0.0000791274
       -0.0000629437  -0.0000070953   0.0000033785   0.0000154622  -0.0000063700
        0.0000056379  -0.0000162697   0.0000182216  -0.0000269836  -0.0000317952
       -0.0000092466   0.0000048092   0.0000262076  -0.0000161944   0.0000269255
        0.0000093847   0.0000301500  -0.0000261515  -0.0000272435  -0.0000263936
        0.0000307125   0.0000004089  -0.0000203160  -0.0000087775   0.0000341848
        0.0000044472   0.0000241674  -0.0000362108  -0.0000008895  -0.0000004164
        0.0000102905   0.0000101528   0.0000316845  -0.0000514730  -0.0000091241
       -0.0000254009   0.0000332179   0.0000045711   0.0000263178   0.0000098903
       -0.0000033099  -0.0000223297  -0.0000435816   0.0000005958   0.0000267817
        0.0000551912  -0.0000025835  -0.0000269632  -0.0000572099   0.0000036821
        0.0000042213   0.0000265980   0.0000104653   0.0000296731  -0.0000187192
        0.0000202969   0.0000279894   0.0000399399  -0.0000059018  -0.0000015996
       -0.0000176126  -0.0000304164  -0.0000181109   0.0000267272   0.0000275289
        0.0000087979  -0.0000151807  -0.0000126506  -0.0000010355   0.0000216597
        0.0000145439  -0.0000000763  -0.0000099356   0.0000204383   0.0000101583
        0.0000014409  -0.0000234160  -0.0000083174   0.0000023605   0.0000247915
        0.0000118400   0.0000267546  -0.0000177579  -0.0000150681   0.0000004430
        0.0000319048   0.0000147215  -0.0000108034  -0.0000192737  -0.0000029101
        0.0000011238  -0.0000233705  -0.0000053372  -0.0000223682  -0.0000102228
        0.0000013569   0.0000132746   0.0000184075   0.0000022358  -0.0000119548
       -0.0000006233   0.0000031339  -0.0000059891   0.0000153073   0.0000090072
        0.0000118230  -0.0000176639  -0.0000138686  -0.0000152327  -0.0000128469
        0.0000034258   0.0000351654   0.0000025198  -0.0000192072  -0.0000263637
        0.0000208664   0.0000204376   0.0000173673  -0.0000209312  -0.0000146502
       -0.0000034515   0.0000050274   0.0000031640   0.0000011287  -0.0000042461
        0.0000007603   0.0000010556  -0.0000006481  -0.0000007556   0.0000010896
       -0.0000003117  -0.0000038086  -0.0000028325   0.0000037238   0.0000047957
       -0.0000218072   0.0000045726   0.0000081560  -0.0000269397  -0.0000161598
       -0.0000225907   0.0000220344  -0.0000148756  -0.0000356594  -0.0000208706
       -0.0000026947  -0.0000064541   0.0000346750  -0.0000051485   0.0000019084
       -0.0000082460  -0.0000115977  -0.0000312948  -0.0000125185  -0.0000500452
       -0.0000160907   0.0063864276   0.0141951845  -0.0083063967  -0.0165071778
       -0.0051220806   0.0092216682   0.0018292077   0.0119494168  -0.0011160578
        0.0617508907  -0.0439689884  -0.0590287303   0.0026600475   0.0022618354
       -0.0008024782   0.0000057639  -0.0000007663  -0.0000520334   0.0000089291
        0.0000044945  -0.0000055959  -0.0000065136  -0.0000054464  -0.0000052138
        0.0000299289  -0.0000111433   0.0000033458   0.0000545459   0.0001439415
       -0.0001566083   0.0000111946  -0.0000129541   0.0000246675   0.0000093755
       -0.0000004126   0.0000016544   0.0000022185  -0.0000043881   0.0000062694