$hessian                                                                        
        0.1139814629  -0.1836440536  -0.2785731616  -0.1208606053   0.1713945113
        0.2632292766   0.0127944386   0.0125686720   0.0198948040  -0.0067114766
        0.0007182874  -0.0003075328   0.0013353430  -0.0000081155  -0.0000374858
       -0.0008645625   0.0021311962   0.0004210061   0.0000253238  -0.0002480727
       -0.0003640804  -0.0001943174  -0.0000265561   0.0000383671   0.0002267439
       -0.0002484123  -0.0001422851  -0.0001731928  -0.0004659524  -0.0005117971
        0.0019067042  -0.0015222829  -0.0026888716   0.0004082205  -0.0001693339
        0.0002260554   0.0001570203   0.0001155870  -0.0001576524  -0.0001036819
       -0.0000328497   0.0000271895   0.0000258422  -0.0000475904   0.0000461933
        0.0000544985  -0.0000383411   0.0000106004  -0.0000540649   0.0000465702
       -0.0000184225   0.0000120182  -0.0000017507   0.0000044658  -0.0000210614
       -0.0000000115   0.0000034303  -0.0000168262   0.0000149616  -0.0000124828
       -0.0000061710   0.0000166321  -0.0000093288  -0.0000004401  -0.0000000743
        0.0000007285   0.0000014112  -0.0000214762   0.0000128710  -0.0000092606
       -0.0000081891   0.0000208486   0.0001114504   0.0001298708   0.0001103332
       -0.0004065595   0.0004666803  -0.0004968535   0.0007508779   0.0002559419
        0.0009457848  -0.0015200390  -0.0012112303  -0.0019438203   0.0001518258
       -0.0001225413  -0.0000540091  -0.0000535423  -0.0001235750  -0.0000540695
        0.0000071660  -0.0000281629  -0.0000179725  -0.0000386251  -0.0001645910
       -0.0001457765   0.0000077566   0.0000009366  -0.0000593623   0.0000546390
        0.0000053357   0.0000243750   0.0000053531   0.0000127967  -0.0000179638
        0.0000038938   0.0000043546  -0.0000039451  -0.0000134208  -0.0000066390
        0.0000068139  -0.0000152500  -0.0000005053   0.0000028869  -0.0000142939
        0.0000048233  -0.0000034762   0.0000094429  -0.0000091930  -0.0000018640
        0.0000192668   0.0000115541   0.0000311794  -0.0009733083   0.0002507882
        0.0005650040
       -0.1836440536   0.3713404806   0.5409437204   0.1721272204  -0.3671739028
       -0.5094963954   0.0078453431  -0.0065025911  -0.0341476419   0.0081863772
        0.0033263426   0.0038419751  -0.0026636802   0.0006282847  -0.0006370226
        0.0007481432  -0.0007108468  -0.0008371404  -0.0002377878  -0.0001888667
       -0.0001229089   0.0002591964   0.0000160714   0.0000493431  -0.0003847499
        0.0003988237   0.0002173338   0.0004976506   0.0007144273   0.0010136601
       -0.0026684846   0.0000004856  -0.0012337300   0.0011595366  -0.0005638775
       -0.0000865710   0.0000198731   0.0001296684  -0.0001084070  -0.0000124010
       -0.0000571303  -0.0000087661  -0.0000094595   0.0000046712  -0.0000061849
       -0.0000590372   0.0000391226  -0.0001377945   0.0000466654  -0.0000252626
        0.0001162503  -0.0000472829   0.0000002265   0.0000686420   0.0000402447
       -0.0000091087  -0.0000165040   0.0000322419  -0.0000453002   0.0000521881
        0.0000083011  -0.0000225296   0.0000167466  -0.0000009502   0.0000006563
        0.0000026742  -0.0000006304   0.0000386354  -0.0000145942  -0.0000032546
        0.0000305515  -0.0000387162  -0.0000506103   0.0000626628  -0.0000628608
        0.0002033714   0.0003850402   0.0000685367  -0.0006769512  -0.0018834514
        0.0008346271  -0.0012728283   0.0004030540  -0.0005615960  -0.0001023553
        0.0000674225   0.0000489536  -0.0000442741   0.0000425730   0.0000277790
       -0.0000276739  -0.0000111179  -0.0000481157   0.0000794040   0.0001330022
        0.0000939924  -0.0001207141  -0.0000712947   0.0002033809   0.0000974276
        0.0000184313  -0.0000365652  -0.0000103349  -0.0000182183  -0.0000190898
       -0.0000072231   0.0000053077  -0.0000160853   0.0000215552   0.0000100925
       -0.0000139360   0.0000165740   0.0000011533  -0.0000056605   0.0000170634
       -0.0000042967   0.0000027511  -0.0000087483   0.0000061847   0.0000006391
        0.0000150446  -0.0000327891   0.0000443504   0.0006322513  -0.0004827875
        0.0000087426
       -0.2785731616   0.5409437204   0.8425480956   0.2654802166  -0.5108784688
       -0.8088593800   0.0141929190  -0.0328394184  -0.0350050616   0.0102553337
        0.0029017812   0.0066566978  -0.0038897433  -0.0007238418  -0.0001147353
        0.0008919688   0.0002762781   0.0000072605  -0.0005936899  -0.0005757285
       -0.0008937116   0.0001708465   0.0001052163   0.0001129839  -0.0004427593
        0.0004529716   0.0002558829   0.0005213402   0.0008097753   0.0012878427
       -0.0060948983  -0.0009665620  -0.0023056575   0.0021835345  -0.0005328339
       -0.0004453221  -0.0004149838   0.0002655017  -0.0003618491   0.0000811263
       -0.0000937520   0.0001268666  -0.0001664567  -0.0000342487   0.0001671822
       -0.0000714426   0.0001766668  -0.0003271980   0.0000187690  -0.0001179858
        0.0002840496   0.0000114004   0.0000494897  -0.0000072189  -0.0000064119
       -0.0000286399  -0.0000104864   0.0000328893  -0.0000338176   0.0000446406
        0.0000031326  -0.0000250610   0.0000217903   0.0000040999   0.0000004429
        0.0000031849  -0.0000073223   0.0000425263  -0.0000098641   0.0000150548
        0.0000426463  -0.0000506740  -0.0003146232   0.0001300043   0.0003197963
        0.0002182059   0.0006360563  -0.0004801925  -0.0003952728   0.0009105251
       -0.0015877251  -0.0037226509  -0.0004755168  -0.0026363968  -0.0000222459
        0.0000863966   0.0000278610  -0.0001415163  -0.0000516862   0.0000184637
       -0.0000485651  -0.0000468354  -0.0001153018   0.0001143054   0.0001183922
       -0.0000048001  -0.0001588124  -0.0000848363   0.0004783181   0.0001616117
       -0.0000067777  -0.0000083352  -0.0000239877  -0.0000255401   0.0000023060
       -0.0000068741  -0.0000031164  -0.0000107329   0.0000239429   0.0000085994
       -0.0000132925   0.0000227259  -0.0000020490  -0.0000054729   0.0000294052
       -0.0000098890   0.0000052483  -0.0000051393  -0.0000011002   0.0000021412
        0.0000844279  -0.0000283000   0.0001163896   0.0005833007  -0.0003709850
        0.0007664068
       -0.1208606053   0.1721272204   0.2654802166   0.2262592375  -0.2240354868
       -0.3309555773  -0.0851860817   0.0389197520   0.0521712767   0.0169187692
       -0.0048173756  -0.0043683104  -0.0033524662  -0.0007530156  -0.0005320206
       -0.0004557771  -0.0027994121  -0.0028130916  -0.0006235015  -0.0001301388
        0.0001057453   0.0002801794  -0.0000342860   0.0000176286  -0.0004871150
        0.0004688471   0.0002768701   0.0003859237   0.0008485226   0.0010253228
       -0.0219664304   0.0170163317   0.0232151403  -0.0042198658   0.0009031293
       -0.0008764783  -0.0010797964  -0.0007839808   0.0009776897   0.0001972284
       -0.0000424425   0.0001106547  -0.0000182371   0.0001560797  -0.0000230481
       -0.0000696370   0.0000571909  -0.0000647415   0.0000545833  -0.0000593840
        0.0000710369   0.0000350395  -0.0000006763  -0.0000066350   0.0000116354
       -0.0000042605  -0.0000124177   0.0000240565  -0.0000177404   0.0000160185
        0.0000054396  -0.0000126002   0.0000101200   0.0000015091  -0.0000005886
        0.0000013334  -0.0000067100   0.0000249781  -0.0000089222   0.0000132846
        0.0000177060  -0.0000293961  -0.0003204882  -0.0006417754   0.0001078107
       -0.0014671828   0.0009398046   0.0015272124  -0.0017061960  -0.0006232658
       -0.0032966335  -0.0017105842   0.0014800984  -0.0013012880  -0.0000942276
        0.0001686481   0.0000800702   0.0000125734   0.0001479670   0.0000510695
       -0.0000094303   0.0000127923  -0.0000110472   0.0000926093   0.0002303240
        0.0001866247   0.0001156993   0.0001451961  -0.0000501165  -0.0003367477
        0.0000179897  -0.0000054746   0.0000009337   0.0000067788  -0.0000023154
       -0.0000030568   0.0000025771  -0.0000037508   0.0000177724   0.0000063411
       -0.0000081581   0.0000177323  -0.0000002900  -0.0000031771   0.0000202176
       -0.0000054215   0.0000032612  -0.0000047945  -0.0000003132   0.0000061850
        0.0000937019  -0.0000191137   0.0000052694  -0.0005791945   0.0010832925
       -0.0010739566
        0.1713945113  -0.3671739028  -0.5108784688  -0.2240354868   0.4920013741
        0.6281709042   0.0490580823  -0.1081590005  -0.0784835786  -0.0147389602
       -0.0182118726  -0.0278382376   0.0068271838  -0.0027323233   0.0031685848
       -0.0009831087   0.0022446673   0.0019930491   0.0005478039   0.0004307407
       -0.0000473613  -0.0005033833   0.0001646929   0.0001091310   0.0010437109
       -0.0007870511  -0.0004406337  -0.0014439149  -0.0017009376  -0.0020872152
        0.0120177812  -0.0032297480  -0.0060151660  -0.0008357825   0.0014563169
       -0.0000045071  -0.0000267414   0.0000530904  -0.0001898013   0.0002438074
        0.0000658655  -0.0000557176  -0.0001449322  -0.0000440885   0.0000436161
        0.0000569531  -0.0000253947   0.0001779235  -0.0000384921   0.0000394673
       -0.0001743146   0.0001029436   0.0000082071  -0.0001390133  -0.0000916929
        0.0000154087   0.0000267268  -0.0000395018   0.0000589413  -0.0000669055
       -0.0000182276   0.0000341474  -0.0000260633   0.0000090331  -0.0000013206
       -0.0000048537  -0.0000022683  -0.0000579204   0.0000207754   0.0000025570
       -0.0000448512   0.0000610792  -0.0001962146   0.0000647692  -0.0000620372
        0.0004255363  -0.0009762667   0.0000738638   0.0002341947   0.0067420356
       -0.0077400712   0.0010956003  -0.0001508078   0.0006109042   0.0002007045
       -0.0001444042  -0.0000794866   0.0000865733  -0.0000892470  -0.0000106928
        0.0000629608   0.0000432510   0.0000933377  -0.0001100514  -0.0000872505
       -0.0000788798   0.0000897200   0.0000081062  -0.0002795665  -0.0000981344
       -0.0000856452   0.0000565209   0.0000174919   0.0000119368   0.0000359948
        0.0000099469  -0.0000116504   0.0000223145  -0.0000298513  -0.0000139885
        0.0000176534  -0.0000261219  -0.0000004940   0.0000065360  -0.0000268199
        0.0000070868  -0.0000051430   0.0000081679   0.0000002606  -0.0000048454
       -0.0001197757   0.0000465878  -0.0000788065  -0.0000258023   0.0002312122
        0.0001024510
        0.2632292766  -0.5094963954  -0.8088593800  -0.3309555773   0.6281709042
        1.0252629282   0.0585130367  -0.0819980462  -0.1734600721  -0.0132265455
       -0.0257276423  -0.0404490763   0.0082557661   0.0027488766  -0.0001455278
       -0.0028721616   0.0014566163   0.0003096731   0.0005876817   0.0004990718
        0.0008564731  -0.0003962819  -0.0000158806  -0.0000463050   0.0009347459
       -0.0008043482  -0.0003581822  -0.0009205151  -0.0019161697  -0.0023671402
        0.0248115913  -0.0059353002  -0.0022788520  -0.0035542045   0.0003603798
        0.0017914404   0.0014943013  -0.0001819899   0.0007278494  -0.0006830742
        0.0002105024  -0.0002563330   0.0004246611  -0.0000275673  -0.0002435918
        0.0000652011  -0.0001795214   0.0003010719  -0.0000111534   0.0001397584
       -0.0003272181  -0.0001074490  -0.0001070032   0.0001009371   0.0000281948
        0.0000433035   0.0000204248  -0.0000786561   0.0000376546  -0.0000508904
       -0.0000013105   0.0000440069  -0.0000382418   0.0000018901   0.0000009414
       -0.0000071652   0.0000160135  -0.0000742858   0.0000190513  -0.0000474808
       -0.0000487209   0.0000750422   0.0008418672   0.0000293277  -0.0008950487
       -0.0032322087  -0.0005051580  -0.0002258247  -0.0024127314  -0.0076567360
        0.0015235532   0.0006743254   0.0001893234   0.0007300022   0.0001512688
       -0.0001686912  -0.0000685570   0.0001690096  -0.0000141224  -0.0000301867
        0.0001067249   0.0000815056   0.0001696105  -0.0001061001  -0.0000127912
        0.0000438848   0.0000883229   0.0000234277  -0.0006747151  -0.0002344588
        0.0000522180   0.0000276134   0.0000319023   0.0000163219   0.0000098510
        0.0000150423  -0.0000048708   0.0000205136  -0.0000387387  -0.0000161040
        0.0000213791  -0.0000398884   0.0000034479   0.0000072047  -0.0000450271
        0.0000165564  -0.0000098136   0.0000062284   0.0000096644  -0.0000115836
       -0.0002092277   0.0000511616  -0.0001738286  -0.0012742610   0.0007063740
       -0.0010409699
        0.0127944386   0.0078453431   0.0141929190  -0.0851860817   0.0490580823
        0.0585130367   0.5491732669   0.0123701972   0.0910678694  -0.1827446455
       -0.0915955778  -0.1507127303  -0.0393894595  -0.0119510307  -0.0229802515
        0.0046815147  -0.0038963500  -0.0032418463  -0.0014769060  -0.0012015341
       -0.0004668051   0.0014358981  -0.0004019470  -0.0000934105  -0.0032653600
       -0.0001715061   0.0000655454  -0.0006865777   0.0042152459   0.0031653214
       -0.2008286968   0.0204362459   0.0061293132  -0.0338876534   0.0086764501
        0.0175655423   0.0049093495   0.0004938229   0.0049402152  -0.0049171629
        0.0007399281   0.0002424687   0.0025329804  -0.0001421367  -0.0006438185
       -0.0000179374  -0.0001410118  -0.0004244170   0.0000255927  -0.0000105460
        0.0001663244  -0.0010644495  -0.0002972749   0.0010053600   0.0005789844
        0.0000324785  -0.0000174906  -0.0001409872  -0.0001118897   0.0001050483
        0.0001007910  -0.0000305965   0.0000059060  -0.0000469381   0.0000064675
       -0.0000022714   0.0000775438   0.0000249312  -0.0000386351  -0.0001460105
        0.0000950042  -0.0000812711   0.0056326796   0.0000308980  -0.0049439876
       -0.0341244061  -0.0002617419  -0.0171035573   0.0064900995   0.0065866594
        0.0042913479  -0.0004963356   0.0004359670  -0.0002070512   0.0000524461
       -0.0000535243   0.0000231588   0.0000625942   0.0000972259  -0.0001125035
       -0.0003958832   0.0000215811  -0.0000654067   0.0000127990   0.0000451280
       -0.0001487775   0.0006133899  -0.0009634691  -0.0014081457  -0.0007463633
       -0.0002791535  -0.0000483920  -0.0000127342  -0.0000407081  -0.0000352579
        0.0000019796   0.0000076048   0.0000008336   0.0000006108  -0.0000052534
        0.0000031618  -0.0000090489  -0.0000013910  -0.0000050472  -0.0000012946
        0.0000056729  -0.0000032799  -0.0000107885   0.0000049826  -0.0000036620
       -0.0005273737   0.0003583528   0.0000432532   0.0009461354  -0.0000316272
        0.0012613905
        0.0125686720  -0.0065025911  -0.0328394184   0.0389197520  -0.1081590005
       -0.0819980462   0.0123701972   0.2748880624   0.2544824828  -0.0704316859
       -0.1102037546  -0.1186334615  -0.0186730744   0.0013655777  -0.0004482522
        0.0046861246  -0.0031272852  -0.0022033594  -0.0020170425  -0.0010302383
       -0.0011641345   0.0010183336   0.0002130485   0.0002761638  -0.0016620896
        0.0010956084   0.0005520014   0.0028865909   0.0035147136   0.0021652620
        0.0212049803  -0.0530746128  -0.0022827481   0.0036045178   0.0008058193
       -0.0015925597   0.0010414241   0.0065043073  -0.0002488954  -0.0000971465
       -0.0000782449  -0.0002449047  -0.0001465726  -0.0015385104   0.0000047813
        0.0001555829  -0.0000445543   0.0000299854  -0.0000471851   0.0000048294
        0.0000323781  -0.0003188977   0.0000050132  -0.0000084363   0.0000694770
        0.0001082083   0.0001239964  -0.0000210856   0.0000119989   0.0000047531
        0.0000095331   0.0000043666  -0.0000301559  -0.0000039921  -0.0000021567
        0.0000061490   0.0000123735  -0.0000110857  -0.0000015829  -0.0000287242
       -0.0000013728   0.0000049737   0.0008197893   0.0066588424   0.0005286615
        0.0024515592   0.0007106034   0.0009336530  -0.0083890840  -0.0075858511
       -0.0175716912   0.0005555930   0.0000456413   0.0001405674  -0.0000243083
        0.0000497167   0.0000695649  -0.0000374474   0.0000470337   0.0000112754
        0.0000085304  -0.0000702427   0.0000063162   0.0001258832   0.0001720143
        0.0000695839  -0.0004734420  -0.0023485421   0.0000966017   0.0001448688
       -0.0000252442  -0.0000098271  -0.0000195565  -0.0000292669  -0.0000541024
        0.0000059724   0.0000024049  -0.0000021777  -0.0000025336  -0.0000066681
        0.0000039024  -0.0000047501   0.0000025776   0.0000048187  -0.0000004231
        0.0000051610  -0.0000013877   0.0000031944  -0.0000032365   0.0000061688
        0.0001081072  -0.0000444594  -0.0000145140  -0.0003720154  -0.0023286304
       -0.0002043854
        0.0198948040  -0.0341476419  -0.0350050616   0.0521712767  -0.0784835786
       -0.1734600721   0.0910678694   0.2544824828   0.5381656539  -0.1313172605
       -0.1244488980  -0.2360028248  -0.0291651960  -0.0001582692  -0.0049270690
        0.0057559034  -0.0038146749  -0.0035109039  -0.0022391911  -0.0013345462
       -0.0014755394   0.0013391068  -0.0000442086   0.0001320780  -0.0026287283
        0.0012964115   0.0007713660   0.0039263332   0.0032906437   0.0061737564
        0.0038752786  -0.0044327088  -0.0603000443   0.0237175577  -0.0019548181
        0.0001656939   0.0033302272  -0.0000435219  -0.0035761395  -0.0010803089
        0.0003262841  -0.0005012828   0.0006432286  -0.0000187174  -0.0000383833
        0.0000247117  -0.0000417976  -0.0002437147  -0.0000468246   0.0000048716
        0.0001676326  -0.0002575558  -0.0000173602   0.0002480987   0.0001310320
       -0.0000163279   0.0000046511  -0.0000308274  -0.0000097205   0.0000258951
        0.0000289640  -0.0000047612   0.0000048446  -0.0000139380   0.0000006823
        0.0000052865   0.0000227616   0.0000079379  -0.0000043922  -0.0000238040
        0.0000293313  -0.0000175339  -0.0015005624   0.0002409195  -0.0044548021
       -0.0271948510   0.0027348170  -0.0025388132  -0.0103893118  -0.0127890119
       -0.0213099913   0.0002795652   0.0000551299   0.0002216477  -0.0000140534
        0.0000412317   0.0001068763  -0.0000533451   0.0000322858   0.0000450491
       -0.0000248478   0.0000814014  -0.0001790836   0.0002149226   0.0002502132
        0.0000196501   0.0004333107  -0.0006810311   0.0007393161   0.0012324334
       -0.0003118994  -0.0001412764  -0.0000529194  -0.0000531783   0.0000039621
       -0.0000011522  -0.0000074358  -0.0000020748   0.0000030009  -0.0000024276
        0.0000004063   0.0000021669  -0.0000016425   0.0000006636   0.0000067775
        0.0000001646  -0.0000009012   0.0000074493  -0.0000068419  -0.0000061619
       -0.0012339962   0.0001908062  -0.0001136631  -0.0008400074  -0.0002405948
        0.0008072012
       -0.0067114766   0.0081863772   0.0102553337   0.0169187692  -0.0147389602
       -0.0132265455  -0.1827446455  -0.0704316859  -0.1313172605   0.6050602690
        0.0095415521   0.1073645301  -0.2270093242   0.0119556124  -0.0167848552
       -0.0386099446   0.0173995114   0.0107674956   0.0058305573   0.0055260117
        0.0043129261  -0.0041472856   0.0001284794  -0.0003134584   0.0065988483
       -0.0050031653  -0.0032579340  -0.0370030447  -0.0153351997  -0.0214048764
       -0.0436378091  -0.0095431927  -0.0227217392   0.0021958798  -0.0026160834
       -0.0042719263  -0.0012600451   0.0010270988  -0.0010971870   0.0019097426
       -0.0001683754  -0.0005695411  -0.0010638830  -0.0003213943   0.0002544178
        0.0000348228   0.0001014717   0.0001080339   0.0000120382  -0.0000471039
       -0.0000117006   0.0003747140   0.0001372413  -0.0004174072  -0.0002083202
        0.0000157602   0.0000312836   0.0000771253   0.0000306447  -0.0000292716
       -0.0000427698  -0.0000162663   0.0000067484   0.0000118189  -0.0000098211
       -0.0000008170  -0.0000347396   0.0000096887  -0.0000050060   0.0000628657
       -0.0000269595   0.0000066064  -0.0032474383   0.0014045814   0.0000630116
       -0.0001803694   0.0009116630   0.0043896973  -0.0929538501   0.0623403387
        0.0774389683   0.0011109632  -0.0008233425  -0.0005262977  -0.0005285424
        0.0000115772  -0.0003369829   0.0000990838  -0.0000238358   0.0000639604
       -0.0006237336   0.0000547980   0.0001411251   0.0009512983   0.0013638738
        0.0014251448  -0.0009525052  -0.0008039501  -0.0000914638   0.0001491304
        0.0001048483  -0.0001226376   0.0000048202   0.0000173266  -0.0000024851
       -0.0000059419   0.0000049073  -0.0000003947   0.0000099683   0.0000105249
       -0.0000115584   0.0000209205  -0.0000033476  -0.0000041373   0.0000060854
       -0.0000157471   0.0000028090  -0.0000016577  -0.0000057211   0.0000070468
       -0.0003317092  -0.0000812607   0.0000342632  -0.0001406855  -0.0002684763
       -0.0001479186
        0.0007182874   0.0033263426   0.0029017812  -0.0048173756  -0.0182118726
       -0.0257276423  -0.0915955778  -0.1102037546  -0.1244488980   0.0095415521
        0.3098611364   0.2649140662   0.0248524131  -0.0602750265  -0.0074737878
        0.0192363680  -0.0004420264   0.0031392359   0.0040528635  -0.0001161669
       -0.0042908153  -0.0005480158  -0.0008731221  -0.0004664954  -0.0010884104
       -0.0000361196  -0.0057977873  -0.0218256777  -0.0018248356  -0.0058564006
       -0.0065540149   0.0029294278   0.0011703794   0.0008989293  -0.0010944354
       -0.0005045345  -0.0002033935  -0.0001311287  -0.0004335149   0.0003680953
       -0.0000139086  -0.0003317653  -0.0002895850   0.0000044900   0.0000155766
       -0.0000007945   0.0000065381   0.0001060002  -0.0000016119   0.0000008628
       -0.0000492254   0.0001340406   0.0000257392  -0.0001092825  -0.0000613188
        0.0000062867   0.0000047997   0.0000231468   0.0000111821  -0.0000159334
       -0.0000092222   0.0000024716  -0.0000031827   0.0000028719  -0.0000018136
       -0.0000006601  -0.0000102585   0.0000004876   0.0000020928   0.0000214132
       -0.0000141401   0.0000030468  -0.0006558226   0.0001962182   0.0004593116
        0.0030042413   0.0012246487   0.0013041177   0.0664707064  -0.1229628316
       -0.1008146324   0.0002159364  -0.0003294013   0.0011869641   0.0011124149
       -0.0000477923  -0.0000018267  -0.0002010085  -0.0006053560   0.0008571407
       -0.0010849225  -0.0001037029  -0.0002255100  -0.0020411169  -0.0005241812
        0.0011513493   0.0001498304   0.0004280371  -0.0004405490   0.0000836763
       -0.0000057793  -0.0000561757   0.0000033921   0.0000220943  -0.0000015360
       -0.0000002250   0.0000069107   0.0000000682   0.0000022439   0.0000013791
        0.0000001167   0.0000015802   0.0000002685  -0.0000002238   0.0000015705
        0.0000000205   0.0000007888   0.0000002699  -0.0000029368   0.0000063982
        0.0000739539  -0.0001435333   0.0000326378   0.0000185544  -0.0000906766
       -0.0002054928
       -0.0003075328   0.0038419751   0.0066566978  -0.0043683104  -0.0278382376
       -0.0404490763  -0.1507127303  -0.1186334615  -0.2360028248   0.1073645301
        0.2649140662   0.4840636889   0.0039513792  -0.0077183904  -0.0604567963
        0.0074925599   0.0033865323   0.0051354138   0.0038995633  -0.0042520106
        0.0051304469  -0.0014964633  -0.0004249618  -0.0007097287   0.0000329951
       -0.0068055790   0.0021108787  -0.0242652305  -0.0059138396  -0.0085180577
       -0.0241626312   0.0015290740  -0.0005892790   0.0052613655  -0.0018715241
       -0.0039515182  -0.0020385380   0.0000794443  -0.0008736588   0.0019770156
       -0.0003196381   0.0001121700  -0.0010082796   0.0000063097   0.0002481501
        0.0000065577   0.0001375687   0.0001027888  -0.0000044257  -0.0000682618
       -0.0000081811   0.0004188403   0.0001125313  -0.0003930118  -0.0002085432
       -0.0000149297   0.0000013562   0.0000787906   0.0000206998  -0.0000259821
       -0.0000393288  -0.0000122227   0.0000109835   0.0000136016  -0.0000053724
       -0.0000010043  -0.0000347824   0.0000153393   0.0000005643   0.0000689178
       -0.0000187561  -0.0000069811  -0.0020790551   0.0002511127   0.0007905909
        0.0039042700   0.0000506535   0.0036187120   0.0758626331  -0.1041585312
       -0.1511542911   0.0006397633   0.0011752727  -0.0018210396   0.0007731876
       -0.0000914144  -0.0000519200   0.0001362829   0.0008968050  -0.0012141944
       -0.0009255986  -0.0001457453  -0.0001025763  -0.0013614933   0.0012810203
       -0.0014811740   0.0010080827   0.0006447323   0.0000446186   0.0000765612
        0.0000990118  -0.0000704432  -0.0000000064   0.0000341591   0.0000098591
       -0.0000083523   0.0000064815  -0.0000004739   0.0000101709   0.0000090659
       -0.0000069878   0.0000143705  -0.0000014993  -0.0000017303   0.0000110537
       -0.0000090266   0.0000051061  -0.0000010334  -0.0000049507   0.0000129801
        0.0000082718  -0.0000144509   0.0000207222   0.0000115707  -0.0001690517
       -0.0001847973
        0.0013353430  -0.0026636802  -0.0038897433  -0.0033524662   0.0068271838
        0.0082557661  -0.0393894595  -0.0186730744  -0.0291651960  -0.2270093242
        0.0248524131   0.0039513792   0.6118725254  -0.0481797093   0.0381184700
       -0.1411837077   0.1046754845   0.0590320727  -0.0459012442   0.0170309285
        0.0048428452   0.0074230593   0.0025668700   0.0036640202  -0.0331562118
       -0.0169023547  -0.0182315281  -0.1205629064  -0.0801882410  -0.0666392384
        0.0076123997  -0.0009482358  -0.0018613509  -0.0013119613   0.0008970732
        0.0013200643   0.0009801767  -0.0002090726   0.0004322992  -0.0008918886
        0.0001176418   0.0000729031   0.0005785684   0.0000702625  -0.0001299625
        0.0000117753  -0.0000909057  -0.0000289264  -0.0000210820   0.0000399818
        0.0000067943  -0.0002083186  -0.0000628570   0.0002077585   0.0001122148
       -0.0000032704  -0.0000052281  -0.0000482127  -0.0000034915   0.0000072242
        0.0000239459   0.0000161694  -0.0000113469  -0.0000069170   0.0000046665
        0.0000018829   0.0000190144  -0.0000112319   0.0000052877  -0.0000340606
        0.0000090455   0.0000053141   0.0010590820  -0.0002144079  -0.0006430800
       -0.0026970128  -0.0003013999  -0.0015762373  -0.0172453842   0.0080369940
       -0.0000652484   0.0066336909  -0.0088533059  -0.0039274331  -0.0055381286
        0.0006100516  -0.0013219233   0.0009816962  -0.0000663082   0.0002899204
       -0.0054240976   0.0005876009  -0.0017832168   0.0055810273   0.0109078650
        0.0086713861  -0.0001626383   0.0001267639   0.0001587880  -0.0000190163
       -0.0000761363   0.0000453865  -0.0000078258  -0.0000061412  -0.0000099749
        0.0000027582  -0.0000005533  -0.0000018793  -0.0000095662  -0.0000069037
        0.0000081372  -0.0000166655   0.0000033473   0.0000026931  -0.0000047356
        0.0000109267  -0.0000022025   0.0000029266  -0.0000033012  -0.0000019935
       -0.0000339997   0.0000781390  -0.0000018653   0.0000066275  -0.0000048272
        0.0001971819
       -0.0000081155   0.0006282847  -0.0007238418  -0.0007530156  -0.0027323233
        0.0027488766  -0.0119510307   0.0013655777  -0.0001582692   0.0119556124
       -0.0602750265  -0.0077183904  -0.0481797093   0.4516056981   0.2411300073
        0.0611472060  -0.1872133085  -0.0903046275   0.0604762666   0.0157599152
        0.0191187793   0.0022801087  -0.0413640656  -0.0255791117  -0.0602006227
        0.0185748551   0.0030599535  -0.0357838305  -0.1736668433  -0.1006170119
       -0.0000367557   0.0056791775  -0.0059861078   0.0010443884   0.0000683008
       -0.0000328322  -0.0001566091  -0.0003158604  -0.0001641322   0.0000498009
       -0.0000121920   0.0001895013   0.0000321251   0.0001087278   0.0000173620
       -0.0000042532   0.0000159312  -0.0000433190  -0.0000001462  -0.0000093543
        0.0000286165   0.0000160625   0.0000062576   0.0000148385  -0.0000033914
       -0.0000133796  -0.0000133748   0.0000039388  -0.0000058100   0.0000046472
       -0.0000013065  -0.0000057089   0.0000076526  -0.0000025749   0.0000003185
       -0.0000001614  -0.0000017031   0.0000073226  -0.0000032210   0.0000033018
        0.0000057057  -0.0000056397  -0.0000746146  -0.0005943208  -0.0005229559
       -0.0018018406   0.0003854125  -0.0000688578   0.0169147610  -0.0016122748
       -0.0025417137   0.0100893495  -0.0166560325  -0.0114982308   0.0004524620
        0.0038110964  -0.0034246273  -0.0000426309  -0.0006791634  -0.0000467854
        0.0009782650   0.0037636927  -0.0030755172  -0.0063953192  -0.0168248081
       -0.0140513454   0.0000791323  -0.0000013208   0.0001687859   0.0000231405
        0.0000176922   0.0000137629  -0.0000027707  -0.0000067148   0.0000049423
       -0.0000032779  -0.0000011490  -0.0000006783   0.0000009207   0.0000024941
       -0.0000025164   0.0000028736  -0.0000004052  -0.0000015598   0.0000014199
       -0.0000023684   0.0000007113  -0.0000014391   0.0000003175  -0.0000019729
       -0.0001447808   0.0000219715  -0.0000086205  -0.0000013977   0.0001636809
        0.0000869850
       -0.0000374858  -0.0006370226  -0.0001147353  -0.0005320206   0.0031685848
       -0.0001455278  -0.0229802515  -0.0004482522  -0.0049270690  -0.0167848552
       -0.0074737878  -0.0604567963   0.0381184700   0.2411300073   0.3240643920
        0.0294701509  -0.0845482094  -0.1090114105   0.0388258315   0.0142302634
        0.0170734263   0.0040303420  -0.0263440371  -0.0256188824  -0.0506521128
        0.0110185722   0.0013759574  -0.0366558628  -0.1071529070  -0.1388377517
       -0.0012841391  -0.0060851413   0.0009428898  -0.0005610788   0.0003334607
       -0.0000275832   0.0001328968   0.0003855262   0.0002089906  -0.0000291230
       -0.0000197931  -0.0000563971   0.0000173733  -0.0001234701   0.0000037380
        0.0000123916  -0.0000266701   0.0000200208  -0.0000033980   0.0000164817
       -0.0000101927  -0.0000309982  -0.0000047356   0.0000012572   0.0000051402
        0.0000132242   0.0000150001  -0.0000078318   0.0000079657  -0.0000044654
        0.0000002654   0.0000073949  -0.0000086288   0.0000009238   0.0000009724
       -0.0000002879   0.0000008088  -0.0000079948   0.0000031062  -0.0000055720
       -0.0000042141   0.0000078796   0.0000828267   0.0006293518   0.0000895961