59
 energy: -96.089561660948 gnorm: 0.000043124951 xtb: 6.7.1 (edcfbbe)
C           -7.71038830930592       -0.97746746841724       -1.95618073518908
C           -6.57698739685809       -1.55370035555924       -2.52526071856645
C           -5.32348610840348       -1.38611770550679       -1.96626763317046
C           -5.22736193665013       -0.63031197749836       -0.80697466820824
C           -6.36746619274404       -0.02053928599481       -0.23727238330378
C           -7.61639714635009       -0.20189517221558       -0.81750523865506
C           -5.91001446554949        0.72025011526060        0.90661614065092
C           -6.55743902954371        1.49330785475205        1.86178834018539
C           -5.80764182103209        2.06174906789691        2.87267970958515
C           -4.43272381446765        1.85228127997703        2.94753124479721
C           -3.76683134993887        1.08643269131671        2.00831351789705
C           -4.51053364807275        0.53645295330839        0.97420235841883
N           -4.10769328154149       -0.28335659839313       -0.06789919945531
C           -2.79929754595323       -0.68513612160812       -0.33322262835141
C           -2.49168815010149       -2.02406631934103       -0.59346950418841
N           -1.26802019989514       -2.44616415158144       -0.84957716979512
C           -0.28045468207886       -1.57217294953608       -0.85130987278062
C           -0.46062745527546       -0.20891504208951       -0.59737122469103
C            0.69076637712509        0.69706623593006       -0.61232086432103
C            0.58882664647937        2.06797449125750       -0.85601066290861
N            1.64349039117997        2.86494548683497       -0.75236665601280
C            2.81280699600079        2.32339097116172       -0.48363127554574
C            2.95668891098387        0.92895083669261       -0.36050276926540
N            4.17752822852561        0.32560144166216       -0.15215887671438
C            5.41609646627403        0.77268685002072       -0.60729763124256
C            5.72831936108098        1.78753840057569       -1.49962308360665
C            7.06179253015459        1.99668979718661       -1.80730177416499
C            8.06791753842384        1.20909414628016       -1.25696389841711
C            7.76057569208929        0.16613223172300       -0.40452925584772
C            6.42914232847764       -0.06175861217693       -0.08565775106971
C            5.77282959404868       -1.06874058147797        0.70600029431885
C            6.24405465488230       -2.13830991294683        1.45538313897073
C            5.32885292853489       -2.93819012434997        2.11209806416168
C            3.96431786981230       -2.67594123867618        2.03084974937032
C            3.47421909580965       -1.61459265664099        1.29018536156815
C            4.38803780583055       -0.81600108759115        0.62233112194182
N            1.88394531213578        0.14602214594608       -0.39002585177025
C           -1.75369233869550        0.23565301344897       -0.33844174515741
H           -8.67236728571804       -1.13395693414152       -2.42129289540692
H           -6.67752038933456       -2.14229251121748       -3.42521142269280
H           -4.45053213831130       -1.82287863794842       -2.42754608447872
H           -8.49178964181101        0.25923047077934       -0.38586749802455
H           -7.62590812268473        1.63903797446318        1.81375515626958
H           -6.29073085399905        2.66913398972898        3.62362279785284
H           -3.87295025171048        2.29390738633738        3.75892083850385
H           -2.70400417129219        0.91532123686412        2.09296983078415
H           -3.26123999030283       -2.78383089902308       -0.57452905466021
H            0.70558826242285       -1.95953440463993       -1.06375953047958
H           -0.34055843887212        2.54803514622325       -1.12401767255477
H            3.63512218319340        3.00562249165875       -0.32833600408624
H            4.96494692290650        2.38971330054480       -1.96759623800891
H            7.32243584646344        2.78613637644453       -2.49641598800837
H            9.09704028290492        1.40677647292157       -1.51645019330442
H            8.53440284270569       -0.46812397740149       -0.00035118615342
H            7.30314740439253       -2.33477388465538        1.52139477572494
H            5.67292794401171       -3.77768431098832        2.69760887188344
H            3.26923222049616       -3.31508058081474        2.55478648141190
H            2.41606007006736       -1.42042306185016        1.22632915305515
H           -1.95476355091542        1.27682070707118       -0.13684710710531
