$hessian                                                                        
        0.4632652812   0.0024674327  -0.0375679507  -0.1400276826  -0.0014885351
       -0.0544224270  -0.0283679089  -0.0037897256  -0.0110686908  -0.0005887389
       -0.0013187666  -0.0029541799  -0.0093057502   0.0082962037  -0.0080978352
       -0.0007361577  -0.0002029837   0.0008722426   0.0002364373   0.0006442309
       -0.0002300259   0.0000591290  -0.0000891077  -0.0001855485   0.0002950938
        0.0000158119  -0.0003077648   0.0003492390  -0.0004777519  -0.0001384072
       -0.0000069363  -0.0000384779   0.0000122868  -0.0000053011  -0.0000081087
       -0.0000278120  -0.0000139632   0.0000045401  -0.0000071089   0.0000075315
        0.0000022264  -0.0000029709  -0.0000363153   0.0000078614  -0.0000214363
        0.0000642650  -0.0001154539   0.0000396979  -0.0001154826   0.0001302720
       -0.0000691803   0.0000943227   0.0000282848   0.0000788718   0.0000165114
        0.0000172936   0.0000183080   0.0000172295  -0.0000142355   0.0000058950
       -0.0000209764   0.0000248989  -0.0000089054   0.0000459320  -0.0000147690
        0.0000221513  -0.0000363149   0.0000020876  -0.0000222532   0.0000208545
        0.0000188922   0.0000153189   0.0000049991  -0.0000086297   0.0000024956
       -0.0000050653  -0.0000044238  -0.0000033097  -0.0000149632   0.0000069222
       -0.0000059115   0.0000524970   0.0000309031   0.0000384980  -0.0000032566
        0.0000043347  -0.0000199666  -0.0000398886  -0.0000558981  -0.0000180892
       -0.0000780819  -0.0000110654   0.0000715273   0.0000259772   0.0000003816
       -0.0000174787  -0.0000128719  -0.0000010134   0.0000136028   0.0000029205
       -0.0000005598  -0.0000047065  -0.0000117259   0.0000323398   0.0000140058
       -0.0000088994  -0.0000089806   0.0000016596   0.0000237366  -0.0000087960
       -0.0000055150   0.0000130670   0.0000036205  -0.0000040693   0.0000035637
        0.0000015115   0.0000003853  -0.0000022196  -0.0000065043   0.0000034004
        0.0000068768   0.0000054501  -0.0000028978  -0.0000118514  -0.0000025634
        0.0000078337   0.0000073674  -0.0000044704  -0.0000032615   0.0000010997
        0.0000009186   0.0000006182   0.0000046089  -0.0000049721  -0.0000028889
       -0.0000034932   0.0000010818   0.0000021628   0.0000210560  -0.0000251264
       -0.0000129233   0.0000055056  -0.0000024389  -0.0000044990   0.0000170203
       -0.0000522209  -0.0000655567   0.0000182888   0.0000117158  -0.0000154281
       -0.0000039021   0.0000221869   0.0000033131   0.0000010295  -0.0000012013
        0.0000027069  -0.0000063986  -0.0000051353  -0.0000016475  -0.0000040999
       -0.0000037339  -0.0000004549  -0.0000023810  -0.0000062626   0.0000017455
       -0.0000024704  -0.0000086569  -0.0000008051   0.0000029941   0.0000076992
        0.0000032171  -0.0000035695  -0.0000059939  -0.0000171575  -0.0000847951
        0.0000770428  -0.0000338589  -0.0573017611   0.0555144802  -0.0104995440
       -0.1768992735  -0.0792738335   0.0876637189  -0.0488118360   0.0189424360
        0.0349644069   0.0007669895   0.0002340020  -0.0011539818   0.0007518997
        0.0007491137  -0.0006644197  -0.0045886921  -0.0021501594   0.0019508920
        0.0006131411   0.0004846232   0.0006862687   0.0003069436   0.0002997594
        0.0007322232   0.0007044106   0.0005168402   0.0007179065  -0.0001126338
        0.0001039583   0.0000181032   0.0000469908   0.0000535999   0.0000310238
       -0.0005605760   0.0004025607  -0.0003713188   0.0000078954  -0.0000052732
        0.0000151549   0.0000054481  -0.0000049819   0.0000064250  -0.0000360804
        0.0000453204  -0.0000194799   0.0000229929  -0.0000425938   0.0000133231
       -0.0000212057   0.0000001551  -0.0000123337  -0.0000176264  -0.0000153006
       -0.0000118301  -0.0000054097   0.0000008887  -0.0000031103  -0.0000032393
       -0.0000097839  -0.0000033734   0.0000003018  -0.0000107454  -0.0000012390
        0.0000079840  -0.0000039670   0.0000020626   0.0000104362   0.0000114482
        0.0000300182   0.0000117434   0.0000170738  -0.0000129104  -0.0000008832
        0.0000170296   0.0000121445   0.0000012246   0.0000079290   0.0000071037
       -0.0000163142  -0.0000032909   0.0000005237  -0.0000018456   0.0000038600
       -0.0000014617  -0.0000066421  -0.0000020121   0.0000047031  -0.0000070754
        0.0000018379   0.0000042048  -0.0000056395   0.0000000527   0.0000021584
       -0.0000056878   0.0000039454   0.0000010538  -0.0000026330   0.0000063400
       -0.0000006580  -0.0000004679   0.0000021899  -0.0000021800   0.0000178575
        0.0000040003   0.0000007990  -0.0000008001   0.0000049313   0.0000242844
       -0.0000020867   0.0000036556  -0.0000035657   0.0000029038   0.0000000841
       -0.0000023485   0.0000010658   0.0000016678  -0.0000013100  -0.0000010026
        0.0000008264   0.0000009364   0.0000003513   0.0000002037  -0.0000035465
        0.0000028304  -0.0000011005   0.0000009563  -0.0000010685   0.0000026356
       -0.0000017388   0.0000041617   0.0000022983   0.0000003094  -0.0000004144
        0.0000015326  -0.0000014131  -0.0000009386   0.0000022375  -0.0000012794
        0.0000014692  -0.0000003695   0.0000009907  -0.0000001807   0.0000003121
        0.0000223258
        0.0024674327   0.5234844076   0.0051409648   0.0047575575  -0.0610772981
        0.0011813225  -0.0107806576  -0.0002299319  -0.0050493073  -0.0111506501
       -0.0022333601  -0.0118934068   0.0215825058  -0.0062743651   0.0167454347
        0.0011765941  -0.0025183263  -0.0003128825  -0.0010826660  -0.0010966938
        0.0005115806  -0.0000321111  -0.0000257094   0.0004443506  -0.0007775453
        0.0005914292   0.0001815755   0.0010403871  -0.0008995141  -0.0000680883
       -0.0000323552   0.0000766252  -0.0000881048   0.0001129040   0.0000075434
        0.0000749618   0.0000107527   0.0000207404  -0.0000220395  -0.0000071721
        0.0000341362  -0.0000086957   0.0001144466   0.0000109108   0.0000529527
       -0.0001396805  -0.0000260891  -0.0000899933   0.0000383664  -0.0000821070
        0.0000317715   0.0000450358   0.0000460601   0.0000319842   0.0000400920
       -0.0000429700   0.0000175354  -0.0000080111   0.0000105564  -0.0000041760
        0.0000076322   0.0000040296   0.0000005066  -0.0000096070  -0.0000198594
       -0.0000117039  -0.0000302136   0.0000135431  -0.0000159613   0.0000086822
        0.0000041804   0.0000066382  -0.0000095136   0.0000059859  -0.0000059084
        0.0000207587   0.0000152745   0.0000144020  -0.0000014874  -0.0000191641
       -0.0000070004   0.0000492489   0.0001047136   0.0000225652  -0.0000163376
        0.0000051155   0.0000288518  -0.0000211570   0.0000324114   0.0000311922
       -0.0001103645  -0.0000530905   0.0000720839   0.0000217145   0.0000290960
       -0.0000027655   0.0000128307   0.0000123385  -0.0000136007  -0.0000819768
       -0.0000156298   0.0000483006   0.0001081659   0.0000079087  -0.0000756306
       -0.0000352097  -0.0000735539   0.0000155669  -0.0000042028   0.0000187995
       -0.0000030065  -0.0000114986  -0.0000152725   0.0000100562   0.0000043971
        0.0000004848  -0.0000017317  -0.0000037057   0.0000005017   0.0000033766
        0.0000187974  -0.0000113707  -0.0000079658   0.0000135713   0.0000139398
       -0.0000089372  -0.0000035723  -0.0000028697   0.0000019829   0.0000061054
        0.0000057365  -0.0000039962  -0.0000151334   0.0000065765   0.0000056508
        0.0000017161  -0.0000175867  -0.0000011187  -0.0000252665   0.0000587772
        0.0000282543  -0.0000080362  -0.0000185468  -0.0000108221   0.0000173181
        0.0000210623  -0.0000065409   0.0000370484  -0.0000786134   0.0000192291
        0.0000035491   0.0000589142   0.0000580381  -0.0000038577   0.0000255729
        0.0000637951  -0.0000174156   0.0000252706  -0.0000094449   0.0000161631
       -0.0000240410   0.0000010325   0.0000018728  -0.0000188515  -0.0000260410
       -0.0000088303  -0.0000288175   0.0000056282  -0.0000040498  -0.0000402084
       -0.0000800532  -0.0000104235  -0.0000065757  -0.0001186948   0.0001575508
        0.0001520845   0.0000655666   0.0559074172  -0.2572873371   0.0451234823
       -0.0792875378  -0.0913136773   0.0514035819   0.0188170786  -0.0997810043
       -0.1001985822   0.0004525753   0.0002445295  -0.0000804605  -0.0006506563
        0.0006105971  -0.0006203731  -0.0026201811  -0.0005568748   0.0007401837
       -0.0002602555  -0.0016104499  -0.0033581300  -0.0010707858   0.0006120228
       -0.0009923287  -0.0002154724   0.0003294170   0.0003369464   0.0003587575
        0.0000453339   0.0000144292   0.0000477239  -0.0002555277   0.0001599254
        0.0011494075  -0.0007917400   0.0005527854   0.0000086012  -0.0000068532
        0.0000068166  -0.0000175311  -0.0000152677   0.0000001033  -0.0000380103
       -0.0000461108  -0.0000157177  -0.0000199687   0.0000285624  -0.0000091391
       -0.0000179068   0.0000089358  -0.0000112101  -0.0000115203   0.0000026048
       -0.0000085533  -0.0000107862  -0.0000032021  -0.0000074502  -0.0000052230
       -0.0000063819  -0.0000049962  -0.0000020310  -0.0000083162  -0.0000031590
       -0.0000011516  -0.0000026976  -0.0000012888  -0.0000210799  -0.0000113679
       -0.0000343353   0.0000065719  -0.0000322252   0.0000188233  -0.0000002971
       -0.0000152923  -0.0000052313   0.0000152262  -0.0000104242  -0.0000200251
        0.0000100346  -0.0000102800  -0.0000001274   0.0000054210   0.0000088928
       -0.0000040667   0.0000059039   0.0000040416  -0.0000028972   0.0000061694
        0.0000003212  -0.0000018626   0.0000060806  -0.0000012733  -0.0000021778
        0.0000038602  -0.0000037391  -0.0000000286   0.0000009499  -0.0000036905
        0.0000013072   0.0000015747   0.0000004521   0.0000018761   0.0000247815
       -0.0000007563  -0.0000003717  -0.0000531438  -0.0000083404   0.0000193149
        0.0000093706  -0.0000284129  -0.0000321289  -0.0000004222   0.0000040914
        0.0000051300  -0.0000049284  -0.0000244061  -0.0000103087   0.0000041965
        0.0000081903   0.0000043180  -0.0000016817   0.0000075367   0.0000044276
       -0.0000027193   0.0000071533   0.0000053918   0.0000051972  -0.0000223796
       -0.0000014708  -0.0000010262   0.0000064918   0.0000048735  -0.0000056443
        0.0000067807   0.0000044466   0.0000138491  -0.0000195681  -0.0000096683
        0.0000075222  -0.0000271984   0.0000271208   0.0000012017   0.0000145291
        0.0000312711
       -0.0375679507   0.0051409648   0.5012330594  -0.0554216292  -0.0028307739
       -0.0996511259   0.0089266787   0.0001414707   0.0053591181  -0.0207930127
       -0.0050226080  -0.0227140830  -0.0096487411   0.0079275836  -0.0065734302
       -0.0003778721   0.0005162197   0.0005870687   0.0003343530   0.0005481019
       -0.0003006521   0.0000983555  -0.0002076256  -0.0000728629   0.0003483311
        0.0003634629  -0.0001809540  -0.0003539111  -0.0010492585  -0.0009022929
       -0.0000344225  -0.0000039695   0.0000094913  -0.0000043682  -0.0000349535
        0.0000002969   0.0000233911  -0.0000005055  -0.0000101348   0.0000016437
        0.0000055068  -0.0000110114  -0.0000122368  -0.0000020943  -0.0000185647
        0.0000330997  -0.0001069613  -0.0000328511  -0.0000842216   0.0000794637
       -0.0000150125   0.0000983025   0.0000349520   0.0000100406   0.0000577482
        0.0000188375   0.0000190323   0.0000263065  -0.0000028402   0.0000114782
       -0.0000116103   0.0000165812  -0.0000058782   0.0000332000  -0.0000128542
        0.0000196567  -0.0000326772   0.0000053977  -0.0000207665   0.0000251058
        0.0000169950   0.0000113827   0.0000061488  -0.0000034889   0.0000022543
        0.0000049773   0.0000016546   0.0000003452  -0.0000102014   0.0000048005
       -0.0000113608   0.0000425065   0.0000494306   0.0000506086  -0.0000359607
        0.0000424869  -0.0000174983  -0.0000131869   0.0000520717   0.0000312585
       -0.0000107695  -0.0000060128   0.0000206153  -0.0000026340   0.0000007969
       -0.0000134942  -0.0000107499  -0.0000051241  -0.0000023324  -0.0000066708
       -0.0000052077   0.0000136760   0.0000129047  -0.0000125527  -0.0000142452
        0.0000064895   0.0000011648  -0.0000019644  -0.0000146433   0.0000029658
       -0.0000011688  -0.0000073240  -0.0000008096   0.0000038482  -0.0000014509
        0.0000028672   0.0000018225   0.0000029260   0.0000013856   0.0000005810
       -0.0000001757  -0.0000033830   0.0000035941   0.0000065725   0.0000025994
       -0.0000049467  -0.0000040981   0.0000025931   0.0000009584   0.0000016027
       -0.0000010797   0.0000023282  -0.0000012394   0.0000005627   0.0000028779
        0.0000009705   0.0000007659  -0.0000008693  -0.0000147812   0.0000166618
        0.0000091771   0.0000095273   0.0000035786   0.0000023566  -0.0000004476
       -0.0000128325  -0.0000233858   0.0000098929   0.0000077531  -0.0000406509
       -0.0000055722   0.0000274548   0.0000189221  -0.0000021780   0.0000035952
        0.0000011010  -0.0000022745   0.0000048502  -0.0000013040   0.0000045280
       -0.0000034559  -0.0000055992   0.0000012125  -0.0000077190  -0.0000089033
        0.0000007486  -0.0000057501  -0.0000060505   0.0000079636   0.0000019289
       -0.0000143319   0.0000043515  -0.0000206631  -0.0000304938  -0.0001205945
        0.0000990420   0.0000200746  -0.0107526026   0.0448708156  -0.0523625058
        0.0881006265   0.0514429383  -0.1003611103   0.0347210010  -0.1003766033
       -0.2212794723   0.0008131538   0.0002004311   0.0008400256   0.0004145249
       -0.0002800731   0.0004008051   0.0029614092   0.0011604766  -0.0005536359
       -0.0002283590  -0.0031008417  -0.0049510111  -0.0005108618   0.0009943815
        0.0005622795  -0.0010857234   0.0001389803   0.0006018426  -0.0001910318
       -0.0000876837   0.0001474874  -0.0000168717   0.0000696860   0.0000280638
        0.0003849111  -0.0006841715   0.0001093926  -0.0000044531  -0.0000141939
        0.0000178544  -0.0000009319  -0.0000054390   0.0000110389  -0.0001245269
       -0.0000175070  -0.0000254065  -0.0000041806  -0.0000298993   0.0000063130
       -0.0000236915   0.0000001202  -0.0000095701  -0.0000184284  -0.0000146634
       -0.0000098306  -0.0000079430  -0.0000021387  -0.0000034346  -0.0000035369
       -0.0000113494  -0.0000021710  -0.0000006106  -0.0000124337  -0.0000007681
        0.0000037778  -0.0000108993   0.0000049510  -0.0000159023  -0.0000063872
        0.0000063346   0.0000210394  -0.0000202083   0.0000039898  -0.0000001356
       -0.0000029259   0.0000019357   0.0000045370  -0.0000041261  -0.0000008123
        0.0000118634   0.0000022019   0.0000012845   0.0000016927   0.0000000787
        0.0000006867   0.0000050715   0.0000010977  -0.0000014346   0.0000051091
       -0.0000015175  -0.0000007305   0.0000029549  -0.0000009936  -0.0000001606
        0.0000018821  -0.0000019992  -0.0000003701   0.0000014407  -0.0000034322
        0.0000005288  -0.0000002520  -0.0000035999   0.0000027870   0.0000077926
        0.0000078825   0.0000084271   0.0000105485   0.0000217959   0.0000084264
       -0.0000006646  -0.0000053891  -0.0000003686  -0.0000017619   0.0000015197
        0.0000007728  -0.0000009033  -0.0000023364   0.0000001906   0.0000007272
       -0.0000000398   0.0000045783  -0.0000004454   0.0000011548   0.0000021311
        0.0000012063   0.0000012368   0.0000036506   0.0000000192  -0.0000010972
        0.0000002543   0.0000018964   0.0000015516   0.0000028737  -0.0000017963
       -0.0000006563   0.0000035554   0.0000016818  -0.0000012909   0.0000000801
       -0.0000004537   0.0000002619   0.0000103835  -0.0000050312   0.0000032609
        0.0000310633
       -0.1400276826   0.0047575575  -0.0554216292   0.4572888445  -0.0079808765
       -0.0034604518  -0.1299198697  -0.0394699464   0.0472180526  -0.0668212466
        0.0121973417   0.0168539453  -0.0615669716   0.0266523048  -0.0061253085
        0.0010511901   0.0031184396  -0.0023872010   0.0065250811   0.0013257029
       -0.0001552181  -0.0000884205   0.0001425942  -0.0000680544   0.0059976107
        0.0015171841   0.0008851412  -0.0021336577   0.0064640980   0.0006922478
        0.0001710508   0.0002191793  -0.0000723344   0.0000190358  -0.0000863123
       -0.0000586665   0.0000051261   0.0000081950   0.0000105736  -0.0000299179
        0.0000071500  -0.0000039968  -0.0000377917  -0.0000245089  -0.0000186401
        0.0000161006  -0.0000523431   0.0000153335  -0.0000346133   0.0000470809
       -0.0000280529   0.0000380457   0.0000184954   0.0000430632   0.0000120456
        0.0000302790   0.0000205025   0.0000184730   0.0000116332   0.0000104950
       -0.0000115582   0.0000129594  -0.0000057157   0.0000183931  -0.0000019178
        0.0000078751  -0.0000144036  -0.0000004795  -0.0000099068   0.0000117216
        0.0000132241   0.0000094405   0.0000001565   0.0000009404   0.0000014269
        0.0000002232  -0.0000007105   0.0000007449  -0.0000079339   0.0000075308
       -0.0000014107   0.0000236036   0.0000100096   0.0000120500  -0.0000294274
        0.0000392692  -0.0000115240  -0.0000011794  -0.0000103104  -0.0000190586
       -0.0000270129   0.0000372167   0.0000396546  -0.0000008455   0.0000135898
       -0.0000154054  -0.0000092377  -0.0000012670   0.0000047583  -0.0000404420
       -0.0000009391   0.0000172971   0.0000271197   0.0000336353  -0.0000430430
       -0.0000216397  -0.0000391800   0.0000168651   0.0000196770  -0.0000034123
       -0.0000257907   0.0000129186  -0.0000126704  -0.0000087570   0.0000129227
       -0.0000083395  -0.0000061669  -0.0000075906  -0.0000067428   0.0000049616
        0.0000164349  -0.0000003854  -0.0000066136  -0.0000047351   0.0000040266
        0.0000033495   0.0000070006  -0.0000087174  -0.0000040314   0.0000021148
        0.0000029985   0.0000002358   0.0000002642   0.0000003562  -0.0000026512
       -0.0000027144  -0.0000105749  -0.0000008877   0.0000116631   0.0000063295
        0.0000055640  -0.0000176819  -0.0000459838  -0.0000110716   0.0000184658
       -0.0000178192   0.0000516472  -0.0000017923   0.0000063323   0.0000402266
       -0.0001322895  -0.0000024115  -0.0000002745  -0.0000099865   0.0000102828
        0.0000325827   0.0000220898   0.0000058219  -0.0000042144  -0.0000048432
       -0.0000048912  -0.0000001800  -0.0000022575  -0.0000083604  -0.0000029324
       -0.0000063045  -0.0000168998   0.0000022228   0.0001002947  -0.0000082359
       -0.0000345207  -0.0000207487   0.0000395024  -0.0000601101  -0.0012720641
       -0.0003572075  -0.0000010063  -0.0096655236   0.0034418814  -0.0073578055
       -0.0239779600  -0.0011397059  -0.0116477475   0.0023770050  -0.0010831922
        0.0000782487  -0.0060151538  -0.0012592344   0.0055864704   0.0025190950
       -0.0004076349  -0.0005317743  -0.0237606458  -0.0109122654   0.0103113449
        0.0023026173  -0.0135951656  -0.0196017689  -0.0017020477   0.0055092710
        0.0053722272  -0.0065349229   0.0121133200   0.0197612024  -0.0022128684
       -0.0005704744   0.0003441546  -0.0001825524  -0.0000199252   0.0000510337
       -0.0022480657  -0.0006642254  -0.0003119702   0.0000144803  -0.0000136106
        0.0000142406   0.0000049824  -0.0000092151   0.0000022299  -0.0000340985
       -0.0000203584  -0.0000351515  -0.0000091199  -0.0000259279  -0.0000112448
       -0.0000112455  -0.0000041936  -0.0000088939  -0.0000083418  -0.0000104494
       -0.0000070115  -0.0000044669  -0.0000032796  -0.0000034390  -0.0000009525
       -0.0000077793  -0.0000018319   0.0000009927  -0.0000075188  -0.0000004773
        0.0000061807  -0.0000076423   0.0000006119   0.0000091466  -0.0000074891
        0.0000047267   0.0000258711   0.0000130090   0.0000138271   0.0000017627
       -0.0000035195  -0.0000077003   0.0000068918   0.0000020466  -0.0000000070
       -0.0000185342   0.0000049699   0.0000188309  -0.0000088926   0.0000112300
        0.0000050739  -0.0000071364   0.0000022022   0.0000054086  -0.0000056019
        0.0000049912   0.0000042468  -0.0000035855   0.0000024691   0.0000022835
       -0.0000024837   0.0000041819   0.0000017781  -0.0000010544   0.0000059662
        0.0000012844   0.0000019332   0.0000081887   0.0000007131   0.0000022432
        0.0000093672   0.0000141400  -0.0000124201   0.0000494662  -0.0000070354
       -0.0000002437  -0.0000052972  -0.0000082656   0.0000031746  -0.0000001381
        0.0000026997   0.0000018462  -0.0000005774  -0.0000011431   0.0000042820
        0.0000026657   0.0000013705   0.0000007256   0.0000036356   0.0000002678
        0.0000009840   0.0000024105   0.0000017465   0.0000017252  -0.0000005704
       -0.0000008715   0.0000024981   0.0000056811  -0.0000007668   0.0000024560
        0.0000056201   0.0000012156   0.0000047164  -0.0000017507  -0.0000021917
        0.0000067975  -0.0000026374   0.0000025614  -0.0000152974   0.0000013877
        0.0000177284
       -0.0014885351  -0.0610772981  -0.0028307739  -0.0079808765   0.4824747718
        0.0148587849  -0.0325369220  -0.0797396133   0.0205910706   0.0121040771
       -0.1022008519  -0.0541532454   0.0259622879  -0.1667396298   0.0260708074
        0.0032047358  -0.0118251127   0.0105442186   0.0012702457   0.0014326083
        0.0007822974   0.0001826764  -0.0007931839   0.0003647383   0.0015020623
        0.0002131150  -0.0033985155   0.0064382272  -0.0275329744  -0.0034263792
        0.0002040850  -0.0004591736   0.0003853469  -0.0001523732   0.0000205271
       -0.0000828136   0.0000476831  -0.0000173949   0.0000639245  -0.0000196667
       -0.0000213053  -0.0000127810  -0.0000558111  -0.0000160608  -0.0000364997
        0.0000570265   0.0000093208   0.0000451277  -0.0000100302   0.0000171116
       -0.0000201661   0.0000074362  -0.0000213408   0.0000078196  -0.0000000666
        0.0000041981   0.0000049618   0.0000017383   0.0000067962   0.0000022182
       -0.0000023338  -0.0000122085  -0.0000028709   0.0000043273   0.0000050250
        0.0000022039   0.0000106254  -0.0000108523   0.0000030670  -0.0000039624
        0.0000032956  -0.0000027736   0.0000035542  -0.0000098155  -0.0000006142
        0.0000052945  -0.0000026939   0.0000006662   0.0000044100   0.0000098075
        0.0000052604  -0.0000169411  -0.0000280686   0.0000002177   0.0000091398
        0.0000141048  -0.0000108781   0.0000141753   0.0000356786   0.0000329263
        0.0000330449   0.0000724463  -0.0000327707  -0.0000319476  -0.0000207517
        0.0000161199   0.0000010477  -0.0000055850   0.0000108600   0.0000264020
       -0.0000003438  -0.0000285901  -0.0000395302   0.0000162804   0.0000242683
        0.0000012954  -0.0000059327   0.0000125168   0.0000086245  -0.0000160002
       -0.0000039912   0.0000000752  -0.0000036839  -0.0000017653   0.0000038112
        0.0000006184  -0.0000024717  -0.0000009693  -0.0000119170  -0.0000003092
        0.0000016928   0.0000050233  -0.0000025856  -0.0000095836  -0.0000076422
        0.0000077079   0.0000077185   0.0000001397  -0.0000037532  -0.0000006382
       -0.0000061399  -0.0000005753  -0.0000053993  -0.0000014316   0.0000015243
       -0.0000075273   0.0000025937   0.0000019155   0.0000168652  -0.0000182687
       -0.0000126745  -0.0000060052   0.0000028121   0.0000148546  -0.0000314496
        0.0000476954   0.0000529335   0.0000160609  -0.0001553652  -0.0001703351
       -0.0000263707  -0.0000323450  -0.0000109872   0.0000086323  -0.0000486301
       -0.0000439914   0.0000058104   0.0000067963   0.0000116501  -0.0000140154
        0.0000269955  -0.0000039398  -0.0000020582   0.0000208018   0.0000051287
       -0.0000051880   0.0000254807  -0.0000046315   0.0000041099   0.0000797058
        0.0000671474   0.0000255175  -0.0001025734   0.0002074942  -0.0003700977
        0.0001950638   0.0000064277   0.0237803744  -0.0038265387   0.0162929870
       -0.0108348754  -0.0000686527  -0.0066772052  -0.0114102033  -0.0007203862
       -0.0092031815   0.0108518720   0.0051903877  -0.0072213525  -0.0217039006
       -0.0163591105   0.0159133474  -0.0019612724  -0.0005103398  -0.0003961278
       -0.0012889482  -0.0012951184  -0.0028182604   0.0065372377  -0.0222402621
       -0.0221695115  -0.0011132976   0.0057325545   0.0071165318  -0.0005645001
        0.0000617037  -0.0014940415  -0.0000295778  -0.0000916804  -0.0002360849
       -0.0007129494   0.0003938419   0.0011685721  -0.0000028199   0.0000196286
       -0.0000343596   0.0000073935   0.0000014938  -0.0000098251   0.0000002110
        0.0000250492  -0.0000006085   0.0000002779  -0.0000074366  -0.0000003673
       -0.0000000845  -0.0000030996  -0.0000010494  -0.0000003302  -0.0000005623
       -0.0000008115  -0.0000003733  -0.0000018919  -0.0000017800  -0.0000014730
       -0.0000006253  -0.0000027503  -0.0000018877  -0.0000020699  -0.0000032031
       -0.0000024717  -0.0000056530  -0.0000058788  -0.0000012032  -0.0000078709
        0.0000033823  -0.0000081870  -0.0000267957  -0.0000028860   0.0000180390
        0.0000172145   0.0000021206   0.0000035042   0.0000087786   0.0000024002
       -0.0000092380   0.0000141687   0.0000030813  -0.0000038233   0.0000056736
        0.0000022599  -0.0000028531   0.0000011553   0.0000018886  -0.0000022356
        0.0000034441   0.0000003860  -0.0000001579   0.0000009891  -0.0000008931
        0.0000010015   0.0000023424  -0.0000019907   0.0000025702   0.0000015852
       -0.0000032556   0.0000051909  -0.0000002528  -0.0000054548   0.0000018892
        0.0000027048  -0.0000081919   0.0000578543  -0.0000741375  -0.0000569514
       -0.0000005321   0.0000097876   0.0000249945   0.0000062011  -0.0000094314
       -0.0000042412   0.0000026101   0.0000047323   0.0000045290   0.0000027192
       -0.0000096593  -0.0000020033   0.0000045747  -0.0000082913  -0.0000051469
        0.0000001922  -0.0000100278  -0.0000046280  -0.0000011006  -0.0000000526
        0.0000034008   0.0000001729  -0.0000094985  -0.0000048829   0.0000038134
       -0.0000075024  -0.0000016289  -0.0000041312   0.0000034189   0.0000043026
       -0.0000020729   0.0000135681  -0.0000074342   0.0000005831  -0.0000219004
       -0.0000627196
       -0.0544224270   0.0011813225  -0.0996511259  -0.0034604518   0.0148587849
        0.4737413831   0.0444176442   0.0233619755  -0.0905447023   0.0172554161
       -0.0562301766  -0.1434104268  -0.0048771931   0.0215012600  -0.0699938251
       -0.0056205985   0.0244771449  -0.0078152599  -0.0000569524   0.0007321029
       -0.0042209656  -0.0001203079   0.0005105121  -0.0009775756   0.0009310840
       -0.0038670236  -0.0025356173   0.0036983286  -0.0161635751   0.0058977368
        0.0002094548  -0.0010289102   0.0001648253   0.0001604645  -0.0000084876
        0.0001019591  -0.0000428355  -0.0000109827  -0.0000111261   0.0000078946
        0.0000045622   0.0000167556  -0.0000093410   0.0000009701  -0.0000261583
        0.0000167207  -0.0000301987  -0.0000050245  -0.0000302240   0.0000224865
       -0.0000094671   0.0000253118   0.0000042393   0.0000149686   0.0000099862
        0.0000226106   0.0000059819   0.0000121060   0.0000097098   0.0000050025
       -0.0000072336   0.0000032589  -0.0000020507   0.0000063480  -0.0000031300
        0.0000047591  -0.0000097900  -0.0000001221  -0.0000057261   0.0000079242
        0.0000091513   0.0000034993   0.0000010466   0.0000008251   0.0000013684
        0.0000021056   0.0000002697   0.0000008947  -0.0000073153   0.0000067126
       -0.0000034058   0.0000119391   0.0000092962   0.0000128110  -0.0000151843
        0.0000337330  -0.0000132077  -0.0000462105   0.0000274748   0.0000241821
       -0.0000561935  -0.0000473910   0.0000453929   0.0000196540   0.0000088689
       -0.0000327228  -0.0000063001   0.0000026332  -0.0000101164   0.0000181790
       -0.0000012834   0.0000019970  -0.0000071362  -0.0000208272   0.0000052861
        0.0000139362   0.0000174549  -0.0000062609  -0.0000120759  -0.0000000369
        0.0000041425  -0.0000078246   0.0000079513   0.0000027249  -0.0000071184
        0.0000069933   0.0000024148   0.0000042372   0.0000023007  -0.0000015307
       -0.0000056022  -0.0000002913   0.0000040274   0.0000035833  -0.0000009520
       -0.0000043124  -0.0000051747   0.0000048388   0.0000003888  -0.0000003673
       -0.0000027015   0.0000020942   0.0000007151  -0.0000000707   0.0000021408
        0.0000035563   0.0000072216  -0.0000019800  -0.0000089633   0.0000029550
        0.0000034437   0.0000198479   0.0000217591  -0.0000132584   0.0000043903
        0.0000220806  -0.0000213050   0.0000070530  -0.0000501181  -0.0001291589
        0.0000211217  -0.0000879728   0.0000504090   0.0000008152   0.0000006346
       -0.0000366007   0.0000042469  -0.0000116987   0.0000108183  -0.0000054857
        0.0000089982  -0.0000005683  -0.0000011615   0.0000027111   0.0000051736
        0.0000015787   0.0000095789  -0.0000014443   0.0000049190  -0.0000144758
        0.0000309073  -0.0000204860   0.0000858951  -0.0000375706   0.0000563106
       -0.0002950886  -0.0000805170  -0.0074960916   0.0024603853  -0.0055166694
        0.0098840050  -0.0002502118   0.0070355550  -0.0203933529  -0.0017782677
       -0.0186490995   0.0199108347   0.0078477091  -0.0162435159   0.0065315483
        0.0058731676  -0.0051970705  -0.0116713047  -0.0061031223   0.0071880656
       -0.0000223504  -0.0111116099  -0.0178630560  -0.0007243147   0.0018531301
        0.0048755846   0.0061075553  -0.0085148571  -0.0160560657  -0.0000063182
       -0.0000255936   0.0003095281  -0.0002900200   0.0011815822  -0.0004530645
        0.0000865299  -0.0004350256  -0.0000206873   0.0000033257  -0.0000040215
        0.0000031939   0.0000005430  -0.0000044585   0.0000028194  -0.0000094434
        0.0000105208  -0.0000077600  -0.0000054792  -0.0000148870  -0.0000038996
       -0.0000078806  -0.0000021812  -0.0000024550  -0.0000058740  -0.0000057241
       -0.0000026394  -0.0000032160  -0.0000015648  -0.0000008884  -0.0000010068
       -0.0000040172   0.0000000926  -0.0000008028  -0.0000050764   0.0000000599