$hessian                                                                        
        0.4585279930   0.0038953337  -0.0413101159  -0.1338916744  -0.0023742538
       -0.0517251723  -0.0292680389  -0.0039397263  -0.0113197763  -0.0007583776
       -0.0013588491  -0.0029707924  -0.0090717949   0.0104901457  -0.0084131335
       -0.0012284854  -0.0008539649   0.0014057919  -0.0000507091   0.0008685212
       -0.0002927319   0.0000572058  -0.0000762094  -0.0000562188   0.0001429902
        0.0004557331  -0.0004960301   0.0009042922  -0.0010382831  -0.0003825666
       -0.0001105194  -0.0000742714   0.0000307704  -0.0000504603  -0.0000173692
       -0.0000533730   0.0000488036   0.0000222875  -0.0000101569  -0.0000280713
        0.0000175828  -0.0000394330   0.0000365838   0.0000216269   0.0000053355
        0.0000226598  -0.0001077245   0.0000151008  -0.0001128400   0.0000922870
       -0.0000731007   0.0000898404   0.0000631710   0.0000766750   0.0000213965
        0.0000100993   0.0000170081   0.0000255867   0.0000189723   0.0000102533
       -0.0000063112  -0.0000236678  -0.0000087330   0.0000260488   0.0000452812
        0.0000144623  -0.0000379440  -0.0000570552  -0.0000330371   0.0000248895
        0.0000581122   0.0000203653   0.0000107436  -0.0000249507   0.0000030106
        0.0000031769   0.0000056807  -0.0000014418  -0.0000113423  -0.0000216615
       -0.0000083551   0.0000410277   0.0000539470   0.0000223382  -0.0000632540
       -0.0000315333  -0.0000337284   0.0000033134  -0.0000796574   0.0000248176
       -0.0000327031   0.0000069039   0.0000240599  -0.0000169143   0.0000359588
        0.0000375835   0.0000221384   0.0000625114   0.0000074193  -0.0000737821
       -0.0000104087   0.0000423463  -0.0000010510   0.0000347303   0.0000005138
       -0.0000007060   0.0000230385  -0.0000196323   0.0000584260  -0.0000268259
       -0.0000265287   0.0000010248  -0.0000305794   0.0000007377   0.0000421787
       -0.0000691950  -0.0000157428  -0.0000123961   0.0001073548  -0.0000036290
       -0.0000270550  -0.0000867826   0.0000257050  -0.0000646673   0.0000775407
        0.0000301651   0.0000179237  -0.0001209045   0.0000019017   0.0000236201
        0.0000710580  -0.0000199931  -0.0000108989   0.0000236987   0.0000043947
        0.0000268879   0.0000213573  -0.0000221315   0.0000472887  -0.0000581145
       -0.0000148184   0.0000317911  -0.0000587725  -0.0000441874  -0.0000446473
       -0.0000718432  -0.0000567690  -0.0000166365   0.0002265403   0.0003334883
        0.0000673263  -0.0002001348   0.0001360614  -0.0000482430   0.0002365825
        0.0001425445  -0.0000154786  -0.0000051068  -0.0000198982   0.0000106752
        0.0000104264   0.0000205801  -0.0000079384   0.0000012020  -0.0000078139
       -0.0000297017  -0.0000119243   0.0000253307   0.0000500936  -0.0002255161
       -0.0003274751  -0.0001194693   0.0003141043  -0.0001869026   0.0000383973
       -0.0002545436  -0.0001598644  -0.0555102051   0.0525805607  -0.0097737554
       -0.1791239515  -0.0786710671   0.0884444969  -0.0485773901   0.0191461992
        0.0351213197   0.0007902278   0.0002505459  -0.0011513531   0.0007762017
        0.0008151698  -0.0007278900  -0.0047589916  -0.0021378567   0.0019472770
        0.0005775651   0.0004951105   0.0006505252   0.0002985903   0.0003017146
        0.0007126287   0.0006875695   0.0005057116   0.0007595428  -0.0000251761
        0.0001222646   0.0000287840   0.0002025324   0.0000945322   0.0000178822
       -0.0005746882   0.0004152866  -0.0003985218   0.0000121228  -0.0000011129
        0.0000085058   0.0000058402  -0.0000012942   0.0000081804  -0.0000323311
        0.0000449337  -0.0000237795   0.0000222001  -0.0000384556   0.0000075314
       -0.0000188977   0.0000004704  -0.0000126527  -0.0000147689  -0.0000087328
       -0.0000138223  -0.0000044050   0.0000007718  -0.0000052450  -0.0000029337
       -0.0000077538  -0.0000001488  -0.0000031833  -0.0000094052  -0.0000018266
        0.0000076448  -0.0000043211  -0.0000001473   0.0000083302   0.0000163546
        0.0000268419   0.0000109534   0.0000103313  -0.0000135730  -0.0000000534
        0.0000080413   0.0000101613   0.0000117100  -0.0000022428   0.0000073271
       -0.0000216481  -0.0000022475   0.0000035286   0.0000012689   0.0000161315
       -0.0000049489   0.0000027608   0.0000051952   0.0000022693   0.0000050639
       -0.0000014647  -0.0000022213   0.0000053466  -0.0000048973  -0.0000044772
        0.0000033275  -0.0000076309   0.0000009079  -0.0000021119  -0.0000097115
        0.0000010378  -0.0000083122  -0.0000031328   0.0000022704   0.0000201958
        0.0000027949  -0.0000025216   0.0000085902   0.0000056906   0.0000154260
        0.0000000264   0.0000067820  -0.0000039004   0.0000053344  -0.0000001827
        0.0000021496  -0.0000070453   0.0000025117   0.0000035406  -0.0000028989
        0.0000012604  -0.0000051314   0.0000003571   0.0000006335   0.0000022502
       -0.0000025077   0.0000003381   0.0000050529  -0.0000015571  -0.0000069386
       -0.0000004879   0.0000090750   0.0000047328   0.0000016909   0.0000014138
       -0.0000027402  -0.0000081475   0.0000010176  -0.0000067699   0.0000025082
        0.0000066549   0.0000061617   0.0000015384  -0.0000010769   0.0000057673
        0.0000338986
        0.0038953337   0.5217929989   0.0060622181   0.0071409342  -0.0589262979
        0.0011515153  -0.0108826975   0.0000621327  -0.0047143746  -0.0109998640
       -0.0021476113  -0.0117714340   0.0200352045  -0.0073584395   0.0172988503
        0.0003273756  -0.0024349598  -0.0003603060  -0.0004346115  -0.0004839976
        0.0012417676   0.0003458729  -0.0007181485  -0.0002769741  -0.0003053273
        0.0008061687   0.0001496769   0.0004163985  -0.0007157797  -0.0005212331
        0.0000926341   0.0000579687   0.0000443990   0.0000619135  -0.0000344692
       -0.0000223952   0.0000257373   0.0000163522   0.0000098795  -0.0000041971
        0.0000800462  -0.0000011425   0.0001116342  -0.0000083416   0.0000671339
       -0.0001014139  -0.0000155645  -0.0000508723   0.0000085469   0.0000058058
        0.0000316184   0.0000045261  -0.0000176431   0.0000143167   0.0000606540
       -0.0000704394   0.0000356841  -0.0000353714  -0.0000913995  -0.0000277147
       -0.0000180456   0.0001913761   0.0000088754   0.0000722423  -0.0001764376
        0.0000205068   0.0000153191   0.0001868530   0.0000321608   0.0000195275
       -0.0001740109  -0.0000018897  -0.0000641122   0.0001137367  -0.0000226851
        0.0000273466   0.0000466232   0.0000328807  -0.0000527314   0.0000425876
       -0.0000213567   0.0000457889   0.0000192993  -0.0000017353   0.0000131101
       -0.0000074257   0.0000374253  -0.0000260655   0.0000581254   0.0000628192
        0.0000178360   0.0000236341  -0.0000598432  -0.0000060908   0.0000211075
        0.0000712491   0.0000079341   0.0000828855  -0.0000021568  -0.0001457963
       -0.0000127393   0.0001122042   0.0001417088   0.0000037641  -0.0000792314
       -0.0000518286  -0.0000178664  -0.0000090317   0.0000566283  -0.0000352163
       -0.0000254648  -0.0000266984  -0.0000586816   0.0000374675   0.0000699253
       -0.0001221631  -0.0000266073  -0.0000163251   0.0002138476  -0.0000049101
       -0.0000312097  -0.0002224918   0.0000446536  -0.0000761623   0.0002134193
        0.0000246284   0.0000216908  -0.0002174301   0.0000081296   0.0000480652
        0.0001378139  -0.0000412650  -0.0000470531   0.0000439568   0.0000245017
        0.0000465287   0.0000427766  -0.0000279810  -0.0000095979   0.0000015335
        0.0000469011   0.0000122365  -0.0001031129  -0.0000205652  -0.0000365421
        0.0000025977  -0.0000105291  -0.0000009265  -0.0001228873  -0.0003335825
       -0.0001529178   0.0002513517  -0.0000667467  -0.0000055861  -0.0001856318
       -0.0000722794   0.0000077715   0.0000695909   0.0000102160  -0.0000000929
        0.0000023181   0.0000077722   0.0000082145  -0.0000114169  -0.0000060072
       -0.0000122056  -0.0000144319   0.0000111204  -0.0000350803   0.0002588700
        0.0002587836   0.0000740467  -0.0004092542   0.0001562837  -0.0002936367
        0.0006074178   0.0000858905   0.0532774968  -0.2583615971   0.0461960772
       -0.0786866310  -0.0895537563   0.0499675827   0.0189203174  -0.1009003083
       -0.1011297988   0.0004200733   0.0002417962  -0.0000612049  -0.0005932245
        0.0006219726  -0.0006990093  -0.0025733843  -0.0005156058   0.0006724265
       -0.0002708685  -0.0015887385  -0.0033910229  -0.0010200740   0.0005759874
       -0.0009903594  -0.0001987051   0.0003275572   0.0003000977   0.0001692249
       -0.0000163952  -0.0000078742   0.0001658289  -0.0002133210   0.0001335663
        0.0010524837  -0.0009038651   0.0005974866  -0.0000058164  -0.0000289808
       -0.0000078277  -0.0000101198  -0.0000233564  -0.0000152526  -0.0000343335
       -0.0000514713  -0.0000201988  -0.0000224412   0.0000379840  -0.0000081296
       -0.0000211210   0.0000138465  -0.0000196538  -0.0000173592  -0.0000065633
       -0.0000105173  -0.0000186701   0.0000017515  -0.0000095052  -0.0000090552
       -0.0000077580  -0.0000147508   0.0000052620  -0.0000132840  -0.0000018401
       -0.0000004657  -0.0000029449  -0.0000005868  -0.0000201414  -0.0000187653
       -0.0000245455   0.0000207134  -0.0000262531   0.0000158985  -0.0000035226
       -0.0000313314   0.0000008441   0.0000119687  -0.0000098104  -0.0000107921
        0.0000056388  -0.0000127431   0.0000027181   0.0000000842   0.0000189913
       -0.0000031997   0.0000124149   0.0000098257  -0.0000144687   0.0000166794
       -0.0000043460  -0.0000055101   0.0000155570   0.0000074115  -0.0000080832
        0.0000087001  -0.0000123730  -0.0000104596  -0.0000004582  -0.0000158579
        0.0000043021  -0.0000054277  -0.0000035313   0.0000029198   0.0000237020
        0.0000122577  -0.0000160614  -0.0000039709   0.0000101736  -0.0000009162
        0.0000121296  -0.0000160398  -0.0000401814  -0.0000146182  -0.0000043999
       -0.0000060938   0.0000017805  -0.0000249846  -0.0000208658   0.0000089637
        0.0000035566   0.0000061718  -0.0000120740   0.0000013717  -0.0000095328
        0.0000061451  -0.0000053659  -0.0000065780  -0.0000002049  -0.0000129422
        0.0000029338  -0.0000056238  -0.0000095576  -0.0000169334   0.0000043818
        0.0000103209   0.0000063552   0.0000180344  -0.0000079994  -0.0000211940
        0.0000063002  -0.0000291378   0.0000363265   0.0000039323  -0.0000040896
        0.0000360261
       -0.0413101159   0.0060622181   0.4977785110  -0.0529541259  -0.0053172226
       -0.0965424424   0.0087453705   0.0004240952   0.0044863887  -0.0205705559
       -0.0048118678  -0.0227136259  -0.0097418879   0.0110470293  -0.0069314130
       -0.0004284696  -0.0001121543   0.0012731861  -0.0000341979   0.0009954331
       -0.0002455877   0.0000650940  -0.0002825238  -0.0001862321   0.0000638084
        0.0009512038  -0.0003368713   0.0000930833  -0.0020552781  -0.0014458531
       -0.0000942095  -0.0000127629   0.0000612996  -0.0000913690  -0.0000658006
       -0.0000681345   0.0001286465   0.0000345760  -0.0000152145  -0.0000446613
        0.0000630084  -0.0000722825   0.0000890781   0.0000121869   0.0000316133
       -0.0000187443  -0.0001042059  -0.0000616883  -0.0000878507   0.0000548119
       -0.0000132099   0.0000689278   0.0000469269  -0.0000055343   0.0000747130
       -0.0000135314   0.0000263709   0.0000185418  -0.0000285637   0.0000034331
       -0.0000020387   0.0000578972   0.0000027505   0.0000509745  -0.0000245745
        0.0000290707  -0.0000114763   0.0000224449  -0.0000094251   0.0000420696
       -0.0000295334   0.0000163527  -0.0000142038   0.0000331331  -0.0000058396
        0.0000203338   0.0000376672   0.0000113542  -0.0000368776  -0.0000056273
       -0.0000285945   0.0000364648   0.0000611551   0.0000313198  -0.0001172304
       -0.0000351212  -0.0000298131   0.0000515294   0.0000118422   0.0001110181
        0.0000630833   0.0000160441  -0.0000347983  -0.0000565062   0.0000413246
        0.0000642725   0.0000480131   0.0000863202  -0.0000042161  -0.0001007289
       -0.0000182965   0.0000662839   0.0000399015  -0.0000056813  -0.0000307148
        0.0000100059   0.0000141665  -0.0000216382   0.0000298717  -0.0000081657
       -0.0000256763  -0.0000234779  -0.0000461785   0.0000137886   0.0000355577
       -0.0000710040  -0.0000077157  -0.0000198558   0.0001186224  -0.0000031969
       -0.0000357285  -0.0000881822   0.0000321045  -0.0000463934   0.0000818096
        0.0000174906  -0.0000031751  -0.0001160834   0.0000127063   0.0000245137
        0.0000776542  -0.0000208798  -0.0000238605   0.0000432517   0.0000132541
        0.0000434385   0.0000193214  -0.0000293131   0.0000067871   0.0000004116
        0.0000087345   0.0000450261  -0.0000643059  -0.0000570856  -0.0000896002
       -0.0000431002  -0.0000259801  -0.0000603738   0.0003026232   0.0004306435
        0.0000658163  -0.0002658858   0.0001779293  -0.0000678243   0.0003332336
        0.0002152896  -0.0000029080  -0.0000232279  -0.0000460080   0.0000286829
        0.0000074443   0.0000229634  -0.0000006594  -0.0000032156  -0.0000162639
       -0.0000244835  -0.0000111510   0.0000261216   0.0000662184  -0.0003229766
       -0.0004526390  -0.0000998325   0.0004251388  -0.0002452319   0.0000808703
       -0.0003192545  -0.0001540499  -0.0100274959   0.0456685441  -0.0524270694
        0.0889298851   0.0501072943  -0.0995626261   0.0347367349  -0.1011766685
       -0.2203447731   0.0008303315   0.0002132540   0.0008223568   0.0003952353
       -0.0002794717   0.0003937867   0.0027387600   0.0010712802  -0.0004784257
       -0.0002626798  -0.0030590397  -0.0049253824  -0.0005063885   0.0009999762
        0.0005504083  -0.0010719786   0.0001516365   0.0005927402  -0.0001139217
       -0.0000737957   0.0001590711   0.0000484512   0.0000971986   0.0000045633
        0.0004606930  -0.0007256446   0.0001061743  -0.0000025997  -0.0000178721
        0.0000093136  -0.0000004496  -0.0000070424   0.0000090860  -0.0001171617
       -0.0000168704  -0.0000286043  -0.0000055079  -0.0000190072   0.0000030072
       -0.0000275856   0.0000044638  -0.0000119136  -0.0000229901  -0.0000117169
       -0.0000145249  -0.0000139998  -0.0000025820  -0.0000084621  -0.0000070395
       -0.0000160447  -0.0000024337  -0.0000009996  -0.0000202333  -0.0000010194
        0.0000099471  -0.0000142244   0.0000064728  -0.0000216429   0.0000003670
        0.0000041137   0.0000203350  -0.0000217383   0.0000044052   0.0000003682
       -0.0000129182   0.0000021286   0.0000141928  -0.0000134816   0.0000017029
        0.0000036787   0.0000019607   0.0000045558   0.0000029959   0.0000160357
       -0.0000018819   0.0000140978   0.0000103320  -0.0000052647   0.0000174383
       -0.0000034551  -0.0000086550   0.0000148052  -0.0000027248  -0.0000083518
        0.0000105401  -0.0000119761  -0.0000027907   0.0000011811  -0.0000191312
        0.0000018838  -0.0000087400  -0.0000092171   0.0000065709   0.0000122027
        0.0000074777   0.0000007256   0.0000296841   0.0000191697  -0.0000011889
        0.0000019561  -0.0000031190  -0.0000006091  -0.0000012111   0.0000008023
        0.0000033254  -0.0000095273  -0.0000020357   0.0000008809  -0.0000008621
       -0.0000004165  -0.0000003257  -0.0000006312   0.0000016380   0.0000054577
       -0.0000007577   0.0000030213   0.0000060397   0.0000010650  -0.0000084922
        0.0000006149   0.0000094202   0.0000053691   0.0000029147   0.0000000611
       -0.0000041732  -0.0000012157   0.0000071494  -0.0000068555  -0.0000003424
       -0.0000013981   0.0000010933   0.0000087241  -0.0000086408   0.0000015146
        0.0000477549
       -0.1338916744   0.0071409342  -0.0529541259   0.4377287347  -0.0131189032
       -0.0043948435  -0.1246617275  -0.0394951242   0.0461573822  -0.0662334704
        0.0124595374   0.0167238057  -0.0534369518   0.0291295261  -0.0062449065
        0.0045487361   0.0043026492  -0.0026904146   0.0030890622   0.0002448970
       -0.0000862065  -0.0010686856  -0.0005126921   0.0001131198   0.0029448811
        0.0002604770   0.0005467159  -0.0011887093   0.0069906433   0.0009696607
       -0.0000199786   0.0004139349   0.0002864154  -0.0004467029  -0.0000057597
       -0.0002871356   0.0002533464   0.0001115503  -0.0000318162  -0.0001385013
        0.0001057706  -0.0001322043   0.0001681360   0.0000209052   0.0000839463
       -0.0001053821  -0.0000632534  -0.0000658490  -0.0000222353   0.0000152476
       -0.0000014377   0.0000293545   0.0000137930   0.0000272540   0.0000130439
        0.0000262881   0.0000127977   0.0000120985  -0.0000023558   0.0000020208
       -0.0000155483   0.0000370474  -0.0000103735   0.0000292854  -0.0000431987
        0.0000105206  -0.0000056359   0.0000440262  -0.0000052775   0.0000092780
       -0.0000166517   0.0000055792  -0.0000116033   0.0000168821  -0.0000056348
        0.0000051993   0.0000039572  -0.0000030481  -0.0000114860   0.0000106637
       -0.0000058236   0.0000458641   0.0000394705  -0.0000032495  -0.0002146321
       -0.0001211827  -0.0000600108   0.0001317845  -0.0001107991   0.0001964054
       -0.0000814915  -0.0001542494  -0.0000110729   0.0000374290  -0.0000133023
       -0.0000942095  -0.0000472298  -0.0000581091   0.0000112126   0.0000646342
        0.0000038770  -0.0000649822  -0.0001206702   0.0000246561   0.0000443789
        0.0000123197   0.0000620702   0.0000152372   0.0000173051  -0.0000664641
       -0.0000174514   0.0000246895   0.0000104182  -0.0000362265   0.0000206498
       -0.0000316386  -0.0000104767   0.0000056350   0.0000500259  -0.0000152351
       -0.0000102629  -0.0000584159   0.0000148898  -0.0000447901   0.0000534360
        0.0000179155   0.0000319137  -0.0000617235  -0.0000123538   0.0000049837
        0.0000266902  -0.0000046855   0.0000273250  -0.0000207439  -0.0000148095
       -0.0000169260   0.0000526031  -0.0000065053   0.0000381427  -0.0000908078
       -0.0000345648  -0.0000620722   0.0000174429   0.0000213044   0.0000591124
       -0.0000005206   0.0000894965  -0.0000889453  -0.0003457158  -0.0005453919
        0.0002819505   0.0004342012  -0.0001403165   0.0002527440  -0.0002761134
       -0.0002511213  -0.0001699576   0.0000527347   0.0000373336   0.0000075504
       -0.0000482017  -0.0000111145  -0.0000198847   0.0000026241  -0.0000128265
       -0.0000148538   0.0000084887   0.0000026752  -0.0002323519   0.0004072137
        0.0004853337   0.0004655231  -0.0005073007   0.0002543355   0.0003425702
        0.0007907287   0.0001650592  -0.0097623689   0.0034235386  -0.0076680174
       -0.0237927251  -0.0008162970  -0.0118252401   0.0022533076  -0.0011426373
        0.0000277445  -0.0061249117  -0.0012917878   0.0056352126   0.0018251866
       -0.0007167292   0.0000230124  -0.0232462723  -0.0107432955   0.0101841092
        0.0023311540  -0.0137108152  -0.0193575483  -0.0017336959   0.0053688639
        0.0051777075  -0.0066009425   0.0123704605   0.0197218776  -0.0013464118
       -0.0003506104   0.0003007148  -0.0007474503  -0.0001328411  -0.0000300399
       -0.0012918569  -0.0004233585  -0.0002467248   0.0000278299  -0.0000076481
       -0.0000008405   0.0000001526  -0.0000073558   0.0000014775  -0.0000266267
       -0.0000093783  -0.0000316425  -0.0000098798  -0.0000127988  -0.0000136442
       -0.0000172161   0.0000039071  -0.0000068333  -0.0000142925  -0.0000018827
       -0.0000154031  -0.0000137567  -0.0000054293  -0.0000091180  -0.0000070267
       -0.0000162090   0.0000012255  -0.0000044823  -0.0000185976  -0.0000026149
        0.0000158381  -0.0000125561   0.0000037527  -0.0000021189   0.0000030756
       -0.0000016258   0.0000092145   0.0000139679   0.0000109215   0.0000042636
        0.0000055054  -0.0000134874   0.0000179213  -0.0000051569  -0.0000063963
       -0.0000227815   0.0000085102   0.0000186316  -0.0000025969   0.0000206880
       -0.0000014971   0.0000004251   0.0000083095   0.0000072192   0.0000019329
        0.0000043882  -0.0000024108   0.0000026496  -0.0000057128  -0.0000041870
        0.0000036447  -0.0000040649   0.0000039074   0.0000003003  -0.0000055168
       -0.0000002942  -0.0000043747   0.0000003866   0.0000017041   0.0000000734
        0.0000044725   0.0000140180  -0.0000027198   0.0000465742   0.0000049411
       -0.0000033306  -0.0000030025  -0.0000034833   0.0000080257   0.0000013947
        0.0000123716  -0.0000145292  -0.0000087052   0.0000029412  -0.0000034840
        0.0000044511  -0.0000071238   0.0000033358   0.0000016393   0.0000173141
       -0.0000034652   0.0000117422   0.0000107700   0.0000044237  -0.0000103596
       -0.0000046912   0.0000126525   0.0000183294   0.0000143186  -0.0000002156
       -0.0000000760  -0.0000096538  -0.0000075757  -0.0000119817   0.0000097619
       -0.0000462976  -0.0000064603   0.0000035619   0.0000101520  -0.0000011246
        0.0000242069
       -0.0023742538  -0.0589262979  -0.0053172226  -0.0131189032   0.4800983106
        0.0199192382  -0.0286740088  -0.0761625074   0.0166462516   0.0122365705
       -0.1024161188  -0.0542438345   0.0277710092  -0.1689842327   0.0282174846
        0.0042984951  -0.0131107696   0.0121100123  -0.0000074884   0.0028713508
        0.0007468793  -0.0000572052  -0.0006489876  -0.0004651707   0.0002334517
        0.0018021452  -0.0032769782   0.0072427835  -0.0301317876  -0.0048409067
        0.0001272157  -0.0004935534   0.0003599002  -0.0004179259  -0.0000362422
       -0.0001613823   0.0004261592   0.0001521057   0.0000064983  -0.0001932874
        0.0001356843  -0.0002391872   0.0002737207   0.0000384255   0.0001303900
       -0.0000996680   0.0000255414  -0.0000264985  -0.0000566541  -0.0000441247
       -0.0000056714  -0.0000785628   0.0000610758   0.0000129845   0.0000749902
       -0.0001048544   0.0000554047  -0.0000070875  -0.0000493464   0.0000040783
        0.0000362760   0.0000565307   0.0000425120   0.0000356667   0.0000448963
        0.0000427511   0.0000512945  -0.0000454193   0.0000240281   0.0000520739
       -0.0000561722   0.0000291456  -0.0000196985   0.0000451569  -0.0000004903
        0.0000259998   0.0001063410   0.0000767829  -0.0000625573  -0.0000823855
       -0.0000385039  -0.0000297493   0.0000322747  -0.0000249248  -0.0002973396
       -0.0002496379  -0.0000406932   0.0002363453  -0.0001360284   0.0003150159
        0.0002025399   0.0000158216  -0.0000032662  -0.0001899625   0.0000643829
        0.0001934526   0.0002286470   0.0001904067  -0.0000309812  -0.0002026015
       -0.0000439308   0.0000704426   0.0000470453  -0.0000195117   0.0000060994
        0.0000337611  -0.0000299035  -0.0000068053   0.0000661276   0.0000616613
       -0.0000326002  -0.0000236169  -0.0000997804   0.0000828216   0.0000254619
       -0.0000477381   0.0000047540  -0.0000502182   0.0000621937   0.0000341303
       -0.0000528317   0.0000352329   0.0000319977  -0.0000462650  -0.0000364307
        0.0000483875  -0.0000260988  -0.0000645940   0.0000364494   0.0000105515
        0.0000571531  -0.0000063051  -0.0000748937   0.0000948910   0.0000443718
        0.0000672818  -0.0000602650   0.0000039329   0.0000603720   0.0000211798
       -0.0000195214   0.0000768410  -0.0000879276  -0.0001360340  -0.0002866043
       -0.0000672376   0.0000606287  -0.0002167917   0.0007182641   0.0014085221
        0.0002840700  -0.0010466561   0.0004961189  -0.0002057080   0.0010080959
        0.0006723170   0.0000499629  -0.0002632543  -0.0001419653  -0.0000114681
        0.0000248546   0.0000240989   0.0000366890  -0.0000161837   0.0000538181
       -0.0000068352   0.0000677539   0.0000244281   0.0002344211  -0.0012243169
       -0.0014018668  -0.0003427150   0.0016123818  -0.0006989167   0.0003770215
       -0.0012215590  -0.0004907088   0.0233187088  -0.0040207255   0.0161246825
       -0.0098268347   0.0002965796  -0.0065511834  -0.0114883101  -0.0005086048
       -0.0093034619   0.0107319089   0.0051171568  -0.0071985505  -0.0216464079
       -0.0161216890   0.0157137611  -0.0022877006  -0.0006274262  -0.0002465540
       -0.0013073051  -0.0012128308  -0.0028469864   0.0065441437  -0.0223801047
       -0.0220638472  -0.0008478352   0.0058041889   0.0067282977  -0.0003159463
        0.0000710457  -0.0013931059  -0.0001370752  -0.0001224904  -0.0001607923
       -0.0004024416   0.0003908916   0.0011197563  -0.0000378431  -0.0000185146
       -0.0000676763   0.0000195125  -0.0000045001  -0.0000223661  -0.0000252346
        0.0000016547  -0.0000005950   0.0000048127  -0.0000427732   0.0000167059
        0.0000193603  -0.0000275244  -0.0000127082   0.0000143567  -0.0000404172
        0.0000268134   0.0000226989   0.0000049925   0.0000138971   0.0000184866
        0.0000245694  -0.0000290372   0.0000241079   0.0000292419   0.0000063216
       -0.0000287045   0.0000072000  -0.0000147087   0.0000202351  -0.0000140576
        0.0000538609  -0.0000069597   0.0000300647   0.0000377855   0.0000262018
       -0.0000344134   0.0000268086  -0.0000254481   0.0000091195   0.0000493602
        0.0000165972  -0.0000030777   0.0000028293  -0.0000302826  -0.0000257253
        0.0000267756  -0.0000254415  -0.0000205102  -0.0000117426  -0.0000298799
       -0.0000016130   0.0000239456  -0.0000197181   0.0000436403   0.0000277264
       -0.0000241774   0.0000327975  -0.0000199340  -0.0000077786   0.0000411258
        0.0000057047   0.0000302447   0.0000174709  -0.0000138702  -0.0000201790
        0.0000273322  -0.0000153988   0.0000775604  -0.0000577206  -0.0000945037
       -0.0000352166  -0.0000285897  -0.0000186439  -0.0000293802  -0.0000292416
       -0.0000468195   0.0000292146  -0.0000112836  -0.0000513027   0.0000435218
       -0.0000119350   0.0000348077  -0.0000164906  -0.0000149570  -0.0000673436
        0.0000194920  -0.0000392840  -0.0000570417  -0.0000159505   0.0000329575
        0.0000161694  -0.0000513947  -0.0000625429  -0.0000778876   0.0000261351
        0.0000174227   0.0000362507   0.0000171683   0.0000501683  -0.0000398081
       -0.0000229596  -0.0000468509   0.0000223099  -0.0000034173  -0.0000165740
       -0.0000743945
       -0.0517251723   0.0011515153  -0.0965424424  -0.0043948435   0.0199192382
        0.4650690309   0.0419360567   0.0213550005  -0.0868592686   0.0172041256
       -0.0564537091  -0.1426918115  -0.0036829966   0.0176305539  -0.0702745623
       -0.0054462257   0.0249813116  -0.0087919132   0.0004590034  -0.0010351659
       -0.0048602603  -0.0003415232   0.0010199236   0.0003767577   0.0011646885
       -0.0054242084  -0.0026344682   0.0025561196  -0.0128529886   0.0073833452
        0.0003799879  -0.0009824243  -0.0000613882   0.0004644375   0.0001418459
        0.0003792380  -0.0003601141  -0.0001232539   0.0000057076   0.0001490235
       -0.0002282177   0.0002037258  -0.0003218393  -0.0000203392  -0.0002058836
        0.0001551485  -0.0000314882   0.0000625246   0.0000115977   0.0000157124
       -0.0000372283   0.0001500883   0.0000201074   0.0000601307  -0.0000759038
        0.0001485226  -0.0000460584   0.0000667184   0.0002025511   0.0000515706
       -0.0000057002  -0.0003055932  -0.0000409485  -0.0001217148   0.0001998675
       -0.0000564644  -0.0000981032  -0.0002193449  -0.0000792354  -0.0000537129
        0.0003039301  -0.0000067628   0.0001013473  -0.0001906670   0.0000345998
       -0.0000398549  -0.0001310190  -0.0000688777   0.0001166948   0.0000039636
        0.0000611330   0.0000002924   0.0000188792   0.0000642287   0.0002155810
        0.0002937673   0.0000074666  -0.0002121891   0.0001440049  -0.0002594620
       -0.0002722768  -0.0001131058   0.0001669949   0.0001665264  -0.0000578470
       -0.0002302265  -0.0001694529  -0.0002306927  -0.0000021600   0.0002678925
        0.0000302821  -0.0001451945  -0.0001161085  -0.0000125871   0.0000427061
        0.0000173424   0.0000012915   0.0000325845  -0.0001247092  -0.0000021176
        0.0000593126   0.0000345138   0.0001290412  -0.0000692960  -0.0000941976
        0.0001731761   0.0000334257   0.0000575187  -0.0002801715  -0.0000157917
        0.0000804168   0.0002009609  -0.0000675116   0.0001238542  -0.0001909482
       -0.0000643887  -0.0000042819   0.0002844165  -0.0000342148  -0.0000576271
       -0.0001958902   0.0000514815   0.0000806826  -0.0001162796  -0.0000429746
       -0.0001080444  -0.0000135042   0.0000450544  -0.0000522558   0.0000204910
       -0.0000089409  -0.0000719341   0.0001907836   0.0001270223   0.0002255381
        0.0000977638  -0.0000265063   0.0001858062  -0.0007380041  -0.0010441150
       -0.0001044167   0.0005429909  -0.0002527138   0.0001624606  -0.0006855635
       -0.0004662341  -0.0000337205   0.0001405493   0.0001238581  -0.0000223644
       -0.0000056584  -0.0000429023  -0.0000259553   0.0000144484  -0.0000276199
        0.0000205332  -0.0000087568  -0.0000464869  -0.0001513481   0.0006701081
        0.0008454840   0.0002095170  -0.0008278477   0.0004082570  -0.0000540172
        0.0004411941   0.0002539846  -0.0076684711   0.0025207806  -0.0056069286
        0.0092001228  -0.0004871705   0.0069512299  -0.0199665229  -0.0016131846
       -0.0185315385   0.0196428870   0.0076827474  -0.0159589374   0.0067777164
        0.0059358770  -0.0051593466  -0.0112812392  -0.0059337436   0.0070702223
        0.0001178865  -0.0112861546  -0.0178155551  -0.0007888019   0.0019621088
        0.0048988621   0.0059319589  -0.0086932970  -0.0158207414  -0.0000578948
        0.0000286003   0.0002680651  -0.0003609076   0.0011379389  -0.0004793528
        0.0000554069  -0.0003238633   0.0000207808   0.0000260086   0.0000481339
        0.0000406745  -0.0000050449   0.0000160139   0.0000249818  -0.0000107691
        0.0000282236  -0.0000028068   0.0000013520  -0.0000255828  -0.0000075291
        0.0000017361  -0.0000048372   0.0000163289   0.0000082786   0.0000216874
       -0.0000009879   0.0000090258  -0.0000050179   0.0000036146   0.0000008793
        0.0000028512   0.0000236611  -0.0000200343   0.0000070384  -0.0000033948