 Entering Gaussian System
 *********************************************
 Gaussian 98:
 frequency output generated by the xtb code
 *********************************************
                         Standard orientation:
 --------------------------------------------------------------------
  Center     Atomic     Atomic              Coordinates (Angstroms)
  Number     Number      Type              X           Y           Z
 --------------------------------------------------------------------
    1          8             0       -2.721239   -2.824567   -0.037829
    2          6             0       -2.525548   -1.623856   -0.021105
    3          6             0       -3.630534   -0.643051   -0.009778
    4          6             0       -4.939952   -1.121331   -0.011186
    5          6             0       -6.013359   -0.248445    0.001101
    6          6             0       -5.790937    1.120799    0.014739
    7          6             0       -4.496468    1.609567    0.015115
    8          6             0       -3.405780    0.742334    0.002879
    9          6             0       -2.046242    1.323097    0.002062
   10          8             0       -1.853089    2.526217    0.006528
   11          6             0       -0.932531    0.347212   -0.004052
   12          7             0        0.297634    0.840809   -0.003215
   13          6             0        1.321404   -0.005521   -0.002328
   14          6             0        1.100177   -1.415452    0.002650
   15          6             0        2.196127   -2.300435    0.014312
   16          6             0        3.481589   -1.828598    0.017547
   17          8             0        4.474131   -2.732297    0.030483
   18          6             0        3.750878   -0.409269    0.006174
   19          6             0        5.054004    0.115280    0.003971
   20          6             0        5.269961    1.473803   -0.008193
   21          6             0        4.194463    2.361720   -0.017877
   22          6             0        2.907912    1.878609   -0.015463
   23          6             0        2.665884    0.498643   -0.003911
   24          7             0       -0.147495   -1.903169   -0.004625
   25          6             0       -1.153604   -1.048750   -0.009682
   26          1             0       -5.088737   -2.191175   -0.021763
   27          1             0       -7.020808   -0.635432    0.000109
   28          1             0       -6.623988    1.806842    0.024713
   29          1             0       -4.299154    2.671549    0.024783
   30          1             0        2.008137   -3.361764    0.020550
   31          1             0        5.342479   -2.303713    0.032518
   32          1             0        5.915124   -0.538956    0.011040
   33          1             0        6.279840    1.855133   -0.010284
   34          1             0        4.375111    3.425541   -0.027362
   35          1             0        2.054606    2.538628   -0.022621
 --------------------------------------------------------------------
     1 basis functions        1 primitive gaussians
     1 alpha electrons        1 beta electrons
 
 Harmonic frequencies (cm**-1), IR intensities (km*mol⁻¹),
 Raman scattering activities (A**4/amu), Raman depolarization ratios,
 reduced masses (AMU), force constants (mDyne/A) and normal coordinates:
                      1                      2                      3
                        a                      a                      a 
 Frequencies --    10.1389                23.6987                60.3079
 Red. masses --    13.1182                12.9122                12.5244
 Frc consts  --     0.0000                 0.0000                 0.0000
 IR Inten    --     6.3596                 2.4398                 0.5349
 Raman Activ --     0.0000                 0.0000                 0.0000
 Depolar     --     0.0000                 0.0000                 0.0000
 Atom AN      X      Y      Z        X      Y      Z        X      Y      Z
   1   8     0.00  -0.01   0.53     0.00   0.00  -0.17    -0.00  -0.01   0.35
   2   6    -0.00  -0.00   0.24     0.00   0.00  -0.08    -0.00  -0.00   0.07
   3   6    -0.00  -0.00   0.04     0.00   0.00  -0.09    -0.00  -0.00   0.03
   4   6    -0.00   0.00  -0.08     0.00   0.00  -0.26    -0.00   0.00   0.03
   5   6    -0.00   0.00  -0.29    -0.00   0.00  -0.26    -0.00   0.00   0.02
   6   6    -0.00   0.00  -0.37    -0.00  -0.00  -0.07     0.00   0.00   0.03
   7   6    -0.00   0.00  -0.24    -0.00  -0.00   0.10     0.00   0.00   0.03
   8   6    -0.00   0.00  -0.04    -0.00  -0.00   0.09     0.00  -0.00   0.03
   9   6    -0.00  -0.00   0.11    -0.00  -0.00   0.25     0.00  -0.00   0.05
  10   8     0.00  -0.00   0.23    -0.00  -0.00   0.56     0.00  -0.00   0.31
  11   6    -0.00  -0.00   0.12    -0.00   0.00   0.11     0.00  -0.00  -0.16
  12   7    -0.00  -0.00   0.10    -0.00   0.00   0.08     0.00  -0.00  -0.29
  13   6     0.00  -0.00   0.05     0.00   0.00   0.02     0.00  -0.00  -0.29
  14   6     0.00  -0.00   0.00    -0.00   0.00   0.07     0.00  -0.00  -0.25
  15   6     0.00  -0.00  -0.12    -0.00   0.00   0.15    -0.00  -0.00  -0.17
  16   6     0.00  -0.00  -0.17    -0.00   0.00   0.13    -0.00   0.00   0.01
  17   8     0.00  -0.00  -0.33    -0.00   0.00   0.26    -0.00   0.00   0.21
  18   6     0.00   0.00  -0.08    -0.00   0.00  -0.02    -0.00   0.00   0.04
  19   6     0.00   0.00  -0.10     0.00  -0.00  -0.11    -0.00   0.00   0.31
  20   6    -0.00   0.00  -0.01     0.00  -0.00  -0.26     0.00   0.00   0.30
  21   6    -0.00   0.00   0.10     0.00  -0.00  -0.30     0.00   0.00  -0.00
  22   6    -0.00   0.00   0.12     0.00  -0.00  -0.21     0.00  -0.00  -0.24
  23   6    -0.00   0.00   0.03     0.00  -0.00  -0.07     0.00  -0.00  -0.20
  24   7     0.00  -0.00   0.08     0.00   0.00   0.04     0.00  -0.00  -0.24
  25   6    -0.00  -0.00   0.14     0.00   0.00   0.03    -0.00  -0.00  -0.14
  26   1    -0.00   0.00  -0.00     0.00   0.00  -0.11    -0.00   0.00   0.01
  27   1    -0.00   0.00  -0.11    -0.00   0.00  -0.12    -0.00   0.00   0.01
  28   1    -0.00   0.00  -0.15    -0.00  -0.00  -0.02     0.00   0.00   0.01
  29   1    -0.00   0.00  -0.08    -0.00  -0.00   0.07     0.00   0.00   0.01
  30   1     0.00  -0.00  -0.05    -0.00   0.00   0.07    -0.00  -0.00  -0.05
  31   1     0.00  -0.00  -0.09    -0.00   0.00   0.06    -0.00   0.00   0.08
  32   1     0.00   0.00  -0.05     0.00  -0.00  -0.02    -0.00   0.00   0.16
  33   1    -0.00   0.00  -0.01     0.00  -0.00  -0.10    -0.00   0.00   0.15
  34   1    -0.00   0.00   0.05     0.00  -0.00  -0.12     0.00   0.00  -0.01
  35   1    -0.00   0.00   0.06     0.00  -0.00  -0.07     0.00  -0.00  -0.13
                      4                      5                      6
                        a                      a                      a 
 Frequencies --    94.1235                97.6731               100.8536
 Red. masses --    12.2186                11.4142                12.0283
 Frc consts  --     0.0000                 0.0000                 0.0000
 IR Inten    --     0.0303                 0.0362                 2.6342
 Raman Activ --     0.0000                 0.0000                 0.0000
 Depolar     --     0.0000                 0.0000                 0.0000
 Atom AN      X      Y      Z        X      Y      Z        X      Y      Z
   1   8    -0.01   0.01  -0.43    -0.00  -0.00   0.02     0.21   0.06  -0.00
   2   6    -0.00  -0.00   0.01    -0.00  -0.00   0.03     0.06   0.07   0.00
   3   6     0.00  -0.00   0.14     0.00   0.00  -0.07    -0.01  -0.03   0.00
   4   6    -0.00  -0.00   0.35    -0.00   0.01  -0.28     0.04  -0.15   0.00
   5   6     0.00   0.00   0.19     0.00   0.01  -0.20    -0.03  -0.24   0.00
   6   6     0.00   0.01  -0.23     0.00   0.00   0.14    -0.12  -0.23  -0.00
   7   6     0.00   0.01  -0.34     0.00   0.00   0.26    -0.16  -0.12  -0.00
   8   6     0.00   0.00  -0.09     0.00  -0.00   0.11    -0.08  -0.02  -0.00
   9   6     0.00  -0.00   0.01     0.00  -0.00  -0.00    -0.11   0.09   0.00
  10   8     0.01  -0.00   0.32     0.00  -0.00  -0.21    -0.28   0.13   0.01
  11   6     0.00  -0.00  -0.03     0.00  -0.00   0.03    -0.01   0.18  -0.00
  12   7    -0.00  -0.01  -0.12     0.00  -0.00  -0.09     0.01   0.19  -0.01
  13   6    -0.00  -0.00  -0.04    -0.00  -0.00  -0.03     0.01   0.16  -0.00
  14   6     0.00  -0.00   0.12    -0.00  -0.00   0.19    -0.02   0.17   0.01
  15   6     0.00  -0.00   0.10     0.00  -0.00   0.15    -0.10   0.07   0.01
  16   6     0.00   0.00  -0.03     0.00   0.00  -0.05    -0.07  -0.03  -0.00
  17   8     0.01   0.00  -0.22     0.01  -0.00  -0.41    -0.17  -0.13  -0.02
  18   6    -0.00   0.00   0.01    -0.00   0.00   0.03     0.00  -0.05   0.00
  19   6    -0.00   0.01   0.15    -0.00   0.01   0.27     0.05  -0.18   0.01
  20   6    -0.01   0.01   0.14    -0.01   0.01   0.23     0.20  -0.21   0.01
  21   6    -0.01   0.00  -0.06    -0.01   0.00  -0.12     0.29  -0.11  -0.01
  22   6    -0.01  -0.00  -0.15    -0.01  -0.00  -0.26     0.23   0.02  -0.01
  23   6    -0.00  -0.00  -0.08    -0.00  -0.00  -0.11     0.07   0.05  -0.00
  24   7    -0.00  -0.01   0.23    -0.00  -0.00   0.31    -0.01   0.20   0.01
  25   6    -0.00  -0.01   0.12    -0.00  -0.00   0.16     0.00   0.18   0.00
  26   1    -0.00  -0.00   0.17    -0.00   0.00  -0.14     0.04  -0.05   0.00
  27   1     0.00   0.00   0.10    -0.00   0.00  -0.11    -0.00  -0.09   0.00
  28   1     0.00   0.00  -0.13     0.00   0.00   0.08    -0.05  -0.08  -0.00
  29   1     0.00   0.00  -0.17     0.00  -0.00   0.13    -0.08  -0.03  -0.00
  30   1     0.00  -0.00   0.03     0.00  -0.00   0.05    -0.06   0.03   0.00
  31   1     0.00   0.00  -0.10     0.00   0.00  -0.18    -0.03  -0.06  -0.01
  32   1    -0.00   0.00   0.09    -0.00   0.00   0.16    -0.01  -0.08   0.01
  33   1    -0.00   0.00   0.08    -0.00   0.00   0.13     0.07  -0.09   0.01
  34   1    -0.00   0.00  -0.03    -0.00   0.00  -0.06     0.11  -0.04  -0.00
  35   1    -0.00  -0.00  -0.07    -0.00  -0.00  -0.13     0.09   0.04  -0.01
                      7                      8                      9
                        a                      a                      a 
 Frequencies --   129.0834               149.1088               199.1698
 Red. masses --    11.5839                12.0200                11.4668
 Frc consts  --     0.0000                 0.0000                 0.0000
 IR Inten    --     1.4692                 3.9958                 0.0815
 Raman Activ --     0.0000                 0.0000                 0.0000
 Depolar     --     0.0000                 0.0000                 0.0000
 Atom AN      X      Y      Z        X      Y      Z        X      Y      Z
   1   8    -0.00  -0.00   0.08     0.00   0.01  -0.27     0.01   0.01   0.04
   2   6    -0.00  -0.00  -0.02    -0.00   0.00   0.16     0.01   0.01  -0.05
   3   6    -0.00   0.00  -0.13    -0.00  -0.00   0.31     0.01   0.01  -0.30
   4   6    -0.00   0.00  -0.10    -0.00  -0.00   0.08     0.01  -0.00  -0.16
   5   6     0.00   0.00   0.03    -0.00   0.00  -0.24     0.01  -0.01   0.22
   6   6     0.00  -0.00   0.14    -0.00   0.00  -0.19     0.00  -0.01   0.17
   7   6     0.00  -0.00   0.05    -0.00  -0.00   0.14    -0.00   0.00  -0.20
   8   6     0.00  -0.00  -0.09    -0.00  -0.00   0.32     0.00   0.01  -0.29
   9   6     0.00  -0.00  -0.11    -0.00  -0.00   0.13     0.00   0.01   0.02
  10   8     0.00  -0.00   0.24    -0.00   0.00  -0.25     0.00   0.01   0.00
  11   6    -0.00   0.00  -0.30    -0.00  -0.00   0.14     0.00   0.01   0.32
  12   7    -0.00   0.00  -0.44     0.00  -0.00  -0.08     0.00  -0.00   0.33
  13   6    -0.00   0.00  -0.17     0.00  -0.00  -0.20    -0.00  -0.01  -0.02
  14   6    -0.00   0.00   0.14     0.00   0.00  -0.12    -0.00  -0.01  -0.02
  15   6    -0.00   0.00   0.32     0.00  -0.00  -0.11    -0.00  -0.01  -0.12
  16   6    -0.00   0.00   0.01     0.00  -0.00  -0.08    -0.00  -0.01  -0.12
  17   8    -0.00   0.00   0.03    -0.00   0.00   0.27    -0.00  -0.00   0.20
  18   6    -0.00  -0.00  -0.19     0.00  -0.00  -0.22    -0.00  -0.01  -0.26
  19   6     0.00  -0.00  -0.28     0.00  -0.00  -0.15    -0.00   0.00  -0.11
  20   6     0.00  -0.00  -0.00     0.00  -0.00   0.11    -0.01   0.00   0.21
  21   6     0.00   0.00   0.33     0.00   0.00   0.22    -0.01   0.00   0.12
  22   6     0.00   0.00   0.19     0.00   0.00  -0.03    -0.01  -0.01  -0.22
  23   6    -0.00  -0.00  -0.10     0.00  -0.00  -0.23    -0.00  -0.01  -0.26
  24   7    -0.00   0.00   0.24     0.00  -0.00   0.10    -0.00   0.00   0.15
  25   6    -0.00  -0.00  -0.01    -0.00  -0.00   0.22     0.00   0.01   0.19
  26   1    -0.00   0.00  -0.04    -0.00  -0.00   0.02     0.00  -0.00  -0.05
  27   1     0.00   0.00   0.02    -0.00   0.00  -0.15     0.00  -0.01   0.15
  28   1     0.00  -0.00   0.08    -0.00   0.00  -0.13    -0.00  -0.00   0.13
  29   1     0.00  -0.00   0.03    -0.00  -0.00   0.04    -0.00   0.00  -0.07
  30   1    -0.00   0.00   0.17    -0.00   0.00   0.01    -0.00  -0.00  -0.00
  31   1     0.00  -0.00  -0.05    -0.00   0.00   0.09    -0.00  -0.00   0.05
  32   1     0.00  -0.00  -0.14     0.00  -0.00  -0.08    -0.00   0.00  -0.04
  33   1     0.00  -0.00  -0.00     0.00  -0.00   0.07    -0.00   0.00   0.14
  34   1     0.00   0.00   0.19     0.00   0.00   0.14    -0.00   0.00   0.09
  35   1     0.00   0.00   0.10     0.00   0.00  -0.00    -0.00  -0.00  -0.09
                     10                     11                     12
                        a                      a                      a 
 Frequencies --   209.8679               221.6089               249.8888
 Red. masses --    11.8800                11.2690                12.7126
 Frc consts  --     0.0000                 0.0000                 0.0000
 IR Inten    --     1.9737                 1.7347                 0.4722
 Raman Activ --     0.0000                 0.0000                 0.0000
 Depolar     --     0.0000                 0.0000                 0.0000
 Atom AN      X      Y      Z        X      Y      Z        X      Y      Z
   1   8    -0.25  -0.15  -0.00     0.00   0.00  -0.12     0.44  -0.23  -0.00
   2   6    -0.14  -0.14  -0.00    -0.00   0.00   0.19     0.09  -0.15  -0.00
   3   6    -0.17  -0.11  -0.01    -0.00   0.00  -0.06     0.04  -0.21  -0.00
   4   6    -0.25   0.06  -0.01    -0.00   0.00  -0.13    -0.04   0.01   0.00
   5   6    -0.15   0.19   0.01    -0.00  -0.00  -0.02     0.11   0.21   0.00
   6   6    -0.03   0.18   0.01    -0.00  -0.00   0.14     0.26   0.18   0.00
   7   6     0.02   0.00  -0.01    -0.00   0.00  -0.01     0.31  -0.03  -0.00
   8   6    -0.09  -0.13  -0.01    -0.00   0.00  -0.12     0.14  -0.21  -0.00
   9   6    -0.07  -0.19   0.00    -0.00   0.00  -0.15     0.04  -0.09  -0.00
  10   8    -0.10  -0.22   0.00    -0.00  -0.00   0.10    -0.13  -0.07   0.00
  11   6    -0.06  -0.15   0.01     0.00   0.00  -0.14     0.02   0.02   0.00
  12   7    -0.09  -0.04   0.02     0.00   0.00  -0.22    -0.02   0.11   0.00
  13   6     0.03   0.10   0.00    -0.00  -0.00  -0.01    -0.04   0.09   0.00
  14   6     0.03   0.08   0.00     0.00  -0.00  -0.10    -0.07   0.11  -0.00
  15   6     0.06   0.11  -0.00     0.00  -0.00  -0.50    -0.16   0.06  -0.00
  16   6     0.05   0.12  -0.00     0.00  -0.00  -0.08    -0.16   0.02  -0.00
  17   8     0.07   0.16   0.00     0.00  -0.00   0.12    -0.31  -0.09   0.00
  18   6     0.06   0.11  -0.01     0.00   0.00   0.17    -0.11   0.02  -0.00
  19   6     0.12  -0.02  -0.00     0.00   0.00   0.11    -0.11  -0.01  -0.00
  20   6     0.28  -0.06   0.01     0.00  -0.00  -0.15    -0.09  -0.01   0.00
  21   6     0.33  -0.00   0.00     0.00  -0.00  -0.10    -0.05   0.04  -0.00
  22   6     0.26   0.12  -0.01     0.00   0.00   0.16    -0.06   0.08  -0.00
  23   6     0.07   0.14  -0.01     0.00   0.00   0.16    -0.06   0.07  -0.00
  24   7     0.05  -0.03   0.01    -0.00  -0.00   0.38    -0.03   0.06   0.00
  25   6    -0.07  -0.15   0.01    -0.00  -0.00   0.37    -0.01   0.04   0.00
  26   1    -0.12   0.02  -0.00    -0.00   0.00  -0.05    -0.07   0.01   0.00
  27   1    -0.06   0.08   0.01    -0.00  -0.00  -0.00     0.02   0.10   0.00
  28   1     0.01   0.08   0.01    -0.00  -0.00   0.09     0.10   0.08  -0.00
  29   1     0.05  -0.01  -0.00    -0.00   0.00   0.00     0.16  -0.02  -0.00
  30   1     0.02   0.03   0.00     0.00  -0.00  -0.22    -0.06   0.02  -0.00
  31   1     0.02   0.04   0.00    -0.00   0.00   0.18    -0.06  -0.05   0.00
  32   1     0.01  -0.03  -0.00     0.00   0.00   0.03    -0.04  -0.01  -0.00
  33   1     0.09  -0.04   0.01     0.00  -0.00  -0.11    -0.02  -0.01   0.00
  34   1     0.11  -0.00   0.00     0.00  -0.00  -0.08    -0.00   0.01   0.00
  35   1     0.10   0.07  -0.00    -0.00   0.00   0.06    -0.02   0.02  -0.00
                     13                     14                     15
                        a                      a                      a 
 Frequencies --   271.1130               319.1332               320.4985
 Red. masses --    13.4643                12.8608                11.2422
 Frc consts  --     0.0000                 0.0000                 0.0000
 IR Inten    --     0.1698                 4.6847                 6.4427
 Raman Activ --     0.0000                 0.0000                 0.0000
 Depolar     --     0.0000                 0.0000                 0.0000
 Atom AN      X      Y      Z        X      Y      Z        X      Y      Z
   1   8     0.26   0.03   0.00    -0.18   0.02   0.00    -0.00   0.00  -0.05
   2   6     0.02   0.06  -0.00    -0.05  -0.00  -0.01    -0.00   0.00   0.10
   3   6    -0.13  -0.07  -0.00    -0.06  -0.01   0.00    -0.01   0.00  -0.04
   4   6    -0.20   0.07   0.00    -0.06  -0.01   0.01    -0.01   0.00  -0.20
   5   6    -0.14   0.17   0.00    -0.07  -0.02  -0.01    -0.01  -0.00   0.15
   6   6    -0.07   0.16   0.00    -0.04  -0.02  -0.00    -0.00  -0.00   0.07
   7   6    -0.03   0.02  -0.00    -0.03  -0.03   0.01    -0.00   0.00  -0.22
   8   6    -0.10  -0.08  -0.00    -0.02  -0.02  -0.00    -0.00  -0.00   0.03
   9   6    -0.13   0.01  -0.00     0.02  -0.06  -0.02     0.00  -0.01   0.25
  10   8    -0.56   0.08   0.00     0.04  -0.07   0.01     0.00  -0.01  -0.11
  11   6     0.04   0.13  -0.00     0.06  -0.03  -0.03     0.00  -0.00   0.40
  12   7     0.12  -0.02  -0.00     0.06   0.02   0.02     0.00  -0.00  -0.29
  13   6     0.07  -0.11   0.00     0.10   0.06   0.02     0.01   0.00  -0.28
  14   6     0.08  -0.10   0.00     0.02   0.09   0.01     0.00   0.01  -0.12
  15   6     0.15  -0.09   0.00     0.02   0.14  -0.01     0.00   0.01   0.18
  16   6     0.18  -0.11   0.00     0.08  -0.02  -0.01     0.00  -0.00   0.10
  17   8     0.30  -0.06   0.00    -0.38  -0.57   0.01    -0.03  -0.05  -0.08
  18   6     0.15  -0.10   0.00     0.25  -0.00  -0.01     0.02   0.00   0.09
  19   6     0.10   0.04  -0.00     0.18   0.22  -0.02     0.01   0.02   0.18
  20   6    -0.04   0.07  -0.00     0.02   0.28   0.01     0.00   0.02  -0.20
  21   6    -0.12  -0.02   0.00    -0.06   0.19  -0.00    -0.00   0.01  -0.01
  22   6    -0.05  -0.16   0.00     0.01  -0.01  -0.02     0.00   0.00   0.24
  23   6     0.08  -0.17   0.00     0.16  -0.04   0.01     0.01  -0.00  -0.09
  24   7     0.00   0.05  -0.00     0.04   0.02   0.02     0.01   0.00  -0.28
  25   6     0.03   0.12  -0.00     0.00  -0.03  -0.02     0.00  -0.00   0.27
  26   1    -0.10   0.02   0.00    -0.02  -0.00   0.01    -0.00   0.00  -0.11
  27   1    -0.05   0.07   0.00    -0.02  -0.00  -0.01    -0.00  -0.00   0.11
  28   1    -0.00   0.07   0.00    -0.01  -0.00  -0.00    -0.00  -0.00   0.05
  29   1     0.03  -0.00  -0.00    -0.01  -0.01   0.01    -0.00   0.00  -0.12
  30   1     0.05  -0.03   0.00     0.01   0.04  -0.01    -0.00   0.00   0.09
  31   1     0.06   0.01  -0.00    -0.03  -0.27   0.01    -0.00  -0.02  -0.10
  32   1     0.05   0.04  -0.00     0.06   0.08  -0.01     0.00   0.01   0.12
  33   1    -0.02   0.05  -0.00    -0.01   0.11   0.01    -0.00   0.01  -0.13
  34   1    -0.06  -0.00   0.00    -0.06   0.06   0.00    -0.00   0.00  -0.00
  35   1    -0.04  -0.07   0.00    -0.03  -0.04  -0.01    -0.00  -0.00   0.13
                     16                     17                     18
                        a                      a                      a 
 Frequencies --   361.2890               365.3903               381.4512
 Red. masses --    14.3771                 7.4314                 8.5725
 Frc consts  --     0.0000                 0.0000                 0.0000
 IR Inten    --    31.3219                74.3086                33.7312
 Raman Activ --     0.0000                 0.0000                 0.0000
 Depolar     --     0.0000                 0.0000                 0.0000
 Atom AN      X      Y      Z        X      Y      Z        X      Y      Z
   1   8     0.57   0.04  -0.00     0.02  -0.00   0.04    -0.01   0.00  -0.09
   2   6     0.04   0.10   0.01    -0.00   0.00  -0.10     0.00  -0.00   0.24
   3   6    -0.16   0.00   0.00    -0.01   0.00  -0.10     0.00  -0.00   0.32
   4   6    -0.21   0.06   0.00    -0.01  -0.00   0.13     0.00   0.00  -0.20
   5   6    -0.27   0.05  -0.00    -0.01   0.00  -0.04     0.00   0.00  -0.05
   6   6    -0.27   0.04   0.00    -0.01   0.00  -0.07     0.00  -0.00   0.23
   7   6    -0.22   0.01   0.00    -0.01  -0.00   0.13     0.00   0.00  -0.24
   8   6    -0.15   0.05  -0.00    -0.00   0.00  -0.06     0.00  -0.00   0.04
   9   6     0.00  -0.11  -0.00     0.00  -0.00  -0.04    -0.00  -0.00  -0.09
  10   8     0.53  -0.22  -0.00     0.02  -0.01   0.01    -0.00  -0.00   0.04
  11   6     0.02  -0.05  -0.00     0.00  -0.00  -0.03    -0.00  -0.00  -0.10
  12   7     0.01   0.02  -0.00     0.00  -0.00   0.14    -0.00   0.00  -0.12
  13   6    -0.01   0.01   0.01     0.00  -0.00  -0.08    -0.00   0.00   0.29
  14   6    -0.01  -0.00   0.00    -0.00  -0.00  -0.03     0.00   0.00   0.08
  15   6    -0.00  -0.00   0.00    -0.00  -0.00  -0.05     0.00   0.00  -0.04
  16   6    -0.00  -0.00   0.01    -0.00  -0.00  -0.20     0.00  -0.00  -0.05
  17   8    -0.00  -0.00  -0.01    -0.00   0.00   0.29    -0.00   0.00   0.20
  18   6    -0.01   0.00   0.01     0.00  -0.00  -0.27    -0.00  -0.00  -0.09
  19   6    -0.01  -0.00  -0.01     0.00   0.00   0.25    -0.00  -0.00  -0.15
  20   6    -0.00  -0.00   0.01     0.00   0.00  -0.09    -0.00  -0.00   0.17
  21   6     0.00   0.00   0.00     0.00  -0.00  -0.17    -0.00  -0.00  -0.06
  22   6    -0.00   0.00  -0.01     0.00   0.00   0.32    -0.00  -0.00  -0.09
  23   6    -0.00   0.00   0.01     0.00  -0.00  -0.13    -0.00   0.00   0.19
  24   7     0.01  -0.02  -0.01    -0.00   0.00   0.15     0.01  -0.00  -0.25
  25   6     0.04   0.04   0.00    -0.00   0.00  -0.07     0.00  -0.00   0.06
  26   1    -0.07   0.02   0.00    -0.00  -0.00   0.09     0.00   0.00  -0.15
  27   1    -0.07   0.00  -0.00    -0.00   0.00  -0.02     0.00   0.00  -0.05
  28   1    -0.07   0.02   0.00    -0.00   0.00  -0.05     0.00  -0.00   0.14
  29   1    -0.07   0.01   0.00    -0.00  -0.00   0.09     0.00   0.00  -0.17
  30   1    -0.00   0.00  -0.00    -0.00   0.00   0.05    -0.00   0.00  -0.03
  31   1    -0.00   0.00   0.01     0.00  -0.00  -0.56     0.00  -0.00  -0.50
  32   1    -0.00  -0.00  -0.01     0.00   0.00   0.26    -0.00  -0.00  -0.06
  33   1    -0.00  -0.00   0.00     0.00   0.00  -0.01    -0.00   0.00   0.11
  34   1     0.00  -0.00   0.00    -0.00  -0.00  -0.08    -0.00  -0.00  -0.05
  35   1    -0.00   0.00  -0.01    -0.00   0.00   0.22    -0.00  -0.00  -0.07
                     19                     20                     21
                        a                      a                      a 
 Frequencies --   390.1774               409.2641               414.1287
 Red. masses --    10.6564                 9.5717                12.5969
 Frc consts  --     0.0000                 0.0000                 0.0000
 IR Inten    --     2.4284                17.8457                 3.3174
 Raman Activ --     0.0000                 0.0000                 0.0000
 Depolar     --     0.0000                 0.0000                 0.0000
 Atom AN      X      Y      Z        X      Y      Z        X      Y      Z
   1   8     0.01   0.00   0.03    -0.00   0.01  -0.09    -0.05  -0.03   0.00
   2   6    -0.00   0.00  -0.04    -0.00   0.00   0.22     0.14  -0.06  -0.00
   3   6    -0.00  -0.00   0.23    -0.00  -0.00   0.29     0.12   0.04  -0.00
   4   6    -0.00   0.00  -0.31    -0.00  -0.00   0.09     0.12   0.08   0.00
   5   6    -0.00  -0.00   0.19    -0.00   0.00  -0.30     0.11   0.08   0.00
   6   6    -0.00  -0.00   0.04     0.00  -0.01   0.29    -0.09   0.11  -0.00
   7   6    -0.00   0.00  -0.29     0.00  -0.00  -0.06    -0.11   0.13   0.00
   8   6     0.00  -0.00   0.38     0.00  -0.00  -0.33    -0.13   0.07   0.00
   9   6     0.00  -0.00   0.12     0.00   0.00  -0.21    -0.15  -0.08  -0.00
  10   8     0.01  -0.00  -0.04     0.00   0.00   0.09    -0.05  -0.12  -0.00
  11   6     0.00   0.00  -0.27     0.00   0.00   0.00    -0.12  -0.09  -0.00
  12   7     0.00   0.00   0.26     0.01  -0.00   0.22    -0.23   0.15  -0.00
  13   6     0.00  -0.00  -0.14     0.00  -0.00  -0.09    -0.09   0.25   0.00
  14   6    -0.00  -0.00  -0.07    -0.00  -0.00  -0.17     0.22   0.23   0.00
  15   6    -0.00  -0.00   0.01    -0.00  -0.00   0.24     0.12   0.06   0.01
  16   6    -0.00  -0.00  -0.06    -0.00   0.00  -0.06     0.17  -0.18  -0.01
  17   8     0.00   0.00  -0.02    -0.00   0.01  -0.12     0.20  -0.28   0.00
  18   6     0.00  -0.00  -0.06     0.00  -0.00  -0.19    -0.14  -0.10  -0.02
  19   6     0.00   0.00   0.10     0.00   0.00   0.13    -0.19  -0.10   0.01
  20   6    -0.00  -0.00  -0.05     0.00   0.00   0.01    -0.16  -0.11   0.01
  21   6    -0.00  -0.00  -0.03     0.00  -0.00  -0.11    -0.06   0.00  -0.02
  22   6    -0.00   0.00   0.09     0.00   0.00   0.14    -0.07   0.06   0.01
  23   6     0.00  -0.00  -0.06     0.00  -0.00  -0.09    -0.07   0.07  -0.00
  24   7    -0.01   0.00   0.32    -0.01   0.00  -0.08     0.34   0.04  -0.00
  25   6     0.00   0.00  -0.32    -0.00   0.00  -0.02     0.16  -0.14  -0.00
  26   1    -0.00   0.00  -0.25    -0.00  -0.00   0.05     0.02   0.03   0.00
  27   1    -0.00  -0.00   0.10    -0.00   0.00  -0.20     0.04  -0.01   0.00
  28   1    -0.00   0.00  -0.00     0.00  -0.00   0.20    -0.05   0.01  -0.00
  29   1    -0.00   0.00  -0.23     0.00  -0.00  -0.02    -0.01   0.03   0.00
  30   1    -0.00  -0.00   0.04    -0.00   0.00   0.17    -0.06   0.03   0.01
  31   1    -0.00   0.00   0.14    -0.00   0.00   0.33     0.06  -0.08   0.03
  32   1     0.00   0.00   0.07     0.00   0.00   0.10    -0.06  -0.03   0.01
  33   1    -0.00  -0.00  -0.02     0.00   0.00   0.03    -0.04  -0.06   0.01
  34   1    -0.00  -0.00  -0.01    -0.00  -0.00  -0.05     0.01  -0.00  -0.01
  35   1    -0.00   0.00   0.06    -0.00   0.00   0.11    -0.02   0.01   0.01
                     22                     23                     24
                        a                      a                      a 
 Frequencies --   418.9461               437.5806               443.5687
 Red. masses --     9.3577                12.6445                13.6828
 Frc consts  --     0.0000                 0.0000                 0.0000
 IR Inten    --    46.7395                 3.7347                16.7487
 Raman Activ --     0.0000                 0.0000                 0.0000
 Depolar     --     0.0000                 0.0000                 0.0000
 Atom AN      X      Y      Z        X      Y      Z        X      Y      Z
   1   8    -0.00   0.00  -0.03    -0.27   0.08   0.00    -0.07   0.45   0.01
   2   6     0.01  -0.00   0.07    -0.12   0.05  -0.00     0.09   0.35   0.00
   3   6     0.00   0.00   0.11    -0.18  -0.11  -0.01    -0.07   0.06  -0.01
   4   6     0.00   0.00   0.05    -0.22  -0.13  -0.00    -0.02  -0.08  -0.00
   5   6     0.00   0.00  -0.13    -0.15  -0.06   0.00     0.04  -0.03   0.00
   6   6    -0.00   0.00   0.11     0.13  -0.10  -0.01     0.07  -0.01  -0.00
   7   6    -0.00   0.00  -0.02     0.16  -0.18   0.00     0.03   0.06   0.00
   8   6    -0.01   0.00  -0.14     0.12  -0.17  -0.00    -0.06  -0.04  -0.00
   9   6    -0.01  -0.00  -0.07     0.13  -0.06   0.00     0.01  -0.33  -0.00
  10   8    -0.00  -0.01   0.03     0.23  -0.08  -0.00    -0.24  -0.36  -0.00
  11   6    -0.00  -0.00  -0.03     0.15   0.13   0.01     0.22  -0.06  -0.00
  12   7    -0.01   0.01   0.27     0.12   0.27  -0.01     0.20   0.01   0.00
  13   6    -0.00   0.01  -0.28     0.06   0.18   0.00     0.11  -0.05   0.00
  14   6     0.01   0.01  -0.22     0.02   0.23   0.00     0.05  -0.09  -0.00
  15   6     0.01   0.00  -0.05    -0.05   0.07  -0.00    -0.04  -0.15   0.00
  16   6     0.01  -0.01   0.32     0.03  -0.14   0.00    -0.12   0.01  -0.00
  17   8     0.01  -0.01  -0.03     0.25   0.05   0.00    -0.15   0.05  -0.00
  18   6    -0.01  -0.00   0.38    -0.00  -0.14   0.00    -0.12   0.03  -0.00
  19   6    -0.01  -0.01  -0.03    -0.04  -0.10   0.00    -0.12  -0.03  -0.00
  20   6    -0.01  -0.01  -0.22    -0.17  -0.09   0.00    -0.07  -0.04   0.00
  21   6    -0.00   0.00   0.29    -0.13  -0.04   0.00     0.02   0.08  -0.00
  22   6    -0.00   0.00  -0.19    -0.09  -0.06  -0.00    -0.00   0.16  -0.00
  23   6    -0.00   0.00  -0.13     0.08  -0.06  -0.00     0.01   0.13   0.00
  24   7     0.01   0.00   0.16     0.01   0.26  -0.00     0.09  -0.13   0.00
  25   6     0.01  -0.00  -0.08    -0.04   0.16   0.01     0.19   0.01   0.00
  26   1     0.00   0.00   0.03    -0.06  -0.04   0.00     0.01  -0.02   0.00
  27   1     0.00   0.00  -0.08    -0.06   0.03   0.00     0.01   0.01   0.00
  28   1    -0.00  -0.00   0.08     0.07   0.01  -0.00     0.01  -0.01  -0.00
  29   1    -0.00   0.00  -0.00     0.05  -0.05   0.00     0.01   0.02   0.00
  30   1    -0.00   0.00  -0.08    -0.09   0.03  -0.00     0.00  -0.04   0.00
  31   1     0.01  -0.01  -0.40     0.03   0.08   0.00    -0.04   0.01   0.00
  32   1    -0.00  -0.00  -0.05     0.01   0.00   0.00    -0.04  -0.01  -0.00
  33   1    -0.00  -0.00  -0.17    -0.05  -0.02  -0.00    -0.01  -0.04   0.00
  34   1     0.00   0.00   0.18    -0.03  -0.01   0.00     0.04   0.02  -0.00
  35   1    -0.00  -0.00  -0.12    -0.05  -0.05   0.00     0.00   0.05  -0.00
                     25                     26                     27
                        a                      a                      a 
 Frequencies --   473.5615               484.6951               524.3657
 Red. masses --    12.0065                10.4507                12.3524
 Frc consts  --     0.0000                 0.0000                 0.0000
 IR Inten    --     0.3262                 9.7224                13.6294
 Raman Activ --     0.0000                 0.0000                 0.0000
 Depolar     --     0.0000                 0.0000                 0.0000
 Atom AN      X      Y      Z        X      Y      Z        X      Y      Z
   1   8    -0.04  -0.15  -0.00     0.00  -0.00  -0.04     0.11   0.13   0.00
   2   6    -0.04  -0.12  -0.00    -0.00  -0.00   0.13    -0.08   0.14   0.00
   3   6    -0.03  -0.04   0.00    -0.00   0.00  -0.17    -0.09   0.01   0.00
   4   6    -0.10   0.07   0.00    -0.00   0.00  -0.03     0.02  -0.20  -0.00
   5   6    -0.17   0.01  -0.00    -0.00  -0.00   0.10     0.19  -0.05  -0.00
   6   6    -0.08  -0.02   0.00    -0.00   0.00  -0.12     0.22  -0.03  -0.00
   7   6    -0.02  -0.12  -0.00     0.00  -0.00   0.09     0.12   0.16   0.00
   8   6     0.07  -0.01  -0.00     0.00   0.00   0.02    -0.06   0.00   0.00
   9   6     0.09   0.17   0.00     0.00   0.01   0.01    -0.10  -0.08  -0.00
  10   8     0.03   0.23   0.00     0.00   0.01  -0.01     0.07  -0.13  -0.00
  11   6     0.04   0.04   0.00    -0.00   0.00  -0.10    -0.17  -0.01  -0.00
  12   7     0.13  -0.17  -0.01     0.00  -0.00   0.14    -0.20   0.02   0.00
  13   6     0.17  -0.08   0.01     0.00  -0.00  -0.26    -0.17   0.02   0.00
  14   6     0.14  -0.12   0.01     0.00  -0.00  -0.52    -0.16  -0.03  -0.00
  15   6    -0.01  -0.35  -0.00    -0.00  -0.00   0.21    -0.07  -0.07   0.00
  16   6    -0.06  -0.21  -0.00     0.00  -0.01   0.02     0.04  -0.23   0.00
  17   8     0.06  -0.15   0.00     0.00  -0.00  -0.02     0.28  -0.14   0.00
  18   6    -0.20  -0.06   0.00    -0.00  -0.00   0.03    -0.05  -0.11   0.00
  19   6    -0.27   0.06   0.00    -0.00  -0.00  -0.20    -0.14   0.23  -0.00
  20   6    -0.09   0.05  -0.00    -0.00   0.00   0.27     0.15   0.22  -0.00
  21   6     0.14   0.33  -0.00     0.00   0.00  -0.20     0.18   0.22  -0.00
  22   6     0.13   0.30  -0.00     0.00   0.00   0.06     0.25  -0.09   0.00
  23   6     0.05   0.23  -0.01     0.00   0.01   0.41    -0.05  -0.08  -0.00
  24   7     0.06   0.10  -0.00    -0.00   0.00   0.09    -0.22   0.02  -0.00
  25   6    -0.02   0.02  -0.00    -0.00  -0.00   0.15    -0.16   0.07  -0.00
  26   1    -0.03   0.02  -0.00    -0.00   0.00   0.02     0.02  -0.06  -0.00
  27   1    -0.05  -0.00  -0.00    -0.00  -0.00   0.08     0.03   0.04   0.00
  28   1    -0.00   0.02   0.00     0.00   0.00  -0.06     0.04  -0.04  -0.00
  29   1    -0.02  -0.03  -0.00    -0.00  -0.00   0.07     0.04   0.04  -0.00
  30   1    -0.02  -0.10  -0.00    -0.00   0.00   0.18    -0.06  -0.02  -0.00
  31   1     0.00  -0.01   0.00     0.00  -0.00  -0.11     0.04   0.03  -0.00
  32   1    -0.07   0.02   0.00    -0.00  -0.00  -0.17    -0.03   0.07   0.00
  33   1     0.00  -0.06  -0.00    -0.00  -0.00   0.12     0.06   0.00  -0.00
  34   1     0.08   0.09   0.00     0.00  -0.00  -0.19    -0.01   0.07   0.00
  35   1     0.03   0.08   0.00     0.00   0.00  -0.08     0.07  -0.02   0.00
                     28                     29                     30
                        a                      a                      a 
 Frequencies --   549.1224               555.8069               599.7608
 Red. masses --    11.1532                11.2523                11.9773
 Frc consts  --     0.0000                 0.0000                 0.0000
 IR Inten    --     3.9753                 1.3049                 7.3042
 Raman Activ --     0.0000                 0.0000                 0.0000
 Depolar     --     0.0000                 0.0000                 0.0000
 Atom AN      X      Y      Z        X      Y      Z        X      Y      Z
   1   8     0.00   0.01  -0.08    -0.06  -0.19  -0.01     0.06  -0.09  -0.00
   2   6    -0.00   0.00   0.29     0.05  -0.16   0.01    -0.12  -0.04   0.00
   3   6    -0.01   0.00  -0.08     0.16   0.02  -0.00    -0.13  -0.01   0.00
   4   6    -0.01  -0.00  -0.18     0.17   0.12  -0.01    -0.01  -0.28  -0.00
   5   6    -0.01  -0.00   0.23     0.11   0.05   0.01     0.23  -0.03   0.00
   6   6     0.01  -0.00  -0.23    -0.18   0.10  -0.01     0.13   0.01  -0.00
   7   6     0.01  -0.01   0.18    -0.16   0.07   0.01    -0.01   0.34   0.01
   8   6     0.01  -0.00   0.10    -0.10   0.06   0.00    -0.19   0.08   0.00
   9   6     0.00   0.01  -0.30    -0.04  -0.13  -0.01    -0.12  -0.02  -0.00
  10   8     0.00   0.01   0.08    -0.05  -0.16   0.00     0.07  -0.06   0.00
  11   6    -0.00   0.00  -0.29     0.09  -0.02  -0.01    -0.12  -0.00  -0.00
  12   7    -0.00  -0.00   0.19     0.11   0.07   0.01     0.00  -0.29   0.00
  13   6    -0.01  -0.00   0.28     0.15   0.09   0.01     0.19  -0.05   0.00
  14   6     0.00  -0.01  -0.15    -0.05   0.14  -0.01     0.10   0.01  -0.00
  15   6     0.01   0.01   0.10    -0.31  -0.14   0.00     0.04  -0.08   0.01
  16   6     0.01   0.01   0.15    -0.29  -0.17   0.00    -0.00   0.03  -0.04
  17   8     0.00  -0.01  -0.07    -0.01   0.25  -0.00    -0.02  -0.00   0.01
  18   6    -0.00   0.01  -0.13     0.12  -0.21  -0.00     0.12   0.03   0.01
  19   6    -0.00  -0.00   0.13     0.08   0.05   0.01     0.20  -0.18   0.02
  20   6     0.00  -0.01  -0.17    -0.05   0.12  -0.01    -0.14  -0.13  -0.01
  21   6     0.00  -0.00   0.12    -0.02   0.15   0.01    -0.09  -0.02   0.02
  22   6    -0.00   0.00  -0.09     0.12  -0.13  -0.00    -0.16   0.22  -0.02
  23   6    -0.01   0.00  -0.23     0.24  -0.14  -0.01     0.15   0.15   0.02
  24   7     0.00  -0.01  -0.22     0.01   0.09  -0.01    -0.02   0.34  -0.00
  25   6    -0.00  -0.00   0.28    -0.01  -0.01   0.01    -0.18   0.09   0.00
  26   1    -0.00  -0.00  -0.08     0.04   0.04  -0.00    -0.01  -0.08  -0.00
  27   1    -0.00   0.00   0.14     0.06  -0.05   0.00     0.04   0.05   0.00
  28   1     0.00   0.00  -0.14    -0.08  -0.00  -0.00    -0.02  -0.07  -0.00
  29   1     0.00  -0.00   0.07    -0.04   0.02   0.00    -0.00   0.10   0.00
  30   1     0.01   0.00   0.03    -0.17  -0.02   0.00     0.03  -0.03   0.01
  31   1     0.00  -0.01   0.02    -0.07   0.21  -0.00     0.00  -0.01   0.00
  32   1    -0.00  -0.00   0.16     0.08   0.09   0.01     0.08  -0.02  -0.00
  33   1     0.00  -0.00  -0.03    -0.01   0.03  -0.00    -0.06   0.01  -0.02
  34   1     0.00  -0.00   0.14    -0.04   0.05   0.01     0.06  -0.02   0.00
  35   1     0.00   0.00   0.06    -0.01  -0.10   0.00    -0.06   0.04  -0.01
                     31                     32                     33
                        a                      a                      a 
 Frequencies --   601.2214               652.6144               653.2304
 Red. masses --    10.4660                11.5334                11.7089
 Frc consts  --     0.0000                 0.0000                 0.0000
 IR Inten    --     8.3309                 5.2053                 5.3739
 Raman Activ --     0.0000                 0.0000                 0.0000
 Depolar     --     0.0000                 0.0000                 0.0000
 Atom AN      X      Y      Z        X      Y      Z        X      Y      Z
   1   8     0.00  -0.01   0.01    -0.14  -0.01  -0.02     0.17   0.03  -0.02
   2   6    -0.01  -0.00  -0.03     0.11  -0.04   0.08    -0.12   0.06   0.07
   3   6    -0.01  -0.00   0.01     0.03  -0.14   0.29    -0.06   0.16   0.25
   4   6     0.00  -0.02   0.01     0.01  -0.08  -0.22    -0.04   0.08  -0.18
   5   6     0.02  -0.00  -0.01     0.11   0.06   0.21    -0.14  -0.08   0.18
   6   6     0.01   0.00   0.01    -0.07   0.10  -0.20     0.10  -0.12  -0.17
   7   6    -0.00   0.02  -0.01    -0.04  -0.02   0.22     0.07   0.02   0.18
   8   6    -0.01   0.01   0.01    -0.11  -0.10  -0.25     0.12   0.13  -0.21
   9   6    -0.01  -0.00  -0.00    -0.11  -0.00  -0.19     0.13   0.03  -0.15
  10   8     0.00  -0.01  -0.00     0.13  -0.05   0.05    -0.15   0.08   0.04
  11   6    -0.01   0.00   0.01    -0.02   0.15   0.19    -0.01  -0.20   0.16
  12   7     0.00  -0.02  -0.00     0.04   0.04   0.01    -0.08  -0.07   0.01
  13   6     0.01  -0.00  -0.00    -0.05  -0.08  -0.17     0.05   0.10  -0.14
  14   6     0.01   0.00   0.03     0.12  -0.09   0.17    -0.11   0.12   0.15
  15   6     0.00  -0.01  -0.18     0.08  -0.14  -0.03    -0.10   0.14  -0.02
  16   6    -0.00   0.01   0.67    -0.01   0.06  -0.08    -0.01  -0.08  -0.07
  17   8    -0.00  -0.00  -0.15    -0.11   0.03   0.02     0.11  -0.01   0.02
  18   6     0.01   0.00  -0.11    -0.07   0.06   0.12     0.09  -0.09   0.10
  19   6     0.01  -0.01  -0.25    -0.08   0.10  -0.05     0.10  -0.11  -0.04
  20   6    -0.01  -0.01   0.23     0.12   0.06   0.08    -0.14  -0.06   0.06
  21   6    -0.01  -0.00  -0.29     0.01  -0.09  -0.05    -0.02   0.10  -0.05
  22   6    -0.01   0.02   0.24     0.02  -0.12   0.08    -0.01   0.12   0.06
  23   6     0.01   0.01  -0.26    -0.11  -0.06  -0.04     0.14   0.05  -0.03
  24   7    -0.00   0.02   0.04     0.07   0.19  -0.01    -0.03  -0.22  -0.00
  25   6    -0.01   0.01  -0.02     0.07   0.16  -0.15    -0.06  -0.21  -0.13
  26   1    -0.00  -0.00  -0.00    -0.05  -0.01  -0.13     0.05   0.01  -0.11
  27   1     0.00   0.00  -0.01     0.03   0.01   0.07    -0.05  -0.01   0.05
  28   1    -0.00  -0.00   0.00    -0.03   0.01  -0.10     0.04  -0.01  -0.09
  29   1    -0.00   0.01  -0.01     0.04  -0.01   0.09    -0.04   0.02   0.07
  30   1     0.00  -0.00  -0.20     0.07  -0.05  -0.03    -0.09   0.05  -0.03
  31   1     0.00  -0.00  -0.02    -0.01  -0.03  -0.00     0.00   0.05   0.00
  32   1     0.01  -0.00   0.04    -0.05  -0.01  -0.08     0.06   0.01  -0.07
  33   1    -0.00   0.00   0.24     0.04   0.01  -0.02    -0.04  -0.01  -0.01
  34   1     0.00  -0.00  -0.04    -0.04  -0.02  -0.06     0.04   0.02  -0.05
  35   1    -0.00   0.00   0.22     0.02  -0.01  -0.01    -0.03   0.00  -0.01
                     34                     35                     36
                        a                      a                      a 
 Frequencies --   655.8022               675.3516               679.9926
 Red. masses --    12.5577                12.4649                 9.8895
 Frc consts  --     0.0000                 0.0000                 0.0000
 IR Inten    --     1.5741                 2.3537                42.7411
 Raman Activ --     0.0000                 0.0000                 0.0000
 Depolar     --     0.0000                 0.0000                 0.0000
 Atom AN      X      Y      Z        X      Y      Z        X      Y      Z
   1   8    -0.03  -0.15  -0.00    -0.03  -0.23  -0.01    -0.00  -0.01   0.14
   2   6    -0.08  -0.11   0.01    -0.05  -0.16   0.01     0.00   0.00  -0.50
   3   6     0.15   0.03   0.03    -0.19  -0.04  -0.00    -0.00  -0.00   0.08
   4   6     0.19   0.16  -0.02    -0.16  -0.32  -0.00    -0.00  -0.01   0.09
   5   6     0.10   0.03   0.02     0.08  -0.04  -0.00     0.00  -0.00   0.03
   6   6    -0.16   0.06  -0.02     0.06   0.01  -0.00     0.00  -0.00   0.12
   7   6    -0.10  -0.04   0.02    -0.07   0.39   0.00    -0.00   0.01  -0.00
   8   6    -0.00   0.01  -0.03    -0.17   0.13  -0.00    -0.00  -0.00   0.25
   9   6     0.04  -0.18  -0.03     0.04   0.12   0.01    -0.00   0.01  -0.51
  10   8    -0.03  -0.22   0.01     0.02   0.17  -0.00     0.00   0.01   0.15
  11   6     0.19   0.13   0.02     0.25   0.08  -0.00     0.00   0.00   0.17
  12   7     0.22   0.17   0.00     0.24   0.33  -0.00     0.00   0.01   0.02
  13   6     0.00  -0.08  -0.02     0.01   0.02   0.00     0.00   0.00  -0.05
  14   6    -0.26  -0.12   0.02    -0.04  -0.04   0.00     0.00  -0.00  -0.09
  15   6     0.06   0.16  -0.00     0.02   0.07  -0.00    -0.00   0.00   0.03
  16   6     0.18   0.01  -0.01     0.02   0.03  -0.00    -0.00  -0.00  -0.03
  17   8     0.22  -0.19   0.01    -0.03   0.02  -0.00    -0.00   0.00  -0.00
  18   6    -0.02   0.07   0.01    -0.07  -0.02  -0.00    -0.00  -0.00   0.08
  19   6    -0.02  -0.07  -0.00    -0.13   0.02   0.00    -0.00  -0.00  -0.01
  20   6    -0.05  -0.09   0.01    -0.03  -0.01  -0.00    -0.00   0.00   0.04
  21   6     0.02   0.02  -0.01     0.02   0.03   0.00    -0.00   0.00  -0.01
  22   6    -0.08   0.22   0.01     0.06  -0.04  -0.00     0.00  -0.00   0.04
  23   6    -0.04   0.13  -0.01    -0.01  -0.04   0.00     0.00  -0.00  -0.04
  24   7    -0.40  -0.04  -0.00     0.03  -0.37   0.00     0.00  -0.01  -0.03
  25   6    -0.18   0.17  -0.01     0.16  -0.11  -0.01     0.00  -0.00   0.29
  26   1     0.06   0.05  -0.01    -0.06  -0.09   0.00    -0.00  -0.00  -0.20
  27   1     0.06  -0.07   0.00    -0.01   0.07   0.01    -0.00   0.00  -0.23
  28   1    -0.06   0.00  -0.01    -0.05  -0.07   0.00    -0.00   0.00  -0.21
  29   1    -0.02  -0.01   0.01    -0.05   0.11   0.01    -0.00   0.00  -0.25
  30   1     0.07   0.03  -0.00     0.02   0.02  -0.00    -0.00   0.00   0.06
  31   1     0.07  -0.08   0.00     0.00  -0.01   0.00    -0.00   0.00  -0.01
  32   1    -0.02  -0.04  -0.01    -0.04  -0.00   0.00     0.00  -0.00  -0.06
  33   1    -0.01  -0.03  -0.00     0.00  -0.03   0.00    -0.00  -0.00  -0.03
  34   1     0.07  -0.00  -0.01    -0.00   0.01   0.00    -0.00   0.00  -0.04
  35   1    -0.00   0.09  -0.00     0.01  -0.01   0.00     0.00  -0.00  -0.02
                     37                     38                     39
                        a                      a                      a 
 Frequencies --   704.2239               711.0222               750.0151
 Red. masses --    11.3472                11.9970                11.3714
 Frc consts  --     0.0000                 0.0000                 0.0000
 IR Inten    --     0.8356                 4.7092                 0.4857
 Raman Activ --     0.0000                 0.0000                 0.0000
 Depolar     --     0.0000                 0.0000                 0.0000
 Atom AN      X      Y      Z        X      Y      Z        X      Y      Z
   1   8    -0.00   0.00   0.05     0.09  -0.17  -0.00    -0.00   0.02  -0.04
   2   6     0.00   0.00  -0.19    -0.19  -0.09  -0.01     0.01   0.01   0.18
   3   6     0.00  -0.01   0.23    -0.04   0.22   0.01     0.00  -0.02  -0.17
   4   6    -0.00  -0.00  -0.07     0.01   0.13   0.00     0.00  -0.01   0.04
   5   6     0.00   0.00   0.09    -0.14  -0.11   0.00     0.02   0.01  -0.04
   6   6    -0.00   0.00  -0.06     0.10  -0.15  -0.00    -0.02   0.02   0.04
   7   6     0.00  -0.01   0.09     0.02   0.17   0.00    -0.01  -0.01  -0.03
   8   6    -0.00  -0.00  -0.19     0.09   0.21  -0.00    -0.01  -0.02   0.17
   9   6    -0.00   0.00   0.03     0.17  -0.16  -0.00    -0.00   0.01  -0.19
  10   8     0.00   0.00  -0.00    -0.16  -0.16   0.00     0.01   0.01   0.05
  11   6    -0.00   0.00   0.21     0.11  -0.07   0.00    -0.00  -0.00  -0.01
  12   7    -0.00   0.00  -0.19     0.12  -0.17  -0.00     0.01  -0.03   0.16
  13   6    -0.00   0.00   0.14     0.09  -0.06   0.00     0.01  -0.01  -0.46
  14   6    -0.00  -0.00  -0.27     0.12   0.10  -0.00    -0.01   0.01   0.42
  15   6    -0.00  -0.00  -0.06     0.11   0.14  -0.00     0.01   0.05  -0.14
  16   6    -0.00  -0.00   0.28     0.07   0.11   0.00     0.01   0.02   0.21
  17   8     0.00  -0.00  -0.06    -0.09   0.04  -0.00    -0.01   0.01  -0.03
  18   6     0.00  -0.00  -0.44    -0.17   0.02  -0.01    -0.00  -0.02  -0.37
  19   6     0.01  -0.00   0.11    -0.32   0.12   0.00    -0.03  -0.01   0.14
  20   6    -0.00  -0.00  -0.19     0.06   0.03  -0.00    -0.03  -0.01  -0.04
  21   6    -0.00   0.00   0.15     0.02  -0.09   0.00     0.01   0.03   0.12
  22   6    -0.00   0.00  -0.20     0.09  -0.25  -0.00     0.03  -0.02  -0.03
  23   6     0.00   0.01   0.40    -0.08  -0.12   0.01     0.01  -0.01   0.31
  24   7    -0.00  -0.01   0.19     0.08   0.33   0.00    -0.01  -0.00  -0.16
  25   6     0.00   0.00  -0.12    -0.13   0.03   0.00    -0.00  -0.00   0.02
  26   1    -0.00   0.00  -0.10     0.09   0.03  -0.00    -0.01  -0.00   0.04
  27   1     0.00   0.00  -0.04    -0.04  -0.02  -0.00     0.01   0.00   0.00
  28   1    -0.00   0.00  -0.06     0.02  -0.04  -0.00    -0.01   0.00  -0.02
  29   1     0.00  -0.00   0.01    -0.08   0.06   0.00     0.01  -0.00  -0.05
  30   1    -0.00  -0.00   0.04     0.05   0.04   0.00     0.01   0.01  -0.05
  31   1    -0.00   0.00   0.01     0.01  -0.05   0.00     0.00  -0.00   0.01
  32   1     0.00   0.00   0.21    -0.13  -0.02   0.00    -0.01  -0.00  -0.06
  33   1    -0.00   0.00   0.07     0.04  -0.05   0.00    -0.00  -0.02  -0.11
  34   1     0.00   0.00   0.11    -0.07  -0.01   0.00     0.00   0.01  -0.15
  35   1    -0.00   0.00  -0.03     0.03  -0.07  -0.00     0.00  -0.01  -0.16
                     40                     41                     42
                        a                      a                      a 
 Frequencies --   750.2929               773.5080               778.3004
 Red. masses --    11.5677                 6.4730                10.5148
 Frc consts  --     0.0000                 0.0000                 0.0000
 IR Inten    --     0.5315                 9.3035                 1.8300
 Raman Activ --     0.0000                 0.0000                 0.0000
 Depolar     --     0.0000                 0.0000                 0.0000
 Atom AN      X      Y      Z        X      Y      Z        X      Y      Z
   1   8     0.02  -0.14  -0.01     0.00   0.00  -0.05     0.00   0.00  -0.07
   2   6    -0.06  -0.09   0.02    -0.00  -0.00   0.23    -0.00  -0.00   0.28
   3   6    -0.02   0.14  -0.02    -0.00   0.00  -0.19    -0.00   0.00  -0.20
   4   6    -0.02   0.12   0.01     0.00  -0.00   0.03     0.00   0.00  -0.00
   5   6    -0.17  -0.09  -0.00     0.00   0.00  -0.02    -0.00   0.00  -0.07
   6   6     0.14  -0.14   0.00    -0.00  -0.00   0.05     0.00  -0.00   0.01
   7   6     0.06   0.12  -0.00    -0.00   0.00  -0.01     0.00   0.00  -0.05
   8   6     0.06   0.14   0.02     0.00  -0.00   0.17     0.00  -0.00   0.26
   9   6     0.04  -0.09  -0.02    -0.00   0.00  -0.23    -0.00   0.00  -0.32
  10   8    -0.06  -0.10   0.01     0.00   0.00   0.05     0.00  -0.00   0.07
  11   6     0.03   0.04   0.00     0.00  -0.00   0.21    -0.00  -0.00   0.39
  12   7    -0.05   0.30   0.02     0.00  -0.00  -0.02    -0.00  -0.00  -0.18
  13   6    -0.13   0.09  -0.05     0.00  -0.00  -0.14     0.00   0.00   0.26
  14   6     0.08  -0.07   0.05    -0.00   0.00   0.05     0.00  -0.00  -0.21
  15   6    -0.08  -0.41  -0.01    -0.00   0.00   0.06     0.00   0.00   0.00
  16   6    -0.10  -0.13   0.03     0.00  -0.00  -0.16     0.00   0.00   0.06
  17   8     0.06  -0.08  -0.00     0.00   0.00   0.03    -0.00  -0.00  -0.02
  18   6     0.03   0.12  -0.04    -0.00   0.00   0.18     0.00  -0.00  -0.05
  19   6     0.24   0.10   0.02     0.00  -0.00  -0.24    -0.00   0.00   0.11
  20   6     0.30   0.12  -0.00     0.00  -0.00  -0.14    -0.00   0.00   0.08
  21   6    -0.06  -0.26   0.02     0.00  -0.00  -0.11     0.00   0.00   0.05
  22   6    -0.23   0.15  -0.00    -0.00  -0.00  -0.13     0.00  -0.00   0.07
  23   6    -0.14   0.12   0.03    -0.00   0.00   0.19     0.00  -0.00  -0.15
  24   7     0.06   0.02  -0.02    -0.00   0.00   0.02    -0.00   0.00   0.18
  25   6     0.03   0.00   0.00     0.00   0.00  -0.20     0.00   0.00  -0.40
  26   1     0.06   0.02   0.00     0.00  -0.00   0.02     0.00  -0.00   0.11
  27   1    -0.06  -0.00   0.00     0.00   0.00  -0.02     0.00  -0.00   0.10
  28   1     0.05  -0.02  -0.00    -0.00   0.00  -0.06     0.00  -0.00   0.05
  29   1    -0.05   0.05  -0.00    -0.00   0.00  -0.07    -0.00   0.00  -0.00
  30   1    -0.06  -0.11  -0.01    -0.00  -0.00  -0.07     0.00   0.00   0.05
  31   1    -0.01   0.02   0.00    -0.00   0.00   0.04     0.00  -0.00  -0.02
  32   1     0.05  -0.00  -0.01    -0.00   0.00   0.40     0.00  -0.00  -0.21
  33   1     0.04   0.14  -0.01    -0.00   0.00   0.39     0.00  -0.00  -0.20
  34   1    -0.03  -0.07  -0.02    -0.00   0.00   0.36     0.00  -0.00  -0.17
  35   1    -0.01   0.11  -0.02    -0.00   0.00   0.22     0.00  -0.00  -0.10
                     43                     44                     45
                        a                      a                      a 
 Frequencies --   791.0060               803.9955               856.4756
 Red. masses --     5.1033                11.2929                 3.6369
 Frc consts  --     0.0000                 0.0000                 0.0000
 IR Inten    --    15.6027                18.9794                36.4668
 Raman Activ --     0.0000                 0.0000                 0.0000
 Depolar     --     0.0000                 0.0000                 0.0000
 Atom AN      X      Y      Z        X      Y      Z        X      Y      Z
   1   8    -0.00  -0.00   0.07     0.02   0.09   0.00    -0.00  -0.00   0.01
   2   6     0.00   0.00  -0.28    -0.01   0.07  -0.00     0.00   0.00  -0.04
   3   6     0.00  -0.00   0.23    -0.03  -0.08   0.00     0.00  -0.00   0.02
   4   6    -0.00   0.00  -0.15    -0.01  -0.17  -0.00     0.00   0.00   0.00
   5   6    -0.00   0.00  -0.18     0.18   0.07  -0.00    -0.00  -0.00  -0.00
   6   6    -0.00   0.00  -0.19    -0.18   0.14   0.00     0.00  -0.00  -0.01
   7   6    -0.00   0.00  -0.14    -0.09  -0.05  -0.00     0.00   0.00  -0.01
   8   6     0.00  -0.00   0.19    -0.01  -0.05   0.00    -0.00  -0.00   0.00
   9   6    -0.00   0.00  -0.22     0.17   0.06  -0.00    -0.00  -0.00  -0.01
  10   8     0.00   0.00   0.05    -0.03   0.12   0.00     0.00  -0.00   0.00
  11   6    -0.00   0.00   0.05     0.14  -0.14  -0.00    -0.00   0.00   0.02
  12   7    -0.00   0.00   0.02     0.13  -0.27  -0.00     0.00  -0.00  -0.01
  13   6    -0.00  -0.00  -0.07     0.15  -0.04   0.00    -0.00  -0.00  -0.03
  14   6     0.00  -0.00   0.00    -0.07   0.21  -0.00     0.00  -0.00  -0.10
  15   6     0.00  -0.00  -0.01    -0.21   0.17  -0.00    -0.00   0.00   0.44
  16   6    -0.00   0.00  -0.00    -0.06  -0.15   0.00     0.00   0.00  -0.09
  17   8    -0.00   0.00  -0.00     0.17  -0.12   0.00    -0.00   0.00   0.04
  18   6     0.00  -0.00   0.02    -0.11   0.06  -0.00     0.00  -0.00  -0.12
  19   6     0.00  -0.00  -0.03    -0.10   0.18  -0.00     0.00  -0.00   0.02
  20   6    -0.00  -0.00  -0.03     0.32   0.11  -0.00    -0.00  -0.00   0.00
  21   6     0.00   0.00  -0.01    -0.05  -0.32   0.00     0.00   0.00   0.05
  22   6     0.00  -0.00  -0.02    -0.20   0.07  -0.00     0.00  -0.00   0.03
  23   6     0.00   0.00   0.06    -0.06   0.10  -0.00    -0.00  -0.00   0.01
  24   7     0.00  -0.00  -0.03     0.03   0.01   0.00    -0.00   0.00   0.03
  25   6    -0.00  -0.00   0.14    -0.02  -0.10  -0.00     0.00   0.00   0.02
  26   1     0.00  -0.00   0.30    -0.06  -0.04   0.00     0.00   0.00  -0.01
  27   1     0.00  -0.00   0.46     0.05   0.00   0.00    -0.00  -0.00   0.00
  28   1     0.00  -0.01   0.47    -0.08   0.01   0.00     0.00  -0.00   0.02
  29   1     0.00  -0.00   0.31     0.01  -0.02   0.00     0.00  -0.00   0.01
  30   1     0.00   0.00   0.03    -0.23   0.08  -0.00     0.00  -0.01  -0.87
  31   1    -0.00   0.00   0.00     0.01   0.05  -0.00     0.00  -0.00   0.01
  32   1     0.00   0.00   0.06    -0.07  -0.01  -0.00     0.00   0.00  -0.00
  33   1    -0.00   0.00   0.06     0.07   0.07  -0.00    -0.00  -0.00  -0.03
  34   1     0.00   0.00   0.05    -0.05  -0.08  -0.00     0.00  -0.00  -0.09
  35   1    -0.00  -0.00   0.02    -0.01   0.08  -0.00     0.00  -0.00  -0.06
                     46                     47                     48
                        a                      a                      a 
 Frequencies --   868.6319               879.8303               895.0593
 Red. masses --     3.6492                11.6437                 3.5381
 Frc consts  --     0.0000                 0.0000                 0.0000
 IR Inten    --     0.0624                10.9153                 0.0167
 Raman Activ --     0.0000                 0.0000                 0.0000
 Depolar     --     0.0000                 0.0000                 0.0000
 Atom AN      X      Y      Z        X      Y      Z        X      Y      Z
   1   8    -0.00  -0.00   0.00     0.13   0.04   0.00    -0.00   0.00  -0.01
   2   6    -0.00   0.00  -0.00    -0.42   0.11  -0.00     0.00  -0.00   0.05
   3   6    -0.00  -0.00   0.00    -0.13   0.08   0.00     0.00   0.00  -0.07
   4   6     0.00  -0.00   0.00     0.06  -0.15  -0.00     0.00  -0.00   0.30
   5   6     0.00   0.00  -0.00     0.32   0.09   0.00     0.00  -0.00   0.14
   6   6    -0.00   0.00  -0.00    -0.24   0.17   0.00    -0.00   0.00  -0.16
   7   6    -0.00   0.00  -0.00    -0.08  -0.21  -0.00    -0.00   0.00  -0.28
   8   6     0.00  -0.00   0.00     0.13  -0.00  -0.00     0.00  -0.00   0.06
   9   6     0.00  -0.00  -0.01     0.29  -0.02  -0.00    -0.00   0.00  -0.05
  10   8    -0.00  -0.00   0.00    -0.07   0.06   0.00     0.00   0.00   0.01
  11   6     0.00   0.00   0.01     0.06  -0.16   0.00    -0.00   0.00   0.02
  12   7     0.00  -0.00   0.00    -0.09   0.25   0.00    -0.00  -0.00  -0.00
  13   6    -0.00  -0.00  -0.04    -0.06   0.18  -0.00    -0.00  -0.00  -0.00
  14   6     0.00  -0.00   0.00     0.13  -0.04   0.00    -0.00   0.00   0.01
  15   6    -0.00   0.00   0.03     0.14  -0.26   0.00    -0.00   0.00  -0.01
  16   6     0.00  -0.00   0.01     0.03   0.06  -0.00    -0.00  -0.00   0.00
  17   8    -0.00  -0.00   0.00    -0.09   0.05  -0.00     0.00  -0.00  -0.00
  18   6    -0.00  -0.00  -0.06     0.01   0.02  -0.00     0.00  -0.00   0.00
  19   6    -0.00   0.00   0.36     0.02  -0.02   0.00     0.00  -0.00  -0.00
  20   6     0.00   0.00  -0.01    -0.05  -0.01   0.00     0.00  -0.00  -0.00
  21   6     0.00  -0.00  -0.23    -0.01   0.02  -0.00     0.00   0.00  -0.00
  22   6     0.00  -0.00  -0.21     0.05  -0.07   0.00    -0.00   0.00   0.00
  23   6    -0.00   0.00   0.08     0.00  -0.02   0.00    -0.00  -0.00   0.00
  24   7    -0.00   0.00  -0.00     0.03   0.04   0.00    -0.00   0.00   0.00
  25   6     0.00  -0.00   0.01    -0.21  -0.14  -0.00     0.00   0.00  -0.02
  26   1     0.00  -0.00  -0.00     0.00  -0.04  -0.00    -0.00   0.01  -0.58
  27   1     0.00  -0.00   0.00     0.11  -0.03  -0.00    -0.00   0.00  -0.24
  28   1    -0.00  -0.00   0.00    -0.09   0.01   0.00     0.00  -0.00   0.27
  29   1     0.00  -0.00   0.00     0.01  -0.06   0.00     0.00  -0.01   0.55
  30   1     0.00  -0.00  -0.06     0.14  -0.09   0.00    -0.00   0.00   0.01
  31   1     0.00  -0.00  -0.04     0.01  -0.05   0.00     0.00   0.00   0.00
  32   1     0.00  -0.01  -0.63     0.01  -0.00   0.00     0.00   0.00   0.00
  33   1     0.00   0.00   0.07    -0.02   0.00  -0.00     0.00   0.00   0.00
  34   1    -0.00   0.00   0.39    -0.02   0.01  -0.00     0.00   0.00   0.00
  35   1    -0.00   0.00   0.45     0.00  -0.03   0.00     0.00   0.00  -0.00
                     49                     50                     51
                        a                      a                      a 
 Frequencies --   919.4238               931.0314               932.3531
 Red. masses --     3.9484                 4.0443                 3.6596
 Frc consts  --     0.0000                 0.0000                 0.0000
 IR Inten    --     0.1084                 0.1069                 0.0320
 Raman Activ --     0.0000                 0.0000                 0.0000
 Depolar     --     0.0000                 0.0000                 0.0000
 Atom AN      X      Y      Z        X      Y      Z        X      Y      Z
   1   8    -0.00  -0.00   0.00     0.00   0.00  -0.00     0.00   0.00  -0.00
   2   6     0.00   0.00  -0.00    -0.00  -0.00   0.02    -0.00   0.00   0.01
   3   6     0.00  -0.00   0.00    -0.00   0.00  -0.03    -0.00   0.00  -0.08
   4   6     0.00   0.00   0.00     0.00  -0.00   0.31     0.00   0.00   0.00
   5   6    -0.00  -0.00  -0.00    -0.00   0.00  -0.33     0.00  -0.00   0.20
   6   6     0.00  -0.00  -0.00    -0.00   0.00  -0.07    -0.00   0.00  -0.37
   7   6     0.00   0.00   0.00     0.00  -0.00   0.23     0.00  -0.00   0.24
   8   6    -0.00  -0.00   0.00    -0.00   0.00  -0.08    -0.00  -0.00   0.03
   9   6    -0.00   0.00  -0.00    -0.00   0.00   0.03    -0.00   0.00   0.01
  10   8     0.00  -0.00   0.00     0.00   0.00  -0.00     0.00   0.00  -0.00
  11   6    -0.00   0.00   0.00     0.00  -0.00  -0.01     0.00  -0.00   0.00
  12   7     0.00   0.00   0.00     0.00   0.00  -0.00     0.00   0.00  -0.00
  13   6     0.00   0.00  -0.03     0.00   0.00   0.00     0.00   0.00   0.00
  14   6    -0.00  -0.00   0.00     0.00   0.00   0.00     0.00   0.00   0.00
  15   6    -0.00  -0.00   0.01     0.00  -0.00  -0.00     0.00  -0.00  -0.00
  16   6    -0.00   0.00  -0.00     0.00   0.00  -0.00    -0.00   0.00  -0.00
  17   8     0.00   0.00   0.00    -0.00   0.00   0.00    -0.00   0.00  -0.00
  18   6     0.00  -0.00  -0.03    -0.00  -0.00   0.00    -0.00  -0.00   0.00
  19   6     0.00  -0.00  -0.17    -0.00   0.00   0.00    -0.00   0.00   0.00
  20   6    -0.00   0.00   0.40     0.00   0.00  -0.00     0.00   0.00  -0.00
  21   6    -0.00  -0.00  -0.04    -0.00  -0.00   0.00    -0.00  -0.00   0.00
  22   6     0.00  -0.00  -0.26    -0.00  -0.00   0.00    -0.00  -0.00  -0.00
  23   6     0.00   0.00   0.10     0.00   0.00  -0.00     0.00   0.00  -0.00
  24   7    -0.00  -0.00  -0.00     0.00  -0.00  -0.00     0.00  -0.00  -0.00
  25   6    -0.00   0.00   0.00    -0.00  -0.00  -0.00    -0.00  -0.00  -0.00
  26   1     0.00   0.00  -0.00    -0.00   0.01  -0.53     0.00  -0.00   0.07
  27   1    -0.00  -0.00   0.00     0.00  -0.01   0.56    -0.00   0.00  -0.37
  28   1     0.00  -0.00   0.00     0.00  -0.00   0.10     0.00  -0.01   0.65
  29   1     0.00  -0.00  -0.00    -0.00   0.00  -0.34    -0.00   0.00  -0.45
  30   1     0.00  -0.00  -0.01     0.00  -0.00   0.00     0.00  -0.00   0.00
  31   1     0.00  -0.00   0.01     0.00  -0.00  -0.00     0.00  -0.00  -0.00
  32   1    -0.00   0.00   0.28    -0.00  -0.00  -0.00    -0.00  -0.00  -0.00
  33   1     0.00  -0.01  -0.69     0.00   0.00   0.00     0.00  -0.00   0.00
  34   1    -0.00   0.00   0.07    -0.00  -0.00  -0.00    -0.00  -0.00  -0.00
  35   1    -0.00   0.00   0.41    -0.00  -0.00  -0.00    -0.00  -0.00   0.00
                     52                     53                     54
                        a                      a                      a 
 Frequencies --   932.9804               965.9477              1026.2067
 Red. masses --     3.5248                11.6068                10.7098
 Frc consts  --     0.0000                 0.0000                 0.0000
 IR Inten    --     0.1186               111.2234               241.6646
 Raman Activ --     0.0000                 0.0000                 0.0000
 Depolar     --     0.0000                 0.0000                 0.0000
 Atom AN      X      Y      Z        X      Y      Z        X      Y      Z
   1   8     0.00   0.00  -0.00    -0.08  -0.01  -0.00     0.06  -0.08  -0.00
   2   6    -0.00   0.00   0.00     0.28  -0.06   0.00    -0.39   0.02  -0.00
   3   6     0.00   0.00   0.00     0.04  -0.05  -0.00    -0.17   0.16   0.00
   4   6     0.00   0.00  -0.00    -0.11  -0.20  -0.00     0.05   0.10   0.00
   5   6     0.00  -0.00   0.00    -0.06  -0.01   0.00     0.17   0.05  -0.00
   6   6     0.00  -0.00   0.00    -0.16   0.09   0.00     0.07  -0.04  -0.00
   7   6     0.00  -0.00  -0.00    -0.06   0.14   0.00     0.01  -0.20  -0.00
   8   6    -0.00  -0.00   0.00     0.17   0.10  -0.00    -0.06  -0.01   0.00
   9   6    -0.00   0.00   0.00     0.46  -0.10  -0.00    -0.24   0.03   0.00
  10   8     0.00   0.00  -0.00    -0.11  -0.01   0.00     0.05  -0.04  -0.00
  11   6    -0.00   0.00  -0.00     0.06  -0.05  -0.00     0.06   0.17   0.00
  12   7     0.00   0.00   0.00    -0.12  -0.09  -0.00     0.17  -0.05  -0.00
  13   6     0.00   0.00  -0.01    -0.30  -0.15   0.00    -0.15  -0.29   0.00
  14   6    -0.00  -0.00   0.00    -0.03  -0.02  -0.00     0.13   0.04   0.00
  15   6     0.00  -0.00  -0.01    -0.07   0.04  -0.00    -0.07   0.14  -0.00
  16   6    -0.00   0.00  -0.01    -0.01  -0.01   0.00    -0.04  -0.04   0.00
  17   8     0.00  -0.00   0.00     0.05  -0.04   0.00     0.02  -0.05   0.00
  18   6    -0.00   0.00   0.08     0.01   0.07  -0.00    -0.05   0.09  -0.00
  19   6    -0.00  -0.00  -0.03     0.25  -0.13   0.00     0.20  -0.10   0.00
  20   6     0.00  -0.00  -0.12    -0.10  -0.02   0.00    -0.05  -0.01   0.00
  21   6    -0.00   0.00   0.35     0.05   0.22  -0.00     0.03   0.17  -0.00
  22   6     0.00  -0.00  -0.28     0.09  -0.02  -0.00     0.06  -0.02   0.00
  23   6     0.00   0.00  -0.02    -0.30  -0.06   0.00    -0.30  -0.06   0.00
  24   7    -0.00  -0.00  -0.00     0.02   0.22   0.00     0.24  -0.02   0.00
  25   6    -0.00  -0.00  -0.00     0.10   0.09   0.00     0.14  -0.02   0.00
  26   1     0.00   0.00   0.00    -0.08  -0.05  -0.00     0.07   0.02   0.00
  27   1     0.00  -0.00  -0.00    -0.03   0.02   0.00     0.06  -0.00  -0.00
  28   1     0.00   0.00  -0.00    -0.08  -0.01   0.00     0.04   0.00  -0.00
  29   1     0.00  -0.00   0.00    -0.08   0.06  -0.00     0.02  -0.06  -0.00
  30   1     0.00  -0.00   0.02    -0.09   0.03  -0.00    -0.30   0.09  -0.00
  31   1     0.00  -0.00  -0.00    -0.00   0.02  -0.00    -0.04   0.08  -0.00
  32   1    -0.00  -0.00  -0.04     0.10   0.01   0.00     0.08   0.00   0.00
  33   1    -0.00   0.00   0.25    -0.04   0.02  -0.00    -0.02   0.03  -0.00
  34   1     0.00  -0.01  -0.64     0.03   0.06  -0.00     0.00   0.05  -0.00
  35   1    -0.00   0.00   0.55     0.06   0.05   0.00     0.07   0.07  -0.00
                     55                     56                     57
                        a                      a                      a 
 Frequencies --  1067.1845              1085.3125              1085.6594
 Red. masses --     9.6013                 5.7547                 5.8748
 Frc consts  --     0.0000                 0.0000                 0.0000
 IR Inten    --    17.4817                 5.0871                49.0681
 Raman Activ --     0.0000                 0.0000                 0.0000
 Depolar     --     0.0000                 0.0000                 0.0000
 Atom AN      X      Y      Z        X      Y      Z        X      Y      Z
   1   8    -0.01  -0.08  -0.00    -0.01   0.02   0.00     0.01   0.00   0.00
   2   6    -0.02  -0.04  -0.00     0.05  -0.01   0.00    -0.04   0.01   0.00
   3   6    -0.08   0.15   0.00    -0.01  -0.07  -0.00     0.02   0.01   0.00
   4   6    -0.03  -0.14  -0.00    -0.09   0.20   0.00     0.06  -0.08  -0.00
   5   6     0.05   0.04   0.00     0.26   0.19   0.00    -0.16  -0.12  -0.00
   6   6    -0.06   0.07   0.00     0.20  -0.28  -0.00    -0.10   0.15   0.00
   7   6    -0.01  -0.11  -0.00    -0.15  -0.13  -0.00     0.09   0.10   0.00
   8   6     0.15   0.12   0.00    -0.02   0.04   0.00    -0.01  -0.05  -0.00
   9   6     0.06  -0.06  -0.00     0.05   0.00  -0.00    -0.03   0.01   0.00
  10   8    -0.02  -0.09  -0.00    -0.01   0.00   0.00     0.01   0.01   0.00
  11   6    -0.11   0.14   0.00     0.02  -0.05  -0.00     0.02  -0.01  -0.00
  12   7    -0.09  -0.00  -0.00    -0.01  -0.00   0.00     0.02  -0.00  -0.00
  13   6    -0.10  -0.09   0.00    -0.01   0.02  -0.00     0.00  -0.00   0.00
  14   6     0.05  -0.10   0.00    -0.03  -0.01  -0.00     0.00  -0.01   0.00
  15   6     0.15   0.24  -0.00     0.02   0.02   0.00     0.03   0.03  -0.00
  16   6     0.07  -0.20   0.00    -0.02  -0.02   0.00    -0.03  -0.03   0.00
  17   8    -0.20   0.07  -0.00    -0.01  -0.05   0.00    -0.02  -0.10   0.00
  18   6     0.06  -0.40   0.00     0.04  -0.01   0.00     0.06   0.01   0.00
  19   6    -0.11   0.07  -0.00    -0.04   0.10  -0.00    -0.05   0.16  -0.00
  20   6     0.19   0.03  -0.00    -0.19   0.01  -0.00    -0.35   0.02  -0.00
  21   6     0.04  -0.01   0.00     0.03  -0.19   0.00     0.06  -0.33   0.00
  22   6    -0.23   0.25  -0.00     0.11  -0.02   0.00     0.21  -0.05   0.00
  23   6     0.08  -0.09   0.00    -0.02   0.04  -0.00    -0.04   0.07  -0.00
  24   7     0.04  -0.02   0.00    -0.01   0.03  -0.00     0.02   0.00   0.00
  25   6     0.12   0.12   0.00    -0.00   0.01   0.00    -0.02  -0.01  -0.00
  26   1     0.06  -0.05  -0.00    -0.41   0.12   0.00     0.22  -0.06  -0.00
  27   1    -0.01   0.06   0.00     0.03   0.18   0.00    -0.01  -0.12  -0.00
  28   1     0.02   0.06   0.00    -0.04  -0.20  -0.00     0.01   0.10   0.00
  29   1    -0.07  -0.02  -0.00    -0.41   0.03   0.00     0.25  -0.01  -0.00
  30   1     0.17   0.04   0.00     0.10  -0.01   0.00     0.09  -0.01   0.00
  31   1    -0.18   0.31  -0.00    -0.07   0.13  -0.00    -0.12   0.21  -0.00
  32   1     0.05   0.12  -0.00     0.09   0.16  -0.00     0.16   0.28  -0.00
  33   1     0.09  -0.09   0.00    -0.09   0.08  -0.00    -0.16   0.16  -0.00
  34   1     0.15  -0.02   0.00     0.07  -0.07   0.00     0.12  -0.12   0.00
  35   1    -0.09   0.04  -0.00     0.16   0.16  -0.00     0.30   0.29  -0.00
                     58                     59                     60
                        a                      a                      a 
 Frequencies --  1095.7107              1124.1827              1147.9244
 Red. masses --     8.7454                 6.2673                 8.2688
 Frc consts  --     0.0000                 0.0000                 0.0000
 IR Inten    --    11.8102               558.3515                89.1039
 Raman Activ --     0.0000                 0.0000                 0.0000
 Depolar     --     0.0000                 0.0000                 0.0000
 Atom AN      X      Y      Z        X      Y      Z        X      Y      Z
   1   8     0.03   0.11   0.00     0.00   0.02   0.00     0.02   0.07   0.00
   2   6    -0.13   0.07   0.00     0.09  -0.01   0.00     0.11   0.02   0.00
   3   6     0.08  -0.27  -0.00     0.04   0.05   0.00     0.14  -0.04  -0.00
   4   6     0.04   0.29   0.00     0.03  -0.10  -0.00     0.07  -0.09  -0.00
   5   6    -0.04  -0.11  -0.00    -0.04   0.04   0.00    -0.08   0.03   0.00
   6   6     0.01  -0.10  -0.00     0.06   0.03   0.00     0.10   0.00  -0.00
   7   6     0.07   0.28   0.00    -0.05  -0.11  -0.00    -0.10  -0.07  -0.00
   8   6    -0.19  -0.25  -0.00    -0.07   0.05   0.00    -0.18   0.00   0.00
   9   6     0.10   0.04  -0.00    -0.16   0.06   0.00    -0.11   0.05   0.00
  10   8     0.02   0.12   0.00     0.01   0.03   0.00     0.02   0.08   0.00
  11   6     0.13  -0.14  -0.00     0.13  -0.19  -0.00     0.19  -0.24  -0.00
  12   7     0.03   0.08   0.00     0.09   0.06   0.00     0.08   0.18  -0.00
  13   6    -0.10  -0.07   0.00     0.04   0.01  -0.00    -0.05  -0.15   0.00
  14   6     0.05  -0.01   0.00    -0.14   0.04  -0.00     0.02  -0.02  -0.00
  15   6     0.10   0.09  -0.00    -0.00   0.04  -0.00     0.02  -0.02   0.00
  16   6     0.03  -0.09   0.00    -0.19   0.04  -0.00     0.12  -0.03   0.00
  17   8    -0.09   0.00  -0.00     0.13  -0.27   0.00    -0.09   0.18  -0.00
  18   6    -0.02  -0.15   0.00    -0.08   0.13  -0.00     0.05  -0.18   0.00
  19   6     0.05  -0.05   0.00     0.07  -0.14   0.00     0.00   0.09  -0.00
  20   6     0.13   0.01   0.00     0.09  -0.02   0.00    -0.00   0.01  -0.00
  21   6     0.01   0.12  -0.00    -0.04   0.13  -0.00     0.04   0.02   0.00
  22   6    -0.12   0.10  -0.00     0.01  -0.07   0.00    -0.09   0.12  -0.00
  23   6    -0.13  -0.09   0.00    -0.10   0.03  -0.00    -0.11  -0.18   0.00
  24   7     0.05   0.11   0.00     0.08   0.14   0.00    -0.02   0.21  -0.00
  25   6    -0.13  -0.12  -0.00    -0.09  -0.11  -0.00    -0.24  -0.24  -0.00
  26   1    -0.15   0.11   0.00     0.12  -0.04  -0.00     0.13  -0.04  -0.00
  27   1     0.08  -0.26  -0.00    -0.07   0.17   0.00    -0.11   0.24   0.00
  28   1    -0.15  -0.22  -0.00     0.14   0.16   0.00     0.20   0.21   0.00
  29   1     0.22   0.04   0.00    -0.08  -0.02   0.00    -0.12  -0.01   0.00
  30   1     0.12   0.01   0.00     0.46  -0.07   0.00    -0.16   0.03  -0.00
  31   1    -0.12   0.20  -0.00    -0.19   0.39  -0.00     0.12  -0.24   0.00
  32   1     0.05   0.02   0.00     0.00  -0.06   0.00     0.04   0.08  -0.00
  33   1     0.06  -0.06   0.00     0.04  -0.05   0.00     0.02  -0.04   0.00
  34   1     0.02   0.04  -0.00    -0.20   0.07  -0.00     0.23  -0.03   0.00
  35   1    -0.04   0.02  -0.00    -0.04  -0.07   0.00     0.06   0.15  -0.00
                     61                     62                     63
                        a                      a                      a 
 Frequencies --  1157.4153              1169.0202              1185.6230
 Red. masses --     5.0987                 1.4659                 2.8663
 Frc consts  --     0.0000                 0.0000                 0.0000
 IR Inten    --   174.0740                17.0426                22.9395
 Raman Activ --     0.0000                 0.0000                 0.0000
 Depolar     --     0.0000                 0.0000                 0.0000
 Atom AN      X      Y      Z        X      Y      Z        X      Y      Z
   1   8     0.00  -0.00  -0.00    -0.00  -0.01  -0.00    -0.00   0.01   0.00
   2   6    -0.03  -0.00  -0.00     0.04  -0.01  -0.00    -0.01   0.01   0.00
   3   6    -0.03   0.01   0.00     0.00   0.09   0.00     0.04  -0.04  -0.00
   4   6    -0.01   0.02   0.00    -0.02   0.05   0.00     0.03  -0.00  -0.00
   5   6     0.01  -0.01  -0.00     0.00   0.09   0.00    -0.02   0.00   0.00
   6   6    -0.01  -0.00   0.00    -0.02  -0.08  -0.00     0.01  -0.00  -0.00
   7   6     0.02   0.00  -0.00    -0.03  -0.06  -0.00    -0.02   0.01   0.00
   8   6     0.01  -0.00  -0.00    -0.01  -0.07  -0.00    -0.04  -0.02  -0.00
   9   6    -0.01   0.01   0.00     0.03   0.00  -0.00     0.02  -0.00  -0.00
  10   8    -0.00   0.01   0.00     0.00   0.01   0.00     0.00   0.01   0.00
  11   6    -0.00  -0.04  -0.00     0.01  -0.01  -0.00     0.01  -0.01  -0.00
  12   7     0.00   0.04   0.00    -0.00  -0.01   0.00     0.04  -0.02   0.00
  13   6    -0.09  -0.09   0.00    -0.01   0.01  -0.00    -0.01   0.04  -0.00
  14   6    -0.07   0.01  -0.00    -0.02  -0.00  -0.00     0.03  -0.02   0.00
  15   6    -0.10  -0.06  -0.00    -0.02   0.00  -0.00     0.11   0.06   0.00
  16   6    -0.13   0.15  -0.00    -0.01   0.00  -0.00     0.07  -0.15   0.00
  17   8     0.14  -0.17   0.00     0.01   0.01  -0.00    -0.09   0.05  -0.00
  18   6     0.14   0.27  -0.00     0.00  -0.01   0.00    -0.22  -0.04  -0.00
  19   6    -0.09   0.22  -0.00    -0.00   0.00  -0.00     0.05  -0.12   0.00
  20   6    -0.11  -0.07   0.00     0.00   0.00  -0.00     0.04   0.09  -0.00
  21   6     0.13  -0.03   0.00     0.00  -0.00   0.00     0.04   0.00   0.00
  22   6    -0.11  -0.04   0.00    -0.00   0.00  -0.00     0.11  -0.01   0.00
  23   6     0.05  -0.10   0.00    -0.00  -0.01   0.00    -0.01   0.04  -0.00
  24   7     0.10   0.07   0.00     0.00   0.01   0.00    -0.03  -0.03  -0.00
  25   6     0.06  -0.02   0.00     0.01   0.00   0.00    -0.05   0.03  -0.00
  26   1    -0.02   0.01   0.00     0.32  -0.03  -0.00     0.04  -0.01  -0.00
  27   1     0.02  -0.04  -0.00    -0.21   0.57   0.01    -0.03   0.06   0.00
  28   1    -0.02  -0.03  -0.00    -0.38  -0.48  -0.00     0.03   0.04   0.00
  29   1     0.03  -0.00  -0.00     0.31  -0.07  -0.00    -0.04   0.01   0.00
  30   1    -0.00  -0.02   0.00     0.03  -0.01   0.00     0.01   0.02  -0.00
  31   1    -0.03   0.08  -0.00     0.01  -0.02   0.00    -0.06   0.09  -0.00
  32   1    -0.02   0.08  -0.00    -0.00  -0.00  -0.00    -0.13  -0.24   0.00
  33   1     0.02  -0.17   0.00    -0.00   0.00  -0.00    -0.25   0.71  -0.01
  34   1     0.63  -0.11   0.00     0.01  -0.00  -0.00     0.30  -0.05   0.00
  35   1    -0.28  -0.33   0.00     0.00   0.01  -0.00    -0.15  -0.24   0.00
                     64                     65                     66
                        a                      a                      a 
 Frequencies --  1189.6755              1221.4664              1235.0653
 Red. masses --     5.7283                 6.5796                 8.0889
 Frc consts  --     0.0000                 0.0000                 0.0000
 IR Inten    --    21.2358                25.9409               704.2014
 Raman Activ --     0.0000                 0.0000                 0.0000
 Depolar     --     0.0000                 0.0000                 0.0000
 Atom AN      X      Y      Z        X      Y      Z        X      Y      Z
   1   8    -0.01  -0.05  -0.00    -0.00   0.01   0.00     0.03   0.08   0.00
   2   6     0.02  -0.03  -0.00    -0.19   0.03  -0.00    -0.18   0.06   0.00
   3   6    -0.17   0.13   0.00    -0.07  -0.25  -0.00     0.19  -0.22  -0.00
   4   6    -0.06   0.04   0.00     0.09   0.14   0.00     0.01  -0.09  -0.00
   5   6     0.08  -0.01  -0.00     0.00   0.06   0.00    -0.13   0.02   0.00
   6   6    -0.00  -0.01  -0.00     0.09   0.02  -0.00    -0.12   0.14   0.00
   7   6     0.04  -0.05  -0.00    -0.08   0.09   0.00     0.14   0.16   0.00
   8   6     0.02   0.04   0.00    -0.20  -0.29  -0.00     0.44  -0.07  -0.00
   9   6    -0.07   0.02   0.00     0.26  -0.03  -0.00    -0.26   0.02   0.00
  10   8     0.00   0.00   0.00     0.00   0.05   0.00     0.02  -0.07  -0.00
  11   6     0.04  -0.03  -0.00    -0.00   0.11   0.00    -0.05   0.13   0.00
  12   7     0.00  -0.04  -0.00    -0.06  -0.16   0.00    -0.01   0.08  -0.00
  13   6    -0.02  -0.03   0.00    -0.06   0.12  -0.00     0.07  -0.15   0.00
  14   6    -0.19   0.07  -0.00     0.01   0.08  -0.00     0.06   0.06  -0.00
  15   6    -0.24   0.05  -0.00    -0.07  -0.01  -0.00    -0.03   0.01  -0.00
  16   6    -0.19   0.07  -0.00    -0.05   0.02  -0.00    -0.09   0.07  -0.00
  17   8     0.15   0.08   0.00     0.04   0.01   0.00     0.05  -0.04   0.00
  18   6    -0.02  -0.25   0.00    -0.03  -0.06   0.00     0.06   0.00   0.00
  19   6     0.02  -0.00   0.00     0.03   0.01  -0.00    -0.02   0.01  -0.00
  20   6     0.04   0.06  -0.00     0.01  -0.00   0.00    -0.00   0.01  -0.00
  21   6    -0.01   0.03  -0.00     0.02  -0.01   0.00    -0.05   0.05  -0.00
  22   6    -0.04   0.09  -0.00    -0.01  -0.02   0.00    -0.02   0.03  -0.00
  23   6    -0.05  -0.15   0.00    -0.05   0.04  -0.00     0.04  -0.14   0.00
  24   7     0.15   0.10   0.00     0.02  -0.10   0.00     0.06  -0.01   0.00
  25   6     0.18  -0.01   0.00     0.16   0.14   0.00    -0.07  -0.14  -0.00
  26   1    -0.05   0.02   0.00     0.50  -0.03  -0.00     0.06  -0.04  -0.00
  27   1     0.09  -0.18  -0.00    -0.01   0.05   0.00    -0.05   0.02   0.00
  28   1    -0.03  -0.04  -0.00     0.09   0.09   0.00    -0.21  -0.17  -0.00
  29   1     0.12  -0.03  -0.00    -0.39   0.09   0.00    -0.41   0.13   0.00
  30   1     0.49  -0.08   0.00     0.16  -0.04   0.00     0.03  -0.00   0.00
  31   1     0.22  -0.37   0.00     0.06  -0.10   0.00    -0.01   0.03  -0.00
  32   1    -0.05  -0.07   0.00     0.10   0.12  -0.00    -0.15  -0.18   0.00
  33   1    -0.05   0.18  -0.00     0.03  -0.06   0.00    -0.01   0.04  -0.00
  34   1     0.14  -0.01   0.00     0.01  -0.01   0.00     0.06   0.00   0.00
  35   1     0.10   0.17  -0.00    -0.04  -0.05   0.00     0.11   0.16  -0.00
                     67                     68                     69
                        a                      a                      a 
 Frequencies --  1240.2809              1245.6941              1271.5411
 Red. masses --     6.7202                 6.7262                10.4918
 Frc consts  --     0.0000                 0.0000                 0.0000
 IR Inten    --   167.2736                30.2603                26.3495
 Raman Activ --     0.0000                 0.0000                 0.0000
 Depolar     --     0.0000                 0.0000                 0.0000
 Atom AN      X      Y      Z        X      Y      Z        X      Y      Z
   1   8     0.03   0.02   0.00     0.02  -0.00  -0.00     0.01   0.01   0.00
   2   6    -0.25   0.06   0.00    -0.29   0.05   0.00    -0.15   0.03  -0.00
   3   6     0.35  -0.05  -0.00     0.26  -0.07  -0.00     0.09  -0.09  -0.00
   4   6     0.09  -0.13  -0.00     0.13  -0.03  -0.00     0.06  -0.04  -0.00
   5   6    -0.10  -0.09  -0.00    -0.05  -0.08  -0.00    -0.06   0.00   0.00
   6   6    -0.08  -0.02   0.00    -0.00  -0.08  -0.00    -0.04   0.01   0.00
   7   6    -0.02   0.05   0.00    -0.12   0.03   0.00     0.05   0.04   0.00
   8   6     0.08   0.10   0.00    -0.22   0.02   0.00     0.07   0.00  -0.00
   9   6    -0.06  -0.02  -0.00     0.25  -0.04  -0.00    -0.04   0.01   0.00
  10   8    -0.00  -0.06  -0.00    -0.02  -0.00   0.00    -0.01   0.03   0.00
  11   6     0.03   0.20   0.00    -0.12   0.09   0.00    -0.20  -0.25  -0.00
  12   7    -0.00  -0.10  -0.00    -0.04  -0.02   0.00     0.23   0.13   0.00
  13   6     0.08   0.04   0.00    -0.09  -0.03  -0.00    -0.24  -0.10  -0.00
  14   6     0.11   0.15   0.00    -0.01  -0.01   0.00    -0.24  -0.32  -0.00
  15   6    -0.06  -0.01  -0.00    -0.05   0.01  -0.00    -0.03   0.15  -0.00
  16   6    -0.03   0.07  -0.00    -0.09   0.00  -0.00    -0.07  -0.10   0.00
  17   8     0.04   0.00   0.00     0.04  -0.03   0.00     0.02   0.07  -0.00
  18   6    -0.24  -0.13   0.00     0.23   0.07  -0.00     0.07  -0.00   0.00
[...]
 IR Inten    --   171.8426                 9.8944               127.7218
 Raman Activ --     0.0000                 0.0000                 0.0000
 Depolar     --     0.0000                 0.0000                 0.0000
 Atom AN      X      Y      Z        X      Y      Z        X      Y      Z
   1   8     0.01   0.02   0.00    -0.01  -0.01  -0.00     0.01   0.08   0.00
   2   6    -0.01   0.02   0.00     0.02  -0.00  -0.00    -0.01  -0.10  -0.00
   3   6     0.02  -0.01  -0.00    -0.03  -0.04  -0.00    -0.28  -0.06   0.00
   4   6    -0.03  -0.01  -0.00     0.02   0.02   0.00     0.49  -0.11  -0.00
   5   6     0.00   0.05   0.00    -0.00  -0.06  -0.00    -0.29   0.17   0.00
   6   6    -0.01  -0.05  -0.00     0.03   0.06   0.00     0.35   0.12   0.00
   7   6    -0.03   0.02   0.00    -0.00  -0.03  -0.00    -0.51   0.02   0.00
   8   6     0.04   0.01  -0.00    -0.01   0.05   0.00     0.24  -0.08  -0.00
   9   6    -0.08  -0.04  -0.00     0.02   0.02   0.00    -0.02  -0.10  -0.00
  10   8     0.02   0.01   0.00    -0.01  -0.00  -0.00     0.02   0.08   0.00
  11   6     0.28   0.26   0.00    -0.08  -0.17  -0.00    -0.01   0.01   0.00
  12   7    -0.04  -0.20  -0.00    -0.00   0.13   0.00    -0.01   0.01  -0.00
  13   6    -0.28   0.28  -0.00     0.03  -0.29   0.00     0.00  -0.01   0.00
  14   6     0.05  -0.32   0.00     0.03   0.21  -0.00     0.00   0.00  -0.00
  15   6    -0.24   0.08  -0.00    -0.18  -0.08  -0.00    -0.05  -0.01  -0.00
  16   6     0.14  -0.08   0.00     0.19   0.08   0.00     0.05   0.02   0.00
  17   8    -0.02   0.02  -0.00    -0.03   0.01  -0.00    -0.01  -0.00  -0.00
  18   6     0.12   0.16  -0.00     0.25  -0.15   0.00    -0.04   0.00  -0.00
  19   6    -0.19  -0.06   0.00    -0.14   0.07  -0.00     0.01  -0.01   0.00
  20   6     0.20  -0.20   0.00     0.22  -0.27   0.00    -0.02   0.03  -0.00
  21   6    -0.20   0.15  -0.00    -0.40   0.13  -0.00     0.03  -0.01   0.00
  22   6    -0.05  -0.17   0.00     0.17  -0.12   0.00    -0.02   0.00  -0.00
  23   6     0.19   0.11  -0.00    -0.13   0.35  -0.00     0.02  -0.02   0.00
  24   7     0.03   0.13   0.00     0.10  -0.14   0.00     0.01  -0.00   0.00
  25   6    -0.03  -0.27  -0.00    -0.10   0.25   0.00     0.01   0.01   0.00
  26   1     0.02  -0.01  -0.00    -0.01   0.01   0.00    -0.12   0.00   0.00
  27   1     0.01  -0.02  -0.00    -0.01   0.01   0.00    -0.03  -0.09  -0.00
  28   1     0.02   0.01   0.00    -0.01  -0.01  -0.00    -0.01  -0.10  -0.00
  29   1     0.02  -0.00  -0.00    -0.00  -0.01  -0.00     0.12  -0.04  -0.00
  30   1     0.03  -0.00   0.00     0.05  -0.04   0.00     0.01  -0.01   0.00
  31   1     0.00   0.00   0.00    -0.02   0.04  -0.00    -0.01   0.01  -0.00
  32   1     0.06   0.13  -0.00    -0.01   0.05  -0.00     0.00  -0.01   0.00
  33   1    -0.01   0.12  -0.00    -0.00   0.08  -0.00     0.00  -0.01   0.00
  34   1     0.09   0.02  -0.00     0.12  -0.00   0.00    -0.01   0.00  -0.00
  35   1     0.09   0.08  -0.00     0.05  -0.03   0.00    -0.00   0.01  -0.00
                     85                     86                     87
                        a                      a                      a 
 Frequencies --  1567.8052              1578.6238              1587.1240
 Red. masses --    11.6943                11.7385                11.4466
 Frc consts  --     0.0000                 0.0000                 0.0000
 IR Inten    --     0.3070               273.7159                39.1502
 Raman Activ --     0.0000                 0.0000                 0.0000
 Depolar     --     0.0000                 0.0000                 0.0000
 Atom AN      X      Y      Z        X      Y      Z        X      Y      Z
   1   8     0.01  -0.03  -0.00    -0.01  -0.04  -0.00    -0.00  -0.00  -0.00
   2   6    -0.01  -0.01   0.00     0.01   0.03   0.00    -0.00   0.01   0.00
   3   6     0.17   0.42   0.00     0.05   0.04   0.00    -0.00  -0.00  -0.00
   4   6    -0.02  -0.21  -0.00    -0.05  -0.01   0.00     0.00   0.00   0.00
   5   6    -0.07   0.47   0.01     0.02   0.02   0.00    -0.00  -0.00  -0.00
   6   6    -0.17  -0.40  -0.00    -0.05  -0.04  -0.00     0.00   0.00   0.00
   7   6    -0.02   0.21   0.00     0.05   0.01  -0.00    -0.00  -0.00   0.00
   8   6     0.06  -0.47  -0.00    -0.02  -0.03  -0.00     0.00   0.00   0.00
   9   6    -0.01   0.00   0.00    -0.02  -0.02   0.00    -0.01  -0.01  -0.00
  10   8     0.02   0.04   0.00     0.01   0.03   0.00     0.00   0.01   0.00
  11   6    -0.03  -0.05  -0.00     0.09  -0.05  -0.00    -0.02  -0.01  -0.00
  12   7     0.01   0.03   0.00    -0.12   0.04  -0.00     0.04  -0.02   0.00
  13   6     0.02  -0.04   0.00    -0.03  -0.13   0.00    -0.01   0.04  -0.00
  14   6     0.01   0.04  -0.00     0.09   0.01   0.00     0.06   0.00   0.00
  15   6     0.03  -0.00   0.00    -0.51  -0.06  -0.00    -0.07  -0.00  -0.00
  16   6    -0.04  -0.00  -0.00     0.52   0.15   0.00     0.03  -0.01   0.00
  17   8     0.00   0.00   0.00    -0.05  -0.02  -0.00     0.00   0.00  -0.00
  18   6     0.05  -0.02   0.00    -0.26   0.03  -0.00     0.18   0.16  -0.00
  19   6    -0.02   0.02  -0.00     0.07  -0.10   0.00    -0.25  -0.43   0.00
  20   6     0.03  -0.04   0.00    -0.11   0.21  -0.00     0.07   0.39  -0.00
  21   6    -0.05   0.01  -0.00     0.19  -0.07   0.00    -0.34  -0.16   0.00
  22   6     0.03  -0.01   0.00    -0.11   0.00  -0.00     0.37   0.35  -0.00
  23   6    -0.04   0.04  -0.00     0.22  -0.08   0.00    -0.10  -0.25   0.00
  24   7    -0.01  -0.02  -0.00     0.15  -0.09   0.00    -0.04   0.00  -0.00
  25   6     0.01   0.05   0.00    -0.14   0.16  -0.00     0.02  -0.01   0.00
  26   1    -0.02  -0.05  -0.00     0.01  -0.01  -0.00    -0.00   0.00  -0.00
  27   1     0.06  -0.09  -0.00     0.01  -0.00  -0.00    -0.00   0.00  -0.00
  28   1     0.09   0.05   0.00     0.01   0.01   0.00    -0.00  -0.00   0.00
  29   1     0.02   0.05   0.00    -0.01   0.01   0.00     0.00  -0.00  -0.00
  30   1    -0.00   0.00  -0.00     0.09  -0.07   0.00     0.02  -0.01   0.00
  31   1     0.00  -0.01   0.00    -0.06   0.11  -0.00     0.00  -0.00   0.00
  32   1    -0.00   0.01  -0.00     0.02  -0.03   0.00     0.09   0.08  -0.00
  33   1    -0.00   0.01  -0.00     0.01  -0.05   0.00     0.09  -0.07   0.00
  34   1     0.01  -0.00   0.00    -0.03  -0.00   0.00     0.07  -0.07   0.00
  35   1     0.00  -0.01   0.00     0.00   0.04  -0.00    -0.05  -0.10   0.00
                     88                     89                     90
                        a                      a                      a 
 Frequencies --  1657.8910              1668.2935              3058.0959
 Red. masses --    13.4737                13.4683                 1.8071
 Frc consts  --     0.0000                 0.0000                 0.0000
 IR Inten    --   265.5323               632.3932                37.7734
 Raman Activ --     0.0000                 0.0000                 0.0000
 Depolar     --     0.0000                 0.0000                 0.0000
 Atom AN      X      Y      Z        X      Y      Z        X      Y      Z
   1   8    -0.02  -0.10  -0.00    -0.10  -0.59  -0.01     0.00   0.00   0.00
   2   6     0.02   0.12   0.00     0.12   0.76   0.01    -0.00  -0.00  -0.00
   3   6     0.05   0.01  -0.00    -0.04  -0.06  -0.00     0.00  -0.00  -0.00
   4   6    -0.06   0.01   0.00     0.08   0.01  -0.00     0.00   0.00   0.00
   5   6     0.03  -0.02  -0.00    -0.03   0.01   0.00    -0.00   0.00  -0.00
   6   6    -0.03   0.00   0.00     0.04   0.01  -0.00    -0.00   0.00   0.00
   7   6     0.05  -0.03  -0.00    -0.08   0.02   0.00     0.00  -0.00  -0.00
   8   6    -0.01   0.06   0.00     0.05  -0.04  -0.00     0.00   0.00   0.00
   9   6    -0.12  -0.75  -0.00     0.01   0.11   0.00    -0.00   0.00   0.00
  10   8     0.10   0.59   0.00    -0.01  -0.08  -0.00     0.00  -0.00  -0.00
  11   6     0.01   0.04   0.00    -0.03  -0.03  -0.00     0.00  -0.00   0.00
  12   7    -0.04   0.00  -0.00     0.04   0.00   0.00     0.00   0.00  -0.00
  13   6     0.04  -0.03   0.00    -0.02   0.00   0.00    -0.00  -0.00   0.00
  14   6    -0.03   0.02  -0.00     0.03   0.01   0.00    -0.00   0.00  -0.00
  15   6     0.05  -0.00   0.00     0.01   0.01   0.00     0.00   0.00  -0.00
  16   6    -0.05   0.00  -0.00    -0.02   0.00  -0.00     0.00  -0.00   0.00
  17   8     0.01  -0.01   0.00     0.01  -0.00   0.00     0.00   0.00   0.00
  18   6     0.00  -0.01   0.00    -0.00  -0.00   0.00     0.00  -0.01   0.00
  19   6     0.00   0.01  -0.00     0.00   0.01  -0.00     0.21  -0.16   0.00
  20   6     0.00  -0.01   0.00     0.00  -0.01   0.00    -0.03  -0.01   0.00
  21   6    -0.01   0.00  -0.00     0.00   0.00  -0.00    -0.00  -0.00   0.00
  22   6     0.01  -0.00   0.00    -0.00  -0.00   0.00    -0.00   0.00  -0.00
  23   6    -0.02   0.00  -0.00     0.01   0.00  -0.00    -0.00   0.00  -0.00
  24   7     0.03  -0.02   0.00    -0.04   0.02  -0.00    -0.00   0.00  -0.00
  25   6    -0.03   0.04  -0.00     0.00  -0.05  -0.00     0.00  -0.00   0.00
  26   1     0.01   0.00  -0.00    -0.02   0.01   0.00    -0.00  -0.00  -0.00
  27   1     0.00   0.01   0.00    -0.01   0.00   0.00     0.00   0.00  -0.00
  28   1    -0.01  -0.00  -0.00     0.00  -0.01  -0.00     0.00  -0.00  -0.00
  29   1    -0.02  -0.00   0.00     0.01  -0.00  -0.00     0.00   0.00   0.00
  30   1    -0.01   0.00  -0.00     0.00   0.00  -0.00    -0.00  -0.00   0.00
  31   1     0.00  -0.00   0.00     0.00  -0.00  -0.00    -0.02  -0.01  -0.00
  32   1    -0.00  -0.00  -0.00    -0.00  -0.00  -0.00    -0.75   0.58  -0.01
  33   1    -0.00   0.00   0.00    -0.00   0.00   0.00     0.15   0.06  -0.00
  34   1     0.00  -0.00   0.00    -0.00   0.00   0.00     0.00   0.00  -0.00
  35   1     0.00  -0.00   0.00     0.00   0.00   0.00     0.00  -0.00   0.00
                     91                     92                     93
                        a                      a                      a 
 Frequencies --  3087.5718              3089.7882              3089.9790
 Red. masses --     1.7669                 1.8076                 1.7980
 Frc consts  --     0.0000                 0.0000                 0.0000
 IR Inten    --     0.3855                 0.2171                19.3630
 Raman Activ --     0.0000                 0.0000                 0.0000
 Depolar     --     0.0000                 0.0000                 0.0000
 Atom AN      X      Y      Z        X      Y      Z        X      Y      Z
   1   8     0.00   0.00   0.00     0.00   0.00   0.00     0.00   0.00   0.00
   2   6    -0.00  -0.00  -0.00    -0.00  -0.00  -0.00    -0.00  -0.00   0.00
   3   6     0.00  -0.00  -0.00     0.00  -0.01  -0.00     0.00  -0.00  -0.00
   4   6    -0.02  -0.15  -0.00    -0.02  -0.16  -0.00    -0.00  -0.00  -0.00
   5   6     0.13   0.05   0.00     0.05   0.02   0.00     0.00   0.00   0.00
   6   6    -0.09   0.08   0.00     0.07  -0.06  -0.00    -0.00   0.00   0.00
   7   6    -0.02  -0.11  -0.00     0.03   0.19   0.00     0.00   0.00   0.00
   8   6    -0.00  -0.00  -0.00     0.00   0.01   0.00     0.00   0.00   0.00
   9   6     0.00  -0.00  -0.00     0.00   0.00   0.00    -0.00   0.00   0.00
  10   8    -0.00   0.00   0.00    -0.00  -0.00  -0.00     0.00  -0.00  -0.00
  11   6     0.00  -0.00   0.00    -0.00   0.00   0.00     0.00  -0.00  -0.00
  12   7    -0.00   0.00   0.00     0.00  -0.00  -0.00     0.00  -0.00   0.00
  13   6    -0.00   0.00  -0.00     0.00   0.00   0.00    -0.00  -0.00   0.00
  14   6     0.00  -0.00   0.00     0.00  -0.00   0.00    -0.00   0.00  -0.00
  15   6     0.00   0.00  -0.00    -0.00   0.00  -0.00     0.00   0.00  -0.00
  16   6     0.00  -0.00  -0.00     0.00  -0.00   0.00     0.00  -0.00   0.00
  17   8     0.00   0.00  -0.00    -0.00   0.00  -0.00     0.00   0.00   0.00
  18   6     0.00   0.00   0.00     0.00   0.00  -0.00    -0.00  -0.00   0.00
  19   6    -0.00   0.00  -0.00    -0.00   0.00  -0.00     0.03  -0.02   0.00
  20   6    -0.00  -0.00   0.00    -0.00  -0.00   0.00     0.19   0.07  -0.00
  21   6     0.00   0.00  -0.00     0.00   0.00  -0.00    -0.03  -0.16   0.00
  22   6     0.00  -0.00   0.00     0.00  -0.00   0.00    -0.03   0.02  -0.00
  23   6     0.00   0.00  -0.00     0.00   0.00  -0.00    -0.00   0.00  -0.00
  24   7     0.00   0.00  -0.00     0.00  -0.00   0.00     0.00  -0.00   0.00
  25   6    -0.00  -0.00  -0.00    -0.00  -0.00  -0.00    -0.00   0.00  -0.00
  26   1     0.08   0.54   0.01     0.08   0.56   0.01     0.00   0.00   0.00
  27   1    -0.49  -0.19  -0.00    -0.18  -0.07  -0.00    -0.00  -0.00  -0.00
  28   1     0.34  -0.28  -0.00    -0.26   0.21   0.00     0.00  -0.00  -0.00
  29   1     0.07   0.39   0.00    -0.12  -0.67  -0.01    -0.00  -0.01  -0.00
  30   1    -0.00  -0.00   0.00    -0.00  -0.00   0.00     0.00  -0.00   0.00
  31   1    -0.00  -0.00  -0.00    -0.00  -0.00   0.00    -0.00  -0.00  -0.00
  32   1     0.00  -0.00   0.00     0.00  -0.00   0.00    -0.09   0.07  -0.00
  33   1     0.00   0.00  -0.00     0.01   0.00  -0.00    -0.69  -0.26   0.00
  34   1    -0.00  -0.00   0.00    -0.00  -0.00   0.00     0.10   0.58  -0.01
  35   1    -0.00   0.00  -0.00    -0.00   0.00  -0.00     0.11  -0.08   0.00
                     94                     95                     96
                        a                      a                      a 
 Frequencies --  3095.5937              3098.8896              3103.0597
 Red. masses --     1.8613                 1.8574                 1.9206
 Frc consts  --     0.0000                 0.0000                 0.0000
 IR Inten    --    19.3517                48.4985                48.6665
 Raman Activ --     0.0000                 0.0000                 0.0000
 Depolar     --     0.0000                 0.0000                 0.0000
 Atom AN      X      Y      Z        X      Y      Z        X      Y      Z
   1   8     0.00   0.00   0.00     0.00   0.00   0.00     0.00   0.00   0.00
   2   6    -0.00  -0.00  -0.00    -0.00  -0.00  -0.00     0.00  -0.00  -0.00
   3   6     0.00  -0.00  -0.00     0.00  -0.00  -0.00     0.00  -0.00  -0.00
   4   6    -0.02  -0.14  -0.00     0.00   0.00   0.00    -0.01  -0.08  -0.00
   5   6    -0.14  -0.05  -0.00     0.00   0.00   0.00    -0.17  -0.06  -0.00
   6   6     0.10  -0.08  -0.00     0.00  -0.00  -0.00    -0.15   0.12   0.00
   7   6    -0.03  -0.14  -0.00     0.00   0.00   0.00     0.02   0.08   0.00
   8   6    -0.00  -0.00   0.00     0.00  -0.00   0.00     0.00   0.00   0.00
   9   6     0.00  -0.00  -0.00    -0.00   0.00  -0.00     0.00   0.00   0.00
  10   8    -0.00   0.00   0.00     0.00  -0.00   0.00    -0.00  -0.00  -0.00
  11   6     0.00  -0.00  -0.00     0.00   0.00   0.00    -0.00   0.00   0.00
  12   7    -0.00   0.00   0.00    -0.00   0.00  -0.00     0.00  -0.00   0.00
  13   6     0.00   0.00  -0.00    -0.00  -0.00  -0.00    -0.00   0.00  -0.00
  14   6    -0.00  -0.00  -0.00     0.00  -0.00   0.00     0.00  -0.00   0.00
  15   6     0.00   0.00   0.00     0.00   0.00  -0.00    -0.00   0.00  -0.00
  16   6     0.00  -0.00   0.00     0.00  -0.00   0.00     0.00  -0.00   0.00
  17   8     0.00   0.00   0.00     0.00   0.00  -0.00    -0.00   0.00  -0.00
  18   6    -0.00  -0.00   0.00    -0.00  -0.00  -0.00     0.00   0.00  -0.00
  19   6     0.00  -0.00   0.00     0.02  -0.02   0.00     0.00  -0.00   0.00
  20   6     0.00   0.00  -0.00     0.16   0.06  -0.00     0.00   0.00  -0.00
  21   6     0.00   0.00  -0.00     0.03   0.19  -0.00     0.00   0.00  -0.00
  22   6     0.00  -0.00   0.00     0.08  -0.06   0.00     0.00  -0.00   0.00
  23   6    -0.00  -0.00  -0.00     0.00  -0.00   0.00     0.00   0.00  -0.00
  24   7     0.00  -0.00   0.00    -0.00   0.00   0.00    -0.00  -0.00  -0.00
  25   6    -0.00   0.00  -0.00     0.00  -0.00   0.00    -0.00  -0.00   0.00
  26   1     0.07   0.49   0.00    -0.00  -0.00  -0.00     0.04   0.24   0.00
  27   1     0.47   0.18   0.00    -0.00  -0.00  -0.00     0.55   0.21   0.00
  28   1    -0.34   0.28   0.00    -0.00   0.00   0.00     0.50  -0.41  -0.01
  29   1     0.08   0.48   0.00    -0.00  -0.00  -0.00    -0.05  -0.28  -0.00
  30   1    -0.00  -0.00   0.00    -0.00  -0.01   0.00    -0.00  -0.00   0.00
  31   1    -0.00  -0.00   0.00    -0.00  -0.00  -0.00     0.00  -0.00   0.00
  32   1    -0.00   0.00  -0.00    -0.08   0.06  -0.00    -0.00   0.00  -0.00
  33   1    -0.00  -0.00   0.00    -0.54  -0.21   0.00    -0.00  -0.00   0.00
  34   1    -0.00  -0.00   0.00    -0.11  -0.65   0.01    -0.00  -0.00   0.00
  35   1    -0.00   0.00  -0.00    -0.29   0.23  -0.00    -0.00   0.00  -0.00
                     97                     98                     99
                        a                      a                      a 
 Frequencies --  3110.1079              3119.7094              3443.2236
 Red. masses --     1.8824                 1.8304                 1.8524
 Frc consts  --     0.0000                 0.0000                 0.0000
 IR Inten    --    16.7017                 8.7489               198.8905
 Raman Activ --     0.0000                 0.0000                 0.0000
 Depolar     --     0.0000                 0.0000                 0.0000
 Atom AN      X      Y      Z        X      Y      Z        X      Y      Z
   1   8    -0.00  -0.00  -0.00     0.00   0.00   0.00     0.00   0.00   0.00
   2   6     0.00   0.00   0.00    -0.00  -0.00  -0.00    -0.00  -0.00  -0.00
   3   6    -0.00   0.00  -0.00     0.00  -0.00  -0.00     0.00  -0.00  -0.00
   4   6     0.00   0.00   0.00    -0.00  -0.00  -0.00     0.00  -0.00  -0.00
   5   6    -0.00  -0.00  -0.00     0.00   0.00  -0.00    -0.00   0.00  -0.00
   6   6    -0.00   0.00   0.00     0.00  -0.00   0.00    -0.00   0.00   0.00
   7   6     0.00   0.00   0.00     0.00   0.00   0.00    -0.00   0.00   0.00
   8   6    -0.00  -0.00   0.00     0.00   0.00   0.00     0.00   0.00   0.00
   9   6     0.00  -0.00  -0.00    -0.00   0.00   0.00    -0.00   0.00   0.00
  10   8    -0.00   0.00   0.00     0.00  -0.00  -0.00     0.00  -0.00  -0.00
  11   6    -0.00  -0.00   0.00    -0.00   0.00   0.00     0.00  -0.00  -0.00
  12   7    -0.00   0.00  -0.00     0.00  -0.00   0.00    -0.00   0.00   0.00
  13   6     0.00  -0.00   0.00     0.00   0.00  -0.00     0.00  -0.00   0.00
  14   6    -0.00  -0.00   0.00    -0.01  -0.00   0.00    -0.00   0.00  -0.00
  15   6    -0.00  -0.00   0.00    -0.05  -0.27   0.00     0.00  -0.00   0.00
  16   6     0.00   0.00  -0.00     0.01  -0.01   0.00    -0.01   0.00  -0.00
  17   8    -0.00  -0.00   0.00     0.00   0.00  -0.00    -0.21  -0.11  -0.00
  18   6    -0.00   0.00  -0.00    -0.00   0.00  -0.00    -0.00  -0.00   0.00
  19   6    -0.01   0.01  -0.00     0.00  -0.00   0.00     0.01  -0.00   0.00
  20   6    -0.04  -0.01   0.00     0.00   0.00  -0.00    -0.00   0.00  -0.00
  21   6    -0.02  -0.11   0.00     0.00   0.00  -0.00     0.00  -0.00   0.00
  22   6     0.20  -0.15   0.00     0.00   0.00  -0.00    -0.00  -0.00   0.00
  23   6     0.01   0.00   0.00    -0.00   0.00  -0.00    -0.00   0.00  -0.00
  24   7     0.00  -0.00   0.00    -0.00   0.00  -0.00     0.00   0.00   0.00
  25   6    -0.00   0.00   0.00     0.00  -0.00   0.00    -0.00  -0.00  -0.00
  26   1    -0.00  -0.00  -0.00     0.00   0.00   0.00    -0.00   0.00  -0.00
  27   1     0.00   0.00   0.00    -0.00  -0.00  -0.00    -0.00   0.00  -0.00
  28   1     0.00  -0.00  -0.00    -0.00   0.00   0.00    -0.00   0.00   0.00
  29   1     0.00  -0.00  -0.00    -0.00  -0.00  -0.00    -0.00   0.00   0.00
  30   1     0.00   0.00  -0.00     0.17   0.95  -0.01     0.00   0.01  -0.00
  31   1     0.00   0.00  -0.00    -0.01  -0.00  -0.00     0.88   0.42   0.00
  32   1     0.02  -0.01   0.00    -0.00   0.00  -0.00    -0.02   0.01  -0.00
  33   1     0.12   0.05  -0.00    -0.01  -0.00   0.00    -0.00  -0.00   0.00
  34   1     0.06   0.37  -0.00    -0.00  -0.01   0.00    -0.00   0.00   0.00
  35   1    -0.69   0.54  -0.01    -0.00   0.00  -0.00    -0.00   0.00   0.00
