      -----------------------------------------------------------      
     |                   =====================                   |     
     |                           x T B                           |     
     |                   =====================                   |     
     |                         S. Grimme                         |     
     |          Mulliken Center for Theoretical Chemistry        |     
     |                    University of Bonn                     |     
      -----------------------------------------------------------      

   * xtb version 6.7.1 (edcfbbe) compiled by 'albert@albert-system' on 2024-07-22

   xtb is free software: you can redistribute it and/or modify it under
   the terms of the GNU Lesser General Public License as published by
   the Free Software Foundation, either version 3 of the License, or
   (at your option) any later version.
   
   xtb is distributed in the hope that it will be useful,
   but WITHOUT ANY WARRANTY; without even the implied warranty of
   MERCHANTABILITY or FITNESS FOR A PARTICULAR PURPOSE.  See the
   GNU Lesser General Public License for more details.
   
   Cite this work as:
   * C. Bannwarth, E. Caldeweyher, S. Ehlert, A. Hansen, P. Pracht,
     J. Seibert, S. Spicher, S. Grimme, WIREs Comput. Mol. Sci., 2020, 11,
     e01493. DOI: 10.1002/wcms.1493
   
   for GFN2-xTB:
   * C. Bannwarth, S. Ehlert and S. Grimme., J. Chem. Theory Comput., 2019,
     15, 1652-1671. DOI: 10.1021/acs.jctc.8b01176
   for GFN1-xTB:
   * S. Grimme, C. Bannwarth, P. Shushkov, J. Chem. Theory Comput., 2017,
     13, 1989-2009. DOI: 10.1021/acs.jctc.7b00118
   for GFN0-xTB:
   * P. Pracht, E. Caldeweyher, S. Ehlert, S. Grimme, ChemRxiv, 2019, preprint.
     DOI: 10.26434/chemrxiv.8326202.v1
   for GFN-FF:
   * S. Spicher and S. Grimme, Angew. Chem. Int. Ed., 2020, 59, 15665-15673.
     DOI: 10.1002/anie.202004239
   
   for ALPB and GBSA implicit solvation:
   * S. Ehlert, M. Stahn, S. Spicher, S. Grimme, J. Chem. Theory Comput.,
     2021, 17, 4250-4261. DOI: 10.1021/acs.jctc.1c00471
   
   for ddCOSMO and CPCM-X implicit solvation:
   * M. Stahn, S. Ehlert, S. Grimme, J. Phys. Chem. A,
     2023, XX, XXXX-XXXX. DOI: 10.1021/acs.jpca.3c04382
   
   for DFT-D4:
   * E. Caldeweyher, C. Bannwarth and S. Grimme, J. Chem. Phys., 2017,
     147, 034112. DOI: 10.1063/1.4993215
   * E. Caldeweyher, S. Ehlert, A. Hansen, H. Neugebauer, S. Spicher,
     C. Bannwarth and S. Grimme, J. Chem. Phys., 2019, 150, 154122.
     DOI: 10.1063/1.5090222
   * E. Caldeweyher, J.-M. Mewes, S. Ehlert and S. Grimme, Phys. Chem. Chem. Phys.
     2020, 22, 8499-8512. DOI: 10.1039/D0CP00502A
   
   for sTDA-xTB:
   * S. Grimme and C. Bannwarth, J. Chem. Phys., 2016, 145, 054103.
     DOI: 10.1063/1.4959605
   
   in the mass-spec context:
   * V. Asgeirsson, C. Bauer and S. Grimme, Chem. Sci., 2017, 8, 4879.
     DOI: 10.1039/c7sc00601b
   * J. Koopman and S. Grimme, ACS Omega 2019, 4, 12, 15120-15133.
     DOI: 10.1021/acsomega.9b02011
   
   for metadynamics refer to:
   * S. Grimme, J. Chem. Theory Comput., 2019, 155, 2847-2862
     DOI: 10.1021/acs.jctc.9b00143
   
   for SPH calculations refer to:
   * S. Spicher and S. Grimme, J. Chem. Theory Comput., 2021, 17, 1701-1714
     DOI: 10.1021/acs.jctc.0c01306
   
   for ONIOM refer to:
   * C. Plett, A. Katbashev, S. Ehlert, S. Grimme, M. Bursch,
     Phys. Chem. Chem. Phys., 2023, 25, 17860-17868. DOI: 10.1039/D3CP02178E
   
   for DIPRO refer to:
   * J. Kohn, N. Gildemeister, S. Grimme, D. Fazzi, A. Hansen,
     J. Chem. Phys., 2023, just accepted.
   
   for PTB refer to:
   * S. Grimme, M. Mueller, A. Hansen, J. Chem. Phys., 2023, 158, 124111.
     DOI: 10.1063/5.0137838
   
   with help from (in alphabetical order)
   P. Atkinson, C. Bannwarth, F. Bohle, G. Brandenburg, E. Caldeweyher
   M. Checinski, S. Dohm, S. Ehlert, S. Ehrlich, I. Gerasimov, C. Hölzer
   A. Katbashev, J. Kohn, J. Koopman, C. Lavigne, S. Lehtola, F. März, M. Müller,
   F. Musil, H. Neugebauer, J. Pisarek, C. Plett, P. Pracht, F. Pultar,
   J. Seibert, P. Shushkov, S. Spicher, M. Stahn, M. Steiner, T. Strunk,
   J. Stückrath, T. Rose, and J. Unsleber
   
 * started run on 2025/07/17 at 13:18:16.503     
   ID    Z sym.   atoms
    1    8 O      1, 21
    2   15 P      2
    3    6 C      3-20, 22-38, 40-71
    4    7 N      39
    5    1 H      72-115

           -------------------------------------------------
          |                Calculation Setup                |
           -------------------------------------------------

          program call               : xtb data2507/toluene/9PhCzFDBFSPO/9PhCzFDBFSPO_toluene_S0_crest.xyz --gfn 2 --gbsa toluene --ohess vtight --parallel 40 --molden --ceasefiles --namespace data2507/toluene/9PhCzFDBFSPO/9PhCzFDBFSPO_toluene_S0_finalOpt
          calculation namespace      : data2507/toluene/9PhCzFDBFSPO/9PhCzFDBFSPO_toluene_S0_finalOpt
          coordinate file            : data2507/toluene/9PhCzFDBFSPO/9PhCzFDBFSPO_toluene_S0_crest.xyz
          omp threads                :                    40


           -------------------------------------------------
          |                 G F N 2 - x T B                 |
           -------------------------------------------------

        Reference                      10.1021/acs.jctc.8b01176
      * Hamiltonian:
        H0-scaling (s, p, d)           1.850000    2.230000    2.230000
        zeta-weighting                 0.500000
      * Dispersion:
        s8                             2.700000
        a1                             0.520000
        a2                             5.000000
        s9                             5.000000
      * Repulsion:
        kExp                           1.500000    1.000000
        rExp                           1.000000
      * Coulomb:
        alpha                          2.000000
        third order                    shell-resolved
        anisotropic                    true
        a3                             3.000000
        a5                             4.000000
        cn-shift                       1.200000
        cn-exp                         4.000000
        max-rad                        5.000000

      * Solvation model:               GBSA
        Solvent                        toluene
        Parameter file                 internal GFN2-xTB/GBSA
        Dielectric constant                7.0000E+00
        Reference state                gsolv [1 M gas/solution]
        Free energy shift                  4.5239E-03 Eh       2.8388E+00 kcal/mol
        Temperature                        2.9815E+02 K
        Density                            8.6700E-01 kg/L
        Solvent mass                       9.2140E+01 g/mol
        Interaction kernel             Still
        Born radius scaling (c1)           1.5686E+00
        Born radii integrator          GBOBC
        Born offset                        0.0000E+00 a0       0.0000E+00 AA
        H-bond correction              false
        Ion screening                  false
        Surface tension                    1.0000E-05 Eh       1.5569E+01 dyn/cm
        Grid points                               230 per atom

          ...................................................
          :                      SETUP                      :
          :.................................................:
          :  # basis functions                 334          :
          :  # atomic orbitals                 333          :
          :  # shells                          187          :
          :  # electrons                       334          :
          :  max. iterations                   250          :
          :  Hamiltonian                  GFN2-xTB          :
          :  restarted?                      false          :
          :  GBSA solvation                   true          :
          :  PC potential                    false          :
          :  electronic temp.          300.0000000     K    :
          :  accuracy                    1.0000000          :
          :  -> integral cutoff          0.2500000E+02      :
          :  -> integral neglect         0.1000000E-07      :
          :  -> SCF convergence          0.1000000E-05 Eh   :
          :  -> wf. convergence          0.1000000E-03 e    :
          :  Broyden damping             0.4000000          :
          :  net charge                          0          :
          :  unpaired electrons                  0          :
          ...................................................

 iter      E             dE          RMSdq      gap      omega  full diag
   1   -182.9033011 -0.182903E+03  0.461E+00    2.57       0.0  T
   2   -182.9982265 -0.949254E-01  0.279E+00    2.64       1.0  T
   3   -182.9499653  0.482612E-01  0.955E-01    2.60       1.0  T
   4   -183.0163574 -0.663921E-01  0.297E-01    2.55       1.0  T
   5   -183.0216681 -0.531068E-02  0.109E-01    2.53       1.0  T
   6   -183.0218480 -0.179893E-03  0.554E-02    2.52       1.0  T
   7   -183.0220541 -0.206172E-03  0.266E-02    2.52       1.0  T
   8   -183.0220651 -0.109729E-04  0.118E-02    2.52       1.0  T
   9   -183.0220707 -0.562656E-05  0.463E-03    2.52       2.0  T
  10   -183.0220714 -0.692441E-06  0.220E-03    2.52       4.2  T
  11   -183.0220715 -0.636007E-07  0.856E-04    2.52      10.9  T
  12   -183.0220715 -0.363079E-07  0.299E-04    2.52      31.2  T

   *** convergence criteria satisfied after 12 iterations ***

         #    Occupation            Energy/Eh            Energy/eV
      -------------------------------------------------------------
         1        2.0000           -0.7478340             -20.3496
       ...           ...                  ...                  ...
       161        2.0000           -0.3974321             -10.8147
       162        2.0000           -0.3959823             -10.7752
       163        2.0000           -0.3879283             -10.5561
       164        2.0000           -0.3820712             -10.3967
       165        2.0000           -0.3787864             -10.3073
       166        2.0000           -0.3780132             -10.2863
       167        2.0000           -0.3603353              -9.8052 (HOMO)
       168                         -0.2678083              -7.2874 (LUMO)
       169                         -0.2545012              -6.9253
       170                         -0.2534669              -6.8972
       171                         -0.2508950              -6.8272
       172                         -0.2474486              -6.7334
       ...                                ...                  ...
       333                          1.2014628              32.6935
      -------------------------------------------------------------
                  HL-Gap            0.0925270 Eh            2.5178 eV
             Fermi-level           -0.3140718 Eh           -8.5463 eV

 SCC (total)                   0 d,  0 h,  0 min,  0.274 sec
 SCC setup                      ...        0 min,  0.003 sec (  1.113%)
 Dispersion                     ...        0 min,  0.006 sec (  2.307%)
 classical contributions        ...        0 min,  0.000 sec (  0.026%)
 integral evaluation            ...        0 min,  0.015 sec (  5.352%)
 iterations                     ...        0 min,  0.225 sec ( 82.249%)
 molecular gradient             ...        0 min,  0.022 sec (  8.137%)
 printout                       ...        0 min,  0.002 sec (  0.776%)

         :::::::::::::::::::::::::::::::::::::::::::::::::::::
         ::                     SUMMARY                     ::
         :::::::::::::::::::::::::::::::::::::::::::::::::::::
         :: total energy            -179.673136623214 Eh    ::
         :: total w/o Gsasa/hb      -179.602678967313 Eh    ::
         :: gradient norm              0.012265146856 Eh/a0 ::
         :: HOMO-LUMO gap              2.517786931162 eV    ::
         ::.................................................::
         :: SCC energy              -183.020869707076 Eh    ::
         :: -> isotropic ES            0.056254857102 Eh    ::
         :: -> anisotropic ES          0.012987742648 Eh    ::
         :: -> anisotropic XC          0.098397434914 Eh    ::
         :: -> dispersion             -0.169528078304 Eh    ::
         :: -> Gsolv                  -0.078096538882 Eh    ::
         ::    -> Gelec               -0.007638882982 Eh    ::
         ::    -> Gsasa               -0.074981535772 Eh    ::
         ::    -> Ghb                  0.000000000000 Eh    ::
         ::    -> Gshift               0.004523879872 Eh    ::
         :: repulsion energy           3.347733083862 Eh    ::
         :: add. restraining           0.000000000000 Eh    ::
         :: total charge               0.000000000000 e     ::
         :::::::::::::::::::::::::::::::::::::::::::::::::::::

      ----------------------------------------------------------- 
     |                   =====================                   |
     |                        A N C O P T                        |
     |                   =====================                   |
     |               Approximate Normal Coordinate               |
     |                Rational Function Optimizer                |
      ----------------------------------------------------------- 

Optimization log is written to '/dev/null'
      ----------------------------------------------------------- 
     |                   =====================                   |
     |                        A N C O P T                        |
     |                   =====================                   |
     |               Approximate Normal Coordinate               |
     |                Rational Function Optimizer                |
      ----------------------------------------------------------- 

          ...................................................
          :                      SETUP                      :
          :.................................................:
          :   optimization level         verytight          :
          :   max. optcycles                  2300          :
          :   ANC micro-cycles                  20          :
          :   degrees of freedom               339          :
          :.................................................:
          :   RF solver                   davidson          :
          :   write xtbopt.log                true          :
          :   linear?                        false          :
          :   energy convergence         0.1000000E-06 Eh   :
          :   grad. convergence          0.2000000E-03 Eh/α :
          :   maxmium RF displ.          1.0000000          :
          :   Hlow (freq-cutoff)         0.1000000E-01      :
          :   Hmax (freq-cutoff)         5.0000000          :
          :   S6 in model hess.         20.0000000          :
          ...................................................

generating ANC from exact Hessian ...
Using Lindh-Hessian (1995)
 Shifting diagonal of input Hessian by   9.992555283197630E-003
 Lowest  eigenvalues of input Hessian
    0.000000    0.000000    0.000000    0.000000    0.000000    0.010000
    0.000000    0.010027    0.010061    0.010095    0.010149    0.010193
    0.010213    0.010366    0.010519    0.010619    0.010730    0.010785
 Highest eigenvalues
    2.133136    2.146822    2.170267    2.191936    2.224630    2.582441
 

........................................................................
.............................. CYCLE    1 ..............................
........................................................................

 iter      E             dE          RMSdq      gap      omega  full diag
   1   -183.0220715 -0.183022E+03  0.145E-04    2.52       0.0  T
   2   -183.0220715 -0.375223E-09  0.852E-05    2.52     109.5  T
   3   -183.0220715 -0.293284E-09  0.565E-05    2.52     165.1  T
     SCC iter.                  ...        0 min,  0.061 sec
     gradient                   ...        0 min,  0.021 sec
 * total energy  :  -179.6731366 Eh     change       -0.3179736E-08 Eh
   gradient norm :     0.0122672 Eh/α   predicted     0.0000000E+00 (-100.00%)
   displ. norm   :     0.0456543 α      lambda       -0.1436559E-03
   maximum displ.:     0.0123651 α      in ANC's #14, #48, #23, ...

........................................................................
.............................. CYCLE    2 ..............................
........................................................................

 iter      E             dE          RMSdq      gap      omega  full diag
   1   -183.0167052 -0.183017E+03  0.246E-02    2.52       0.0  T
   2   -183.0167082 -0.304679E-05  0.105E-02    2.51       1.0  T
   3   -183.0167081  0.177103E-06  0.455E-03    2.51       2.1  T
   4   -183.0167089 -0.788643E-06  0.213E-03    2.51       4.4  T
   5   -183.0167091 -0.235741E-06  0.771E-04    2.51      12.1  T
   6   -183.0167091 -0.944956E-08  0.286E-04    2.51      32.6  T
     SCC iter.                  ...        0 min,  0.110 sec
     gradient                   ...        0 min,  0.021 sec
 * total energy  :  -179.6732413 Eh     change       -0.1046549E-03 Eh
   gradient norm :     0.0064819 Eh/α   predicted    -0.7197798E-04 ( -31.22%)
   displ. norm   :     0.0662183 α      lambda       -0.7960281E-04
   maximum displ.:     0.0263327 α      in ANC's #14, #16, #28, ...

........................................................................
.............................. CYCLE    3 ..............................
........................................................................

 iter      E             dE          RMSdq      gap      omega  full diag
   1   -183.0129100 -0.183013E+03  0.220E-02    2.51       0.0  T
   2   -183.0129134 -0.338049E-05  0.975E-03    2.51       1.0  T
   3   -183.0129135 -0.906100E-07  0.451E-03    2.51       2.1  T
   4   -183.0129140 -0.516146E-06  0.241E-03    2.51       3.9  T
   5   -183.0129143 -0.303452E-06  0.817E-04    2.51      11.4  T
   6   -183.0129143 -0.105958E-07  0.305E-04    2.51      30.6  T
     SCC iter.                  ...        0 min,  0.108 sec
     gradient                   ...        0 min,  0.021 sec
 * total energy  :  -179.6732875 Eh     change       -0.4619671E-04 Eh
   gradient norm :     0.0009429 Eh/α   predicted    -0.3998560E-04 ( -13.44%)
   displ. norm   :     0.0585744 α      lambda       -0.1195335E-04
   maximum displ.:     0.0289030 α      in ANC's #14, #16, #22, ...

........................................................................
.............................. CYCLE    4 ..............................
........................................................................

 iter      E             dE          RMSdq      gap      omega  full diag
   1   -183.0126483 -0.183013E+03  0.105E-02    2.51       0.0  T
   2   -183.0126486 -0.334606E-06  0.637E-03    2.51       1.5  T
   3   -183.0126484  0.171340E-06  0.232E-03    2.51       4.0  T
   4   -183.0126486 -0.200937E-06  0.898E-04    2.51      10.4  T
   5   -183.0126487 -0.683824E-07  0.238E-04    2.51      39.2  T
     SCC iter.                  ...        0 min,  0.093 sec
     gradient                   ...        0 min,  0.020 sec
 * total energy  :  -179.6733010 Eh     change       -0.1347527E-04 Eh
   gradient norm :     0.0020431 Eh/α   predicted    -0.6273580E-05 ( -53.44%)
   displ. norm   :     0.0624427 α      lambda       -0.1523223E-04
   maximum displ.:     0.0319937 α      in ANC's #14, #16, #22, ...

........................................................................
.............................. CYCLE    5 ..............................
........................................................................

 iter      E             dE          RMSdq      gap      omega  full diag
   1   -183.0129839 -0.183013E+03  0.117E-02    2.51       0.0  T
   2   -183.0129840 -0.569157E-07  0.682E-03    2.51       1.4  T
   3   -183.0129839  0.854974E-07  0.108E-03    2.51       8.6  T
   4   -183.0129840 -0.105946E-06  0.271E-04    2.51      34.4  T
   5   -183.0129840 -0.117458E-08  0.114E-04    2.51      81.7  T
     SCC iter.                  ...        0 min,  0.092 sec
     gradient                   ...        0 min,  0.021 sec
 * total energy  :  -179.6733133 Eh     change       -0.1236692E-04 Eh
   gradient norm :     0.0019338 Eh/α   predicted    -0.7646389E-05 ( -38.17%)
   displ. norm   :     0.1520089 α      lambda       -0.1788066E-04
   maximum displ.:     0.0771323 α      in ANC's #14, #16, #22, ...

........................................................................
.............................. CYCLE    6 ..............................
........................................................................

 iter      E             dE          RMSdq      gap      omega  full diag
   1   -183.0130674 -0.183013E+03  0.271E-02    2.51       0.0  T
   2   -183.0130678 -0.355453E-06  0.157E-02    2.51       1.0  T
   3   -183.0130674  0.400076E-06  0.236E-03    2.51       3.9  T
   4   -183.0130679 -0.499548E-06  0.732E-04    2.51      12.7  T
   5   -183.0130679 -0.202496E-07  0.266E-04    2.51      35.0  T
     SCC iter.                  ...        0 min,  0.093 sec
     gradient                   ...        0 min,  0.020 sec
 * total energy  :  -179.6733276 Eh     change       -0.1430349E-04 Eh
   gradient norm :     0.0011140 Eh/α   predicted    -0.9032560E-05 ( -36.85%)
   displ. norm   :     0.0347967 α      lambda       -0.4084559E-05
   maximum displ.:     0.0177271 α      in ANC's #14, #16, #11, ...

........................................................................
.............................. CYCLE    7 ..............................
........................................................................

 iter      E             dE          RMSdq      gap      omega  full diag
   1   -183.0128922 -0.183013E+03  0.605E-03    2.51       0.0  T
   2   -183.0128922 -0.182614E-07  0.358E-03    2.51       2.6  T
   3   -183.0128922  0.365670E-07  0.655E-04    2.51      14.2  T
   4   -183.0128922 -0.444377E-07  0.890E-05    2.51     104.7  T
     SCC iter.                  ...        0 min,  0.075 sec
     gradient                   ...        0 min,  0.021 sec
 * total energy  :  -179.6733328 Eh     change       -0.5144983E-05 Eh
   gradient norm :     0.0004682 Eh/α   predicted    -0.2044293E-05 ( -60.27%)
   displ. norm   :     0.0897967 α      lambda       -0.8663304E-05
   maximum displ.:     0.0424187 α      in ANC's #14, #16, #11, ...

........................................................................
.............................. CYCLE    8 ..............................
........................................................................

 iter      E             dE          RMSdq      gap      omega  full diag
   1   -183.0129137 -0.183013E+03  0.151E-02    2.51       0.0  T
   2   -183.0129138 -0.714397E-07  0.894E-03    2.51       1.0  T
   3   -183.0129136  0.185463E-06  0.146E-03    2.51       6.4  T
   4   -183.0129138 -0.223648E-06  0.198E-04    2.51      47.2  T
   5   -183.0129138 -0.909466E-09  0.135E-04    2.51      69.2  T
     SCC iter.                  ...        0 min,  0.094 sec
     gradient                   ...        0 min,  0.020 sec
 * total energy  :  -179.6733414 Eh     change       -0.8653268E-05 Eh
   gradient norm :     0.0010691 Eh/α   predicted    -0.4350099E-05 ( -49.73%)
   displ. norm   :     0.0802225 α      lambda       -0.4336266E-05
   maximum displ.:     0.0397471 α      in ANC's #14, #16, #11, ...

........................................................................
.............................. CYCLE    9 ..............................
........................................................................

 iter      E             dE          RMSdq      gap      omega  full diag
   1   -183.0129488 -0.183013E+03  0.133E-02    2.51       0.0  T
   2   -183.0129489 -0.419408E-07  0.777E-03    2.51       1.2  T
   3   -183.0129488  0.380799E-07  0.725E-04    2.51      12.9  T
   4   -183.0129489 -0.544669E-07  0.176E-04    2.51      53.0  T
     SCC iter.                  ...        0 min,  0.074 sec
     gradient                   ...        0 min,  0.021 sec
 * total energy  :  -179.6733464 Eh     change       -0.4989723E-05 Eh
   gradient norm :     0.0011372 Eh/α   predicted    -0.2177207E-05 ( -56.37%)
   displ. norm   :     0.1152440 α      lambda       -0.5842186E-05
   maximum displ.:     0.0565719 α      in ANC's #14, #16, #11, ...

........................................................................
.............................. CYCLE   10 ..............................
........................................................................

 iter      E             dE          RMSdq      gap      omega  full diag
   1   -183.0132045 -0.183013E+03  0.192E-02    2.51       0.0  T
   2   -183.0132046 -0.901809E-07  0.113E-02    2.51       1.0  T
   3   -183.0132045  0.690740E-07  0.951E-04    2.51       9.8  T
   4   -183.0132046 -0.983245E-07  0.267E-04    2.51      34.9  T
     SCC iter.                  ...        0 min,  0.075 sec
     gradient                   ...        0 min,  0.020 sec
 * total energy  :  -179.6733529 Eh     change       -0.6487815E-05 Eh
   gradient norm :     0.0007436 Eh/α   predicted    -0.2940681E-05 ( -54.67%)
   displ. norm   :     0.1303374 α      lambda       -0.6088450E-05
   maximum displ.:     0.0648500 α      in ANC's #14, #16, #11, ...

........................................................................
.............................. CYCLE   11 ..............................
........................................................................

 iter      E             dE          RMSdq      gap      omega  full diag
   1   -183.0133805 -0.183013E+03  0.225E-02    2.51       0.0  T
   2   -183.0133806 -0.126723E-06  0.132E-02    2.51       1.0  T
   3   -183.0133805  0.950698E-07  0.113E-03    2.51       8.2  T
   4   -183.0133807 -0.138002E-06  0.305E-04    2.51      30.5  T
   5   -183.0133807 -0.523559E-08  0.137E-04    2.51      68.2  T
     SCC iter.                  ...        0 min,  0.092 sec
     gradient                   ...        0 min,  0.021 sec
 * total energy  :  -179.6733594 Eh     change       -0.6500356E-05 Eh
   gradient norm :     0.0005003 Eh/α   predicted    -0.3069846E-05 ( -52.77%)
   displ. norm   :     0.0921379 α      lambda       -0.4526279E-05
   maximum displ.:     0.0448691 α      in ANC's #14, #15, #11, ...

........................................................................
.............................. CYCLE   12 ..............................
........................................................................

 iter      E             dE          RMSdq      gap      omega  full diag
   1   -183.0134539 -0.183013E+03  0.165E-02    2.51       0.0  T
   2   -183.0134540 -0.526855E-07  0.968E-03    2.51       1.0  T
   3   -183.0134539  0.432509E-07  0.761E-04    2.51      12.3  T
   4   -183.0134540 -0.663073E-07  0.158E-04    2.51      59.2  T
     SCC iter.                  ...        0 min,  0.073 sec
     gradient                   ...        0 min,  0.021 sec
 * total energy  :  -179.6733645 Eh     change       -0.5111620E-05 Eh
   gradient norm :     0.0007505 Eh/α   predicted    -0.2274595E-05 ( -55.50%)
   displ. norm   :     0.0715549 α      lambda       -0.4313283E-05
   maximum displ.:     0.0343783 α      in ANC's #15, #14, #9, ...

........................................................................
.............................. CYCLE   13 ..............................
........................................................................

 iter      E             dE          RMSdq      gap      omega  full diag
   1   -183.0133997 -0.183013E+03  0.133E-02    2.51       0.0  T
   2   -183.0133997 -0.313741E-07  0.779E-03    2.51       1.2  T
   3   -183.0133997  0.296356E-07  0.624E-04    2.51      14.9  T
   4   -183.0133998 -0.451963E-07  0.139E-04    2.51      66.9  T
     SCC iter.                  ...        0 min,  0.074 sec
     gradient                   ...        0 min,  0.021 sec
 * total energy  :  -179.6733694 Eh     change       -0.4909997E-05 Eh
   gradient norm :     0.0007470 Eh/α   predicted    -0.2164901E-05 ( -55.91%)
   displ. norm   :     0.0806619 α      lambda       -0.3818707E-05
   maximum displ.:     0.0402667 α      in ANC's #15, #14, #9, ...

........................................................................
.............................. CYCLE   14 ..............................
........................................................................

 iter      E             dE          RMSdq      gap      omega  full diag
   1   -183.0130357 -0.183013E+03  0.151E-02    2.51       0.0  T
   2   -183.0130357 -0.442067E-07  0.888E-03    2.51       1.1  T
   3   -183.0130357  0.335374E-07  0.682E-04    2.51      13.7  T
   4   -183.0130357 -0.526357E-07  0.165E-04    2.51      56.6  T
     SCC iter.                  ...        0 min,  0.085 sec
     gradient                   ...        0 min,  0.022 sec
 * total energy  :  -179.6733736 Eh     change       -0.4199460E-05 Eh
   gradient norm :     0.0004372 Eh/α   predicted    -0.1919070E-05 ( -54.30%)
   displ. norm   :     0.0771563 α      lambda       -0.2926714E-05
   maximum displ.:     0.0379813 α      in ANC's #15, #14, #9, ...

........................................................................
.............................. CYCLE   15 ..............................
........................................................................

 iter      E             dE          RMSdq      gap      omega  full diag
   1   -183.0128812 -0.183013E+03  0.145E-02    2.51       0.0  T
   2   -183.0128813 -0.418678E-07  0.853E-03    2.51       1.1  T
   3   -183.0128812  0.268037E-07  0.654E-04    2.51      14.3  T
   4   -183.0128813 -0.449454E-07  0.148E-04    2.51      63.2  T
     SCC iter.                  ...        0 min,  0.076 sec
     gradient                   ...        0 min,  0.020 sec
 * total energy  :  -179.6733769 Eh     change       -0.3294440E-05 Eh
   gradient norm :     0.0003129 Eh/α   predicted    -0.1468106E-05 ( -55.44%)
   displ. norm   :     0.0917417 α      lambda       -0.3210808E-05
   maximum displ.:     0.0428690 α      in ANC's #15, #14, #9, ...

........................................................................
.............................. CYCLE   16 ..............................
........................................................................

 iter      E             dE          RMSdq      gap      omega  full diag
   1   -183.0128093 -0.183013E+03  0.172E-02    2.51       0.0  T
   2   -183.0128093 -0.517367E-07  0.101E-02    2.51       1.0  T
   3   -183.0128093  0.224614E-07  0.680E-04    2.51      13.7  T
   4   -183.0128093 -0.457484E-07  0.158E-04    2.51      59.0  T
     SCC iter.                  ...        0 min,  0.075 sec
     gradient                   ...        0 min,  0.021 sec
 * total energy  :  -179.6733806 Eh     change       -0.3680008E-05 Eh
   gradient norm :     0.0005995 Eh/α   predicted    -0.1613687E-05 ( -56.15%)
   displ. norm   :     0.1177184 α      lambda       -0.3976487E-05
   maximum displ.:     0.0538123 α      in ANC's #14, #15, #9, ...

........................................................................
.............................. CYCLE   17 ..............................
........................................................................

 iter      E             dE          RMSdq      gap      omega  full diag
   1   -183.0128236 -0.183013E+03  0.218E-02    2.51       0.0  T
   2   -183.0128236 -0.740654E-07  0.128E-02    2.51       1.0  T
   3   -183.0128236  0.228212E-07  0.745E-04    2.51      12.5  T
   4   -183.0128237 -0.572857E-07  0.211E-04    2.51      44.2  T
     SCC iter.                  ...        0 min,  0.075 sec
     gradient                   ...        0 min,  0.021 sec
 * total energy  :  -179.6733851 Eh     change       -0.4539763E-05 Eh
   gradient norm :     0.0007980 Eh/α   predicted    -0.2004359E-05 ( -55.85%)
   displ. norm   :     0.1365902 α      lambda       -0.4082936E-05
   maximum displ.:     0.0639994 α      in ANC's #14, #9, #15, ...

........................................................................
.............................. CYCLE   18 ..............................
........................................................................

 iter      E             dE          RMSdq      gap      omega  full diag
   1   -183.0130360 -0.183013E+03  0.249E-02    2.51       0.0  T
   2   -183.0130361 -0.970491E-07  0.146E-02    2.51       1.0  T
   3   -183.0130361  0.493883E-07  0.932E-04    2.51      10.0  T
   4   -183.0130362 -0.934612E-07  0.274E-04    2.51      34.1  T
     SCC iter.                  ...        0 min,  0.074 sec
     gradient                   ...        0 min,  0.021 sec
 * total energy  :  -179.6733895 Eh     change       -0.4329372E-05 Eh
   gradient norm :     0.0006380 Eh/α   predicted    -0.2061361E-05 ( -52.39%)
   displ. norm   :     0.0986910 α      lambda       -0.2536007E-05
   maximum displ.:     0.0477877 α      in ANC's #14, #4, #9, ...

........................................................................
.............................. CYCLE   19 ..............................
........................................................................

 iter      E             dE          RMSdq      gap      omega  full diag
   1   -183.0132619 -0.183013E+03  0.175E-02    2.51       0.0  T
   2   -183.0132619 -0.519871E-07  0.103E-02    2.51       1.0  T
   3   -183.0132619  0.444607E-07  0.789E-04    2.51      11.8  T
   4   -183.0132620 -0.676785E-07  0.206E-04    2.51      45.3  T
     SCC iter.                  ...        0 min,  0.073 sec
     gradient                   ...        0 min,  0.021 sec
 * total energy  :  -179.6733922 Eh     change       -0.2712673E-05 Eh
   gradient norm :     0.0003012 Eh/α   predicted    -0.1274674E-05 ( -53.01%)
   displ. norm   :     0.0699752 α      lambda       -0.1890375E-05
   maximum displ.:     0.0339895 α      in ANC's #14, #4, #9, ...

........................................................................
.............................. CYCLE   20 ..............................
........................................................................

 iter      E             dE          RMSdq      gap      omega  full diag
   1   -183.0134899 -0.183013E+03  0.117E-02    2.51       0.0  T
   2   -183.0134899 -0.265955E-07  0.687E-03    2.51       1.4  T
   3   -183.0134899  0.251602E-07  0.593E-04    2.51      15.7  T
   4   -183.0134900 -0.364313E-07  0.141E-04    2.51      66.2  T
     SCC iter.                  ...        0 min,  0.074 sec
     gradient                   ...        0 min,  0.021 sec
 * total energy  :  -179.6733942 Eh     change       -0.2043158E-05 Eh
   gradient norm :     0.0002518 Eh/α   predicted    -0.9482308E-06 ( -53.59%)
   displ. norm   :     0.0698338 α      lambda       -0.1652776E-05
   maximum displ.:     0.0325398 α      in ANC's #14, #4, #7, ...
 * RMSD in coord.:     0.1270403 α      energy gain  -0.2575971E-03 Eh

generating ANC from exact Hessian ...
Using Lindh-Hessian (1995)
 Shifting diagonal of input Hessian by   9.991744382342991E-003
 Lowest  eigenvalues of input Hessian
    0.000000    0.000000    0.000000    0.000000    0.000000    0.010000
    0.000000    0.010028    0.010061    0.010095    0.010148    0.010191
    0.010209    0.010369    0.010513    0.010617    0.010731    0.010782
 Highest eigenvalues
    2.129352    2.143522    2.164691    2.187836    2.218184    2.538077
 

........................................................................
.............................. CYCLE   21 ..............................
........................................................................

 iter      E             dE          RMSdq      gap      omega  full diag
   1   -183.0134676 -0.183013E+03  0.111E-02    2.51       0.0  T
   2   -183.0134676 -0.212949E-07  0.650E-03    2.51       1.4  T
   3   -183.0134676  0.128828E-07  0.475E-04    2.51      19.6  T
   4   -183.0134676 -0.221641E-07  0.115E-04    2.51      81.0  T
     SCC iter.                  ...        0 min,  0.073 sec
     gradient                   ...        0 min,  0.021 sec
 * total energy  :  -179.6733960 Eh     change       -0.1732775E-05 Eh
   gradient norm :     0.0004672 Eh/α   predicted     0.0000000E+00 (-100.00%)
   displ. norm   :     0.0094579 α      lambda       -0.2003236E-06
   maximum displ.:     0.0041734 α      in ANC's #20, #23, #2, ...

........................................................................
.............................. CYCLE   22 ..............................
........................................................................

 iter      E             dE          RMSdq      gap      omega  full diag
   1   -183.0132936 -0.183013E+03  0.200E-03    2.52       0.0  T
   2   -183.0132936 -0.383926E-08  0.119E-03    2.51       7.8  T
   3   -183.0132936  0.698338E-08  0.289E-04    2.51      32.2  T
   4   -183.0132936 -0.829885E-08  0.459E-05    2.51     203.0  T
     SCC iter.                  ...        0 min,  0.077 sec
     gradient                   ...        0 min,  0.022 sec
 * total energy  :  -179.6733968 Eh     change       -0.8416562E-06 Eh
   gradient norm :     0.0001765 Eh/α   predicted    -0.3698584E-06 ( -56.06%)
   displ. norm   :     0.0280417 α      lambda       -0.1327221E-05
   maximum displ.:     0.0127786 α      in ANC's #20, #2, #23, ...

........................................................................
.............................. CYCLE   23 ..............................
........................................................................

 iter      E             dE          RMSdq      gap      omega  full diag
   1   -183.0131388 -0.183013E+03  0.487E-03    2.52       0.0  T
   2   -183.0131388 -0.174706E-07  0.288E-03    2.52       3.2  T
   3   -183.0131388  0.323951E-07  0.628E-04    2.52      14.9  T
   4   -183.0131388 -0.385272E-07  0.118E-04    2.52      79.0  T
     SCC iter.                  ...        0 min,  0.075 sec
     gradient                   ...        0 min,  0.020 sec
 * total energy  :  -179.6733981 Eh     change       -0.1264197E-05 Eh
   gradient norm :     0.0004372 Eh/α   predicted    -0.6640710E-06 ( -47.47%)
   displ. norm   :     0.0248835 α      lambda        0.2723944E-06
   maximum displ.:     0.0113255 α      in ANC's #20, #2, #23, ...

........................................................................
.............................. CYCLE   24 ..............................
........................................................................

 iter      E             dE          RMSdq      gap      omega  full diag
   1   -183.0129760 -0.183013E+03  0.435E-03    2.52       0.0  T
   2   -183.0129760 -0.147849E-07  0.258E-03    2.52       3.6  T
   3   -183.0129760  0.297777E-07  0.595E-04    2.52      15.7  T
   4   -183.0129760 -0.351593E-07  0.109E-04    2.52      85.4  T
     SCC iter.                  ...        0 min,  0.075 sec
     gradient                   ...        0 min,  0.020 sec
 * total energy  :  -179.6733979 Eh     change        0.1846732E-06 Eh
   gradient norm :     0.0009655 Eh/α   predicted     0.1316897E-06 ( -28.69%)
   displ. norm   :     0.0057054 α      lambda       -0.9092798E-06
   maximum displ.:     0.0022811 α      in ANC's #29, #43, #27, ...

........................................................................
.............................. CYCLE   25 ..............................
........................................................................

 iter      E             dE          RMSdq      gap      omega  full diag
   1   -183.0132121 -0.183013E+03  0.165E-03    2.52       0.0  T
   2   -183.0132121 -0.878782E-08  0.103E-03    2.52       9.1  T
   3   -183.0132121  0.675345E-08  0.387E-04    2.52      24.1  T
   4   -183.0132121 -0.916216E-08  0.711E-05    2.52     131.1  T
     SCC iter.                  ...        0 min,  0.075 sec
     gradient                   ...        0 min,  0.021 sec
 * total energy  :  -179.6733988 Eh     change       -0.9445846E-06 Eh
   gradient norm :     0.0004310 Eh/α   predicted    -0.4555974E-06 ( -51.77%)
   displ. norm   :     0.0163454 α      lambda       -0.6995380E-06
   maximum displ.:     0.0072218 α      in ANC's #2, #4, #20, ...

........................................................................
.............................. CYCLE   26 ..............................
........................................................................

 iter      E             dE          RMSdq      gap      omega  full diag
   1   -183.0132510 -0.183013E+03  0.258E-03    2.52       0.0  T
   2   -183.0132510 -0.910424E-08  0.153E-03    2.52       6.1  T
   3   -183.0132510  0.112920E-07  0.430E-04    2.52      21.7  T
   4   -183.0132510 -0.138883E-07  0.860E-05    2.52     108.5  T
     SCC iter.                  ...        0 min,  0.078 sec
     gradient                   ...        0 min,  0.020 sec
 * total energy  :  -179.6733996 Eh     change       -0.7867890E-06 Eh
   gradient norm :     0.0001152 Eh/α   predicted    -0.3506357E-06 ( -55.43%)
   displ. norm   :     0.0345996 α      lambda       -0.7295946E-06
   maximum displ.:     0.0152078 α      in ANC's #2, #4, #20, ...

........................................................................
.............................. CYCLE   27 ..............................
........................................................................

 iter      E             dE          RMSdq      gap      omega  full diag
   1   -183.0132431 -0.183013E+03  0.520E-03    2.52       0.0  T
   2   -183.0132431 -0.865523E-08  0.305E-03    2.52       3.1  T
   3   -183.0132431  0.110486E-07  0.386E-04    2.52      24.1  T
   4   -183.0132431 -0.143742E-07  0.781E-05    2.52     119.4  T
     SCC iter.                  ...        0 min,  0.078 sec
     gradient                   ...        0 min,  0.020 sec
 * total energy  :  -179.6734004 Eh     change       -0.8217329E-06 Eh
   gradient norm :     0.0003712 Eh/α   predicted    -0.3687337E-06 ( -55.13%)
   displ. norm   :     0.0378977 α      lambda       -0.6100782E-06
   maximum displ.:     0.0174006 α      in ANC's #2, #4, #11, ...

........................................................................
.............................. CYCLE   28 ..............................
........................................................................

 iter      E             dE          RMSdq      gap      omega  full diag
   1   -183.0132023 -0.183013E+03  0.548E-03    2.52       0.0  T
   2   -183.0132023 -0.517471E-08  0.321E-03    2.52       2.9  T
   3   -183.0132023  0.421895E-08  0.243E-04    2.52      38.4  T
   4   -183.0132023 -0.682857E-08  0.539E-05    2.52     173.0  T
     SCC iter.                  ...        0 min,  0.076 sec
     gradient                   ...        0 min,  0.020 sec
 * total energy  :  -179.6734011 Eh     change       -0.7194565E-06 Eh
   gradient norm :     0.0004051 Eh/α   predicted    -0.3067030E-06 ( -57.37%)
   displ. norm   :     0.0407742 α      lambda       -0.6267571E-06
   maximum displ.:     0.0196412 α      in ANC's #2, #4, #11, ...

........................................................................
.............................. CYCLE   29 ..............................
........................................................................

 iter      E             dE          RMSdq      gap      omega  full diag
   1   -183.0131767 -0.183013E+03  0.563E-03    2.52       0.0  T
   2   -183.0131767 -0.596842E-08  0.330E-03    2.52       2.8  T
   3   -183.0131767  0.487799E-08  0.256E-04    2.52      36.5  T
   4   -183.0131767 -0.767548E-08  0.553E-05    2.52     168.6  T
     SCC iter.                  ...        0 min,  0.073 sec
     gradient                   ...        0 min,  0.021 sec
 * total energy  :  -179.6734019 Eh     change       -0.7482689E-06 Eh
   gradient norm :     0.0002393 Eh/α   predicted    -0.3154133E-06 ( -57.85%)
   displ. norm   :     0.0412731 α      lambda       -0.6192120E-06
   maximum displ.:     0.0209766 α      in ANC's #2, #4, #11, ...

........................................................................
.............................. CYCLE   30 ..............................
........................................................................

 iter      E             dE          RMSdq      gap      omega  full diag
   1   -183.0132201 -0.183013E+03  0.534E-03    2.52       0.0  T
   2   -183.0132201 -0.698873E-08  0.313E-03    2.52       3.0  T
   3   -183.0132201  0.671619E-08  0.298E-04    2.52      31.3  T
   4   -183.0132201 -0.965898E-08  0.646E-05    2.52     144.4  T
     SCC iter.                  ...        0 min,  0.070 sec
     gradient                   ...        0 min,  0.021 sec
 * total energy  :  -179.6734026 Eh     change       -0.7391056E-06 Eh
   gradient norm :     0.0000967 Eh/α   predicted    -0.3136710E-06 ( -57.56%)
   displ. norm   :     0.0413150 α      lambda       -0.5830613E-06
   maximum displ.:     0.0217587 α      in ANC's #2, #4, #8, ...

........................................................................
.............................. CYCLE   31 ..............................
........................................................................

 iter      E             dE          RMSdq      gap      omega  full diag
   1   -183.0132692 -0.183013E+03  0.510E-03    2.52       0.0  T
   2   -183.0132692 -0.613340E-08  0.299E-03    2.52       3.1  T
   3   -183.0132692  0.672068E-08  0.291E-04    2.52      32.1  T
   4   -183.0132692 -0.948486E-08  0.586E-05    2.52     159.1  T
     SCC iter.                  ...        0 min,  0.071 sec
     gradient                   ...        0 min,  0.021 sec
 * total energy  :  -179.6734033 Eh     change       -0.7120289E-06 Eh
   gradient norm :     0.0002217 Eh/α   predicted    -0.2963803E-06 ( -58.38%)
   displ. norm   :     0.0433236 α      lambda       -0.5845297E-06
   maximum displ.:     0.0232767 α      in ANC's #2, #4, #8, ...

........................................................................
.............................. CYCLE   32 ..............................
........................................................................

 iter      E             dE          RMSdq      gap      omega  full diag
   1   -183.0133344 -0.183013E+03  0.526E-03    2.52       0.0  T
   2   -183.0133344 -0.531591E-08  0.309E-03    2.52       3.0  T
   3   -183.0133344  0.631923E-08  0.274E-04    2.52      34.1  T
   4   -183.0133344 -0.909131E-08  0.594E-05    2.52     157.0  T
     SCC iter.                  ...        0 min,  0.072 sec
     gradient                   ...        0 min,  0.021 sec
 * total energy  :  -179.6734041 Eh     change       -0.7126591E-06 Eh
   gradient norm :     0.0002793 Eh/α   predicted    -0.2959429E-06 ( -58.47%)
   displ. norm   :     0.0445819 α      lambda       -0.5652236E-06
   maximum displ.:     0.0244502 α      in ANC's #2, #4, #8, ...

........................................................................
.............................. CYCLE   33 ..............................
........................................................................

 iter      E             dE          RMSdq      gap      omega  full diag
   1   -183.0133422 -0.183013E+03  0.539E-03    2.52       0.0  T
   2   -183.0133422 -0.526288E-08  0.317E-03    2.52       2.9  T
   3   -183.0133422  0.899442E-08  0.326E-04    2.52      28.6  T
   4   -183.0133422 -0.120748E-07  0.592E-05    2.52     157.6  T
     SCC iter.                  ...        0 min,  0.073 sec
     gradient                   ...        0 min,  0.021 sec
 * total energy  :  -179.6734047 Eh     change       -0.6800630E-06 Eh
   gradient norm :     0.0002188 Eh/α   predicted    -0.2861330E-06 ( -57.93%)
   displ. norm   :     0.0401594 α      lambda       -0.4921836E-06
   maximum displ.:     0.0225772 α      in ANC's #2, #4, #8, ...

........................................................................
.............................. CYCLE   34 ..............................
........................................................................

 iter      E             dE          RMSdq      gap      omega  full diag
   1   -183.0133154 -0.183013E+03  0.483E-03    2.52       0.0  T
   2   -183.0133154 -0.430774E-08  0.284E-03    2.52       3.3  T
   3   -183.0133154  0.608776E-08  0.274E-04    2.52      34.0  T
   4   -183.0133155 -0.840240E-08  0.646E-05    2.52     144.4  T
     SCC iter.                  ...        0 min,  0.072 sec
     gradient                   ...        0 min,  0.021 sec
 * total energy  :  -179.6734053 Eh     change       -0.5801542E-06 Eh
   gradient norm :     0.0001133 Eh/α   predicted    -0.2490064E-06 ( -57.08%)
   displ. norm   :     0.0348966 α      lambda       -0.4169187E-06
   maximum displ.:     0.0200241 α      in ANC's #2, #4, #8, ...

........................................................................
.............................. CYCLE   35 ..............................
........................................................................

 iter      E             dE          RMSdq      gap      omega  full diag
   1   -183.0132866 -0.183013E+03  0.423E-03    2.52       0.0  T
   2   -183.0132866 -0.328669E-08  0.248E-03    2.52       3.8  T
   3   -183.0132866  0.358469E-08  0.226E-04    2.52      41.2  T
   4   -183.0132866 -0.532728E-08  0.509E-05    2.52     183.3  T
     SCC iter.                  ...        0 min,  0.072 sec
     gradient                   ...        0 min,  0.021 sec
 * total energy  :  -179.6734058 Eh     change       -0.4941904E-06 Eh
   gradient norm :     0.0000844 Eh/α   predicted    -0.2114697E-06 ( -57.21%)
   displ. norm   :     0.0321419 α      lambda       -0.3716363E-06
   maximum displ.:     0.0187941 α      in ANC's #2, #4, #16, ...

........................................................................
.............................. CYCLE   36 ..............................
........................................................................

 iter      E             dE          RMSdq      gap      omega  full diag
   1   -183.0132558 -0.183013E+03  0.394E-03    2.52       0.0  T
   2   -183.0132559 -0.255474E-08  0.231E-03    2.52       4.0  T
   3   -183.0132558  0.156615E-08  0.166E-04    2.52      56.3  T
   4   -183.0132559 -0.285240E-08  0.485E-05    2.52     192.1  T
     SCC iter.                  ...        0 min,  0.072 sec
     gradient                   ...        0 min,  0.021 sec
 * total energy  :  -179.6734063 Eh     change       -0.4507748E-06 Eh
   gradient norm :     0.0001509 Eh/α   predicted    -0.1880109E-06 ( -58.29%)
   displ. norm   :     0.0312431 α      lambda       -0.3568820E-06
   maximum displ.:     0.0184618 α      in ANC's #2, #4, #16, ...

........................................................................
.............................. CYCLE   37 ..............................
........................................................................

 iter      E             dE          RMSdq      gap      omega  full diag
   1   -183.0132495 -0.183013E+03  0.390E-03    2.52       0.0  T
   2   -183.0132495 -0.300835E-08  0.229E-03    2.52       4.1  T
   3   -183.0132495  0.419814E-08  0.222E-04    2.52      41.9  T
   4   -183.0132495 -0.565578E-08  0.537E-05    2.52     173.7  T
     SCC iter.                  ...        0 min,  0.071 sec
     gradient                   ...        0 min,  0.021 sec
 * total energy  :  -179.6734067 Eh     change       -0.4412361E-06 Eh
   gradient norm :     0.0001659 Eh/α   predicted    -0.1808205E-06 ( -59.02%)
   displ. norm   :     0.0314031 α      lambda       -0.3492748E-06
   maximum displ.:     0.0187658 α      in ANC's #2, #4, #6, ...

........................................................................
.............................. CYCLE   38 ..............................
........................................................................

 iter      E             dE          RMSdq      gap      omega  full diag
   1   -183.0132811 -0.183013E+03  0.391E-03    2.52       0.0  T
   2   -183.0132811 -0.359714E-08  0.230E-03    2.52       4.0  T
   3   -183.0132810  0.815211E-08  0.292E-04    2.52      31.9  T
   4   -183.0132811 -0.997548E-08  0.576E-05    2.52     161.8  T
     SCC iter.                  ...        0 min,  0.070 sec
     gradient                   ...        0 min,  0.021 sec
 * total energy  :  -179.6734071 Eh     change       -0.4235355E-06 Eh
   gradient norm :     0.0001221 Eh/α   predicted    -0.1763828E-06 ( -58.35%)
   displ. norm   :     0.0287167 α      lambda       -0.3079987E-06
   maximum displ.:     0.0173866 α      in ANC's #2, #4, #3, ...

........................................................................
.............................. CYCLE   39 ..............................
........................................................................

 iter      E             dE          RMSdq      gap      omega  full diag
   1   -183.0133404 -0.183013E+03  0.342E-03    2.52       0.0  T
   2   -183.0133404 -0.317394E-08  0.202E-03    2.52       4.6  T
   3   -183.0133404  0.782535E-08  0.276E-04    2.52      33.8  T
   4   -183.0133404 -0.937712E-08  0.533E-05    2.52     175.0  T
     SCC iter.                  ...        0 min,  0.072 sec
     gradient                   ...        0 min,  0.021 sec
 * total energy  :  -179.6734075 Eh     change       -0.3809112E-06 Eh
   gradient norm :     0.0000644 Eh/α   predicted    -0.1553888E-06 ( -59.21%)
   displ. norm   :     0.0306414 α      lambda       -0.3336288E-06
   maximum displ.:     0.0186887 α      in ANC's #2, #4, #9, ...

........................................................................
.............................. CYCLE   40 ..............................
........................................................................

 iter      E             dE          RMSdq      gap      omega  full diag
   1   -183.0134156 -0.183013E+03  0.341E-03    2.52       0.0  T
   2   -183.0134156 -0.287179E-08  0.200E-03    2.52       4.7  T
   3   -183.0134156  0.600770E-08  0.247E-04    2.52      37.8  T
   4   -183.0134156 -0.745024E-08  0.476E-05    2.52     195.7  T
     SCC iter.                  ...        0 min,  0.071 sec
     gradient                   ...        0 min,  0.021 sec
 * total energy  :  -179.6734079 Eh     change       -0.4248873E-06 Eh
   gradient norm :     0.0000903 Eh/α   predicted    -0.1678928E-06 ( -60.49%)
   displ. norm   :     0.0379212 α      lambda       -0.4232322E-06
   maximum displ.:     0.0230685 α      in ANC's #2, #4, #9, ...

........................................................................
.............................. CYCLE   41 ..............................
........................................................................

 iter      E             dE          RMSdq      gap      omega  full diag
   1   -183.0134806 -0.183013E+03  0.404E-03    2.52       0.0  T
   2   -183.0134806 -0.318207E-08  0.237E-03    2.52       3.9  T
   3   -183.0134806  0.429040E-08  0.216E-04    2.52      43.2  T
   4   -183.0134806 -0.591444E-08  0.478E-05    2.52     195.3  T
     SCC iter.                  ...        0 min,  0.073 sec
     gradient                   ...        0 min,  0.021 sec
 * total energy  :  -179.6734085 Eh     change       -0.5440543E-06 Eh
   gradient norm :     0.0001595 Eh/α   predicted    -0.2126500E-06 ( -60.91%)
   displ. norm   :     0.0516437 α      lambda       -0.5690470E-06
   maximum displ.:     0.0313069 α      in ANC's #2, #4, #9, ...

........................................................................
.............................. CYCLE   42 ..............................
........................................................................

 iter      E             dE          RMSdq      gap      omega  full diag
   1   -183.0135131 -0.183014E+03  0.546E-03    2.52       0.0  T
   2   -183.0135131 -0.512597E-08  0.319E-03    2.52       2.9  T
   3   -183.0135131  0.452761E-08  0.247E-04    2.52      37.8  T
   4   -183.0135131 -0.714851E-08  0.631E-05    2.52     147.8  T
     SCC iter.                  ...        0 min,  0.074 sec
     gradient                   ...        0 min,  0.021 sec
 * total energy  :  -179.6734092 Eh     change       -0.7063839E-06 Eh
   gradient norm :     0.0001996 Eh/α   predicted    -0.2858399E-06 ( -59.53%)
   displ. norm   :     0.0638957 α      lambda       -0.6239472E-06
   maximum displ.:     0.0389167 α      in ANC's #2, #4, #9, ...
 * RMSD in coord.:     0.0559383 α      energy gain  -0.1496477E-04 Eh

generating ANC from exact Hessian ...
Using Lindh-Hessian (1995)
 Shifting diagonal of input Hessian by   9.991823596825182E-003
 Lowest  eigenvalues of input Hessian
    0.000000    0.000000    0.000000    0.000000    0.000000    0.010000
    0.000000    0.010028    0.010061    0.010095    0.010148    0.010191
    0.010210    0.010369    0.010514    0.010618    0.010732    0.010782
 Highest eigenvalues
    2.129414    2.143389    2.164846    2.187771    2.218286    2.540027
 

........................................................................
.............................. CYCLE   43 ..............................
........................................................................

 iter      E             dE          RMSdq      gap      omega  full diag
   1   -183.0134909 -0.183013E+03  0.679E-03    2.52       0.0  T
   2   -183.0134909 -0.832668E-08  0.397E-03    2.52       2.3  T
   3   -183.0134909  0.894633E-08  0.347E-04    2.52      26.9  T
   4   -183.0134909 -0.130876E-07  0.885E-05    2.52     105.4  T
     SCC iter.                  ...        0 min,  0.062 sec
     gradient                   ...        0 min,  0.021 sec
 * total energy  :  -179.6734099 Eh     change       -0.7252200E-06 Eh
   gradient norm :     0.0001729 Eh/α   predicted     0.0000000E+00 (-100.00%)
   displ. norm   :     0.0002593 α      lambda        0.0000000E+00
   maximum displ.:     0.0001299 α      in ANC's #339, #334, #336, ...

........................................................................
.............................. CYCLE   44 ..............................
........................................................................

 iter      E             dE          RMSdq      gap      omega  full diag
   1   -183.0134849 -0.183013E+03  0.268E-04    2.52       0.0  T
   2   -183.0134849 -0.184130E-08  0.176E-04    2.52      52.9  T
   3   -183.0134849 -0.542855E-09  0.102E-04    2.52      91.7  T
     SCC iter.                  ...        0 min,  0.046 sec
     gradient                   ...        0 min,  0.021 sec
 * total energy  :  -179.6734099 Eh     change       -0.1811350E-07 Eh
   gradient norm :     0.0001041 Eh/α   predicted    -0.3451358E-08 ( -80.95%)
   displ. norm   :     0.0045220 α      lambda       -0.1372482E-06
   maximum displ.:     0.0016059 α      in ANC's #2, #23, #27, ...

   *** GEOMETRY OPTIMIZATION CONVERGED AFTER 44 ITERATIONS ***

------------------------------------------------------------------------
 total energy gain   :        -0.0002733 Eh       -0.1715 kcal/mol
 total RMSD          :         0.1552928 a0        0.0822 Å
 total power (kW/mol):        -0.0163082 (step)   -0.1395 (real)
------------------------------------------------------------------------

 ANCopt (total)                0 d,  0 h,  0 min,  5.146 sec
 optimizer setup                ...        0 min,  0.000 sec (  0.007%)
 model hessian                  ...        0 min,  0.189 sec (  3.675%)
 ANC generation                 ...        0 min,  0.040 sec (  0.770%)
 coordinate transformation      ...        0 min,  0.004 sec (  0.083%)
 single point calculation       ...        0 min,  4.875 sec ( 94.739%)
 optimization log               ...        0 min,  0.013 sec (  0.259%)
 hessian update                 ...        0 min,  0.008 sec (  0.150%)
 rational function              ...        0 min,  0.009 sec (  0.181%)

================
 final structure:
================
115
 xtb: 6.7.1 (edcfbbe)
O          -11.23058570719353       -1.89605498135175        1.16549557830405
P           -9.93644974297037       -1.94263086010624        0.45675233149734
C           -9.40763181069440       -3.62925326360181        0.03369260266092
C          -10.22109949113235       -4.67879259304467        0.43779156243001
C           -9.85535160124181       -5.98444705278059        0.15946484381078
C           -8.67448560620322       -6.23903557421844       -0.51908909867673
C           -7.85980042196902       -5.19059983667274       -0.92072259124913
C           -8.22161641934163       -3.88462997715873       -0.64550909210204
C           -9.93219313386265       -0.95889565555379       -1.07823701577717
C           -9.95187539155663        0.42315632978431       -0.94218506069088
C           -9.99024388486114        1.22852254752867       -2.06535540883140
C          -10.01724645118749        0.65216162730627       -3.32606421538001
C          -10.01566183939171       -0.72633520261749       -3.46136766296068
C           -9.97494280974058       -1.53529780589735       -2.33807356204119
C           -8.58490765437720       -1.24144989443092        1.45290780143865
C           -8.73876740298677       -1.13911290722135        2.82909818904652
C           -7.74307592086328       -0.59771614660109        3.63461959475979
C           -6.56039712314332       -0.13055890854487        3.09042003635479
C           -6.38371359014818       -0.21604088561298        1.71502045573057
C           -7.39484656538959       -0.77946729307087        0.91247064183086
O           -7.05607166497958       -0.78313935563852       -0.40254677389064
C           -5.81961908208516       -0.20623485558039       -0.47830594357320
C           -5.08043715151520        0.01290590674252       -1.62624231229013
C           -3.84389699491180        0.61231578164981       -1.47810407983979
C           -3.34446432147416        0.99250354172791       -0.22500270239950
C           -2.02443977420641        1.63596039972679       -0.12539796431819
C           -0.94433758992521        1.17722053421663       -0.87588519536370
C            0.29301291627933        1.78251868876986       -0.77792296217099
C            0.49115884401180        2.86475298256034        0.07305673108637
C            1.83319854571837        3.56777450442273        0.11674365052482
C            3.00143645199203        2.60606649054018        0.02662975025614
C            4.16262866466284        2.94842442102579       -0.65470595867443
C            5.24555462181227        2.09050299803149       -0.67985404086306
C            5.20642419157936        0.86960630475367       -0.01108008562878
C            6.36019330843311       -0.04032060504880       -0.03524877092041
C            6.75730796122159       -0.71989682105172        1.11517589880018
C            7.84780520330478       -1.56628194072646        1.09895262510602
C            8.55964631257106       -1.76683452413249       -0.08045119501131
N            9.66388763458035       -2.63299272473675       -0.10313280614782
C            9.67851374368674       -3.93512022859088        0.35487185941520
C            8.64709130971459       -4.69748962435563        0.88589861770893
C            8.92739085225809       -6.00154880870271        1.24682037525948
C           10.19929617000337       -6.54604502446268        1.07846783532308
C           11.22356821390014       -5.80012927843566        0.52979662131225
C           10.96651379842866       -4.48610764445341        0.15923104961403
C           11.76413404626403       -3.45402249476399       -0.44203629990647
C           13.09141194135298       -3.38397490377028       -0.84638691538753
C           13.55947633445589       -2.19979421912872       -1.38036166292019
C           12.72593567854553       -1.08911986654130       -1.50021893783290
C           11.40247537620897       -1.13413120796721       -1.10547786861948
C           10.91962513540000       -2.32877490777144       -0.58899286649922
C            8.16565018569885       -1.10026706653253       -1.23737515218442
C            7.08423276712687       -0.24264903452323       -1.20909455523176
C            4.04574976703440        0.53562727702354        0.68346032516884
C            2.96162357676823        1.39047110802845        0.70167918842322
C            1.83164947836580        4.62637931080851       -0.97121366509061
C            1.66143549326558        4.46507265748013       -2.32994499331875
C            1.67797191769018        5.59114161361903       -3.14252337080505
C            1.85698227097750        6.85549505047760       -2.60143763128647
C            2.02054253716883        7.02481497291918       -1.23578192545983
C            2.00459917945321        5.90450642218321       -0.42072292653768
C            2.14206128598704        5.77353237251964        1.02116229227545
C            2.34255758247584        6.72923815564157        2.00409805637817
C            2.43533228381662        6.31594106486501        3.32360984283458
C            2.33487579925270        4.97282607360109        3.65456848382086
C            2.13490388449502        4.01108562495801        2.67292612065100
C            2.03361622845922        4.41689996180099        1.35909562927524
C           -0.58792360512086        3.33394496338338        0.81142404453244
C           -1.82468058744704        2.72432752977265        0.71979672650856
C           -4.10065769500271        0.76782122526824        0.91947922872227
C           -5.34294218940693        0.16443007644982        0.79360362486454
H          -11.13696884687325       -4.45020066552494        0.96520396122962
H          -10.49000415742241       -6.80082091034674        0.47169635294376
H           -8.38729891405299       -7.25717062619712       -0.73702029294626
H           -6.94035017025413       -5.39302202333103       -1.45051575362930
H           -7.59847224185341       -3.06102286266063       -0.96039570091586
H           -9.93553132418026        0.85408442572220        0.05154552636633
H           -9.99775017750239        2.30359710368538       -1.95909123709046
H          -10.04408237564966        1.28030193999534       -4.20434613526949
H          -10.04540513658892       -1.17431760929683       -4.44395860181379
H           -9.97329260633990       -2.61212944008884       -2.43610343344438
H           -9.66935882877593       -1.48296927573467        3.25824637167913
H           -7.90336122455513       -0.53729489857881        4.70054880455882
H           -5.79155639402747        0.29665974090184        3.71520557785679
H           -5.46358593428085       -0.26912220116062       -2.59414710228031
H           -3.25091178240604        0.81371822217519       -2.35724347366789
H           -1.06991693761653        0.32468695565986       -1.52740104881405
H            1.11883924489165        1.40174328239064       -1.36141878172258
H            4.22268113106475        3.89522432473683       -1.17150019495417
H            6.14258379387196        2.38282132934366       -1.20621003699061
H            6.22318730065519       -0.55968402615018        2.04010553125379
H            8.16391143085507       -2.06598633304413        2.00277320854088
H            7.65439303879492       -4.29023462632279        1.00512323791589
H            8.14200555724635       -6.61424397861063        1.66542728615116
H           10.37925861792652       -7.56887651433062        1.37586686941114
H           12.20510534344415       -6.22694675422255        0.38560618509064
H           13.74179501446576       -4.23945044194784       -0.73907327707807
H           14.58810838916780       -2.12515820885640       -1.70190201945377
H           13.12466661229846       -0.17136127403585       -1.90786590024076
H           10.76956217804482       -0.26327533037786       -1.18706502260608
H            8.70319080609704       -1.27003061068296       -2.15865273265891
H            6.77846710850295        0.25697403224312       -2.11653049175388
H            3.98491498356166       -0.41262496469666        1.19765562621001
H            2.06795338336643        1.10425276133681        1.23727480530287
H            1.52121430778367        3.48410454077010       -2.75896641599766
H            1.54957102496766        5.48021747003549       -4.20956249376082
H            1.86697411656766        7.71790945512836       -3.25252832436519
H            2.15620102765256        8.01083625112888       -0.81643953186815
H            2.42438103125442        7.77545136952397        1.74865293649619
H            2.59026066611190        7.04726714945526        4.10395823782008
H            2.41210014191719        4.67059464439273        4.68904587658816
H            2.05698660511623        2.96739094227031        2.93878037061514
H           -0.46164519489496        4.18528374209739        1.46442724227429
H           -2.65272310183466        3.11307151195287        1.29445137784202
H           -3.72215819211562        1.04129365995716        1.89206146172812
 
 Bond Distances (Angstroems)
 ---------------------------
O1-P2=1.4762         P2-O1=1.4762         P2-C3=1.8175         P2-C9=1.8232         P2-C15=1.8195        C3-P2=1.8175         
C3-C4=1.3880         C3-C8=1.3904         C4-C3=1.3880         C4-C5=1.3842         C4-H72=1.0813        C5-C4=1.3842         
C5-C6=1.3855         C5-H73=1.0802        C6-C5=1.3855         C6-C7=1.3872         C6-H74=1.0801        C7-C6=1.3872         
C7-C8=1.3828         C7-H75=1.0803        C8-C3=1.3904         C8-C7=1.3828         C8-H76=1.0797        C9-P2=1.8232         
C9-C10=1.3889        C9-C14=1.3861        C10-C9=1.3889        C10-C11=1.3826       C10-H77=1.0833       C11-C10=1.3826       
C11-C12=1.3865       C11-H78=1.0803       C12-C11=1.3865       C12-C13=1.3851       C12-H79=1.0801       C13-C12=1.3851       
C13-C14=1.3849       C13-H80=1.0803       C14-C9=1.3861        C14-C13=1.3849       C14-H81=1.0813       C15-P2=1.8195        
C15-C16=1.3885       C15-C20=1.3863       C16-C15=1.3885       C16-C17=1.3905       C16-H82=1.0809       C17-C16=1.3905       
C17-C18=1.3832       C17-H83=1.0796       C18-C17=1.3832       C18-C19=1.3893       C18-H84=1.0789       C19-C18=1.3893       
C19-C20=1.4085       C19-C71=1.4412       C20-C15=1.3863       C20-C19=1.4085       C20-O21=1.3580       O21-C20=1.3580       
O21-C22=1.3665       C22-O21=1.3665       C22-C23=1.3828       C22-C71=1.4080       C23-C22=1.3828       C23-C24=1.3821       
C23-H85=1.0785       C24-C23=1.3821       C24-C25=1.4015       C24-H86=1.0794       C25-C24=1.4015       C25-C26=1.4719       
C25-C70=1.3900       C26-C25=1.4719       C26-C27=1.3929       C26-C69=1.3924       C27-C26=1.3929       C27-C28=1.3809       
C27-H87=1.0803       C28-C27=1.3809       C28-C29=1.3909       C28-H88=1.0805       C29-C28=1.3909       C29-C30=1.5157       
C29-C68=1.3892       C30-C29=1.5157       C30-C31=1.5158       C30-C56=1.5180       C30-C67=1.5181       C31-C30=1.5158       
C31-C32=1.3892       C31-C55=1.3910       C32-C31=1.3892       C32-C33=1.3818       C32-H89=1.0803       C33-C32=1.3818       
C33-C34=1.3926       C33-H90=1.0804       C34-C33=1.3926       C34-C35=1.4696       C34-C54=1.3932       C35-C34=1.4696       
C35-C36=1.3939       C35-C53=1.3939       C36-C35=1.3939       C36-C37=1.3805       C36-H91=1.0800       C37-C36=1.3805       
C37-C38=1.3921       C37-H92=1.0801       C38-C37=1.3921       C38-N39=1.4036       C38-C52=1.3921       N39-C38=1.4036       
N39-C40=1.3804       N39-C51=1.3804       C40-N39=1.3804       C40-C41=1.3882       C40-C45=1.4145       C41-C40=1.3882       
C41-C42=1.3818       C41-H93=1.0796       C42-C41=1.3818       C42-C43=1.3938       C42-H94=1.0805       C43-C42=1.3938       
C43-C44=1.3808       C43-H95=1.0803       C44-C43=1.3808       C44-C45=1.3893       C44-H96=1.0800       C45-C40=1.4145       
C45-C44=1.3893       C45-C46=1.4363       C46-C45=1.4363       C46-C47=1.3893       C46-C51=1.4146       C47-C46=1.3893       
C47-C48=1.3808       C47-H97=1.0800       C48-C47=1.3808       C48-C49=1.3938       C48-H98=1.0803       C49-C48=1.3938       
C49-C50=1.3818       C49-H99=1.0805       C50-C49=1.3818       C50-C51=1.3882       C50-H100=1.0796      C51-N39=1.3804       
C51-C46=1.4146       C51-C50=1.3882       C52-C38=1.3921       C52-C53=1.3805       C52-H101=1.0801      C53-C35=1.3939       
C53-C52=1.3805       C53-H102=1.0801      C54-C34=1.3932       C54-C55=1.3807       C54-H103=1.0804      C55-C31=1.3910       
C55-C54=1.3807       C55-H104=1.0805      C56-C30=1.5180       C56-C57=1.3788       C56-C61=1.4023       C57-C56=1.3788       
C57-C58=1.3887       C57-H105=1.0798      C58-C57=1.3887       C58-C59=1.3869       C58-H106=1.0804      C59-C58=1.3869       
C59-C60=1.3858       C59-H107=1.0806      C60-C59=1.3858       C60-C61=1.3855       C60-H108=1.0800      C61-C56=1.4023       
C61-C60=1.3855       C61-C62=1.4543       C62-C61=1.4543       C62-C63=1.3855       C62-C67=1.4023       C63-C62=1.3855       
C63-C64=1.3858       C63-H109=1.0801      C64-C63=1.3858       C64-C65=1.3869       C64-H110=1.0806      C65-C64=1.3869       
C65-C66=1.3887       C65-H111=1.0805      C66-C65=1.3887       C66-C67=1.3788       C66-H112=1.0798      C67-C30=1.5181       
C67-C62=1.4023       C67-C66=1.3788       C68-C29=1.3892       C68-C69=1.3819       C68-H113=1.0803      C69-C26=1.3924       
C69-C68=1.3819       C69-H114=1.0803      C70-C25=1.3900       C70-C71=1.3868       C70-H115=1.0789      C71-C19=1.4412       
C71-C22=1.4080       C71-C70=1.3868       H72-C4=1.0813        H73-C5=1.0802        H74-C6=1.0801        H75-C7=1.0803        
H76-C8=1.0797        H77-C10=1.0833       H78-C11=1.0803       H79-C12=1.0801       H80-C13=1.0803       H81-C14=1.0813       
H82-C16=1.0809       H83-C17=1.0796       H84-C18=1.0789       H85-C23=1.0785       H86-C24=1.0794       H87-C27=1.0803       
H88-C28=1.0805       H89-C32=1.0803       H90-C33=1.0804       H91-C36=1.0800       H92-C37=1.0801       H93-C41=1.0796       
H94-C42=1.0805       H95-C43=1.0803       H96-C44=1.0800       H97-C47=1.0800       H98-C48=1.0803       H99-C49=1.0805       
H100-C50=1.0796      H101-C52=1.0801      H102-C53=1.0801      H103-C54=1.0804      H104-C55=1.0805      H105-C57=1.0798      
H106-C58=1.0804      H107-C59=1.0806      H108-C60=1.0800      H109-C63=1.0801      H110-C64=1.0806      H111-C65=1.0805      
H112-C66=1.0798      H113-C68=1.0803      H114-C69=1.0803      H115-C70=1.0789      
 C  H  Rav=1.0802 sigma=0.0007  Rmin=1.0785  Rmax=1.0833    44
 C  C  Rav=1.4002 sigma=0.0332  Rmin=1.3788  Rmax=1.5181    75
 N  C  Rav=1.3881 sigma=0.0109  Rmin=1.3804  Rmax=1.4036     3
 O  C  Rav=1.3622 sigma=0.0043  Rmin=1.3580  Rmax=1.3665     2
 P  C  Rav=1.8201 sigma=0.0023  Rmin=1.8175  Rmax=1.8232     3
 P  O  Rav=1.4762 sigma=0.0000  Rmin=1.4762  Rmax=1.4762     1
 
 selected bond angles (degree)
 --------------------
C3-P2-O1=113.33                C9-P2-O1=112.91                C9-P2-C3=107.70                C15-P2-O1=112.10               
C15-P2-C3=105.60               C15-P2-C9=104.55               C4-C3-P2=117.61                C8-C3-P2=122.16                
C8-C3-C4=120.22                C5-C4-C3=119.99                H72-C4-C3=118.59               H72-C4-C5=121.42               
C6-C5-C4=119.80                H73-C5-C4=119.97               H73-C5-C6=120.23               C7-C6-C5=120.23                
H74-C6-C5=119.91               H74-C6-C7=119.86               C8-C7-C6=120.17                H75-C7-C6=120.02               
H75-C7-C8=119.82               C7-C8-C3=119.60                H76-C8-C3=119.65               H76-C8-C7=120.75               
C10-C9-P2=117.03               C14-C9-P2=122.74               C14-C9-C10=120.16              C11-C10-C9=120.03              
H77-C10-C9=119.05              H77-C10-C11=120.92             
 
 selected dihedral angles (degree)
 ---------------------------------
C4-C3-P2-O1=358.17            C4-C3-P2-C9=232.53            C4-C3-P2-C15=121.25           C8-C3-P2-O1=179.46            
C8-C3-P2-C9= 53.82            C8-C3-P2-C15=302.54           C5-C4-C3-P2=180.98            C5-C4-C3-C8=359.71            
H72-C4-C3-P2=  1.20           H72-C4-C3-C8=179.93           C6-C5-C4-C3=  0.20            C6-C5-C4-H72=179.97           
H73-C5-C4-C3=180.17           H73-C5-C4-H72=359.94          C7-C6-C5-C4=359.94            C7-C6-C5-H73=179.96           
H74-C6-C5-C4=179.99           H74-C6-C5-H73=  0.00          C8-C7-C6-C5=  0.02            C8-C7-C6-H74=179.97           
H75-C7-C6-C5=180.07           H75-C7-C6-H74=  0.00          C7-C8-C3-P2=178.93            C7-C8-C3-C4=  0.25            
H76-C8-C3-P2=358.34           H76-C8-C3-C4=179.66           C3-C8-C7-C6=359.88            C3-C8-C7-H75=179.84           
H76-C8-C7-C6=180.48           H76-C8-C7-H75=  0.44          C10-C9-P2-O1= 70.96           C10-C9-P2-C3=196.85           
C10-C9-P2-C15=308.84          C14-C9-P2-O1=254.12           C14-C9-P2-C3= 20.02           C14-C9-P2-C15=132.01          
C11-C10-C9-P2=181.93          C11-C10-C9-C14=358.85         H77-C10-C9-P2=  2.00          H77-C10-C9-C14=178.92         
           -------------------------------------------------
          |                Final Singlepoint                |
           -------------------------------------------------

          ...................................................
          :                      SETUP                      :
          :.................................................:
          :  # basis functions                 334          :
          :  # atomic orbitals                 333          :
          :  # shells                          187          :
          :  # electrons                       334          :
          :  max. iterations                   250          :
          :  Hamiltonian                  GFN2-xTB          :
          :  restarted?                      false          :
          :  GBSA solvation                   true          :
          :  PC potential                    false          :
          :  electronic temp.          300.0000000     K    :
          :  accuracy                    1.0000000          :
          :  -> integral cutoff          0.2500000E+02      :
          :  -> integral neglect         0.1000000E-07      :
          :  -> SCF convergence          0.1000000E-05 Eh   :
          :  -> wf. convergence          0.1000000E-03 e    :
          :  Broyden damping             0.4000000          :
          :  net charge                          0          :
          :  unpaired electrons                  0          :
          ...................................................

 iter      E             dE          RMSdq      gap      omega  full diag
   1   -183.0134849 -0.183013E+03  0.568E-05    2.52       0.0  T
   2   -183.0134849 -0.598561E-10  0.321E-05    2.52     290.5  T
   3   -183.0134849 -0.605098E-10  0.206E-05    2.52     452.4  T

   *** convergence criteria satisfied after 3 iterations ***

         #    Occupation            Energy/Eh            Energy/eV
      -------------------------------------------------------------
         1        2.0000           -0.7475420             -20.3417
       ...           ...                  ...                  ...
       161        2.0000           -0.3975709             -10.8185
[...]
eigval :     1613.01  3042.69  3066.45  3068.44  3069.46  3069.57
eigval :     3069.77  3070.45  3071.04  3072.33  3074.24  3074.70
eigval :     3074.77  3075.08  3075.46  3075.49  3075.96  3076.24
eigval :     3076.75  3078.50  3080.21  3080.53  3080.60  3082.66
eigval :     3083.26  3083.72  3083.93  3084.30  3084.55  3086.97
eigval :     3087.86  3088.70  3089.56  3089.81  3089.89  3090.39
eigval :     3091.18  3091.34  3091.92  3092.24  3093.21  3095.70
eigval :     3097.29  3100.60  3103.41
 reduced masses (amu)
   1: 12.91   2: 11.77   3: 12.25   4: 11.96   5: 12.56   6: 12.17   7: 12.25   8: 11.29
   9: 11.25  10: 11.02  11: 11.02  12: 11.05  13: 11.20  14: 10.21  15: 11.04  16: 11.04
  17: 11.00  18: 11.41  19: 10.94  20: 11.14  21: 10.77  22: 10.68  23: 10.41  24: 10.67
  25: 11.31  26: 10.91  27: 11.31  28: 11.24  29: 11.16  30: 11.38  31: 10.80  32: 11.51
  33: 10.46  34: 10.02  35:  9.82  36: 11.88  37: 11.36  38: 11.17  39: 10.90  40: 11.32
  41: 11.40  42: 11.10  43: 10.81  44: 10.47  45: 11.58  46: 11.11  47: 10.88  48: 12.93
  49: 10.82  50: 11.05  51: 12.00  52: 12.26  53: 10.47  54: 10.28  55: 10.86  56: 11.56
  57: 10.91  58: 12.64  59: 15.50  60: 11.35  61:  8.90  62:  8.89  63:  9.08  64:  9.22
  65:  9.22  66:  9.86  67:  9.86  68: 10.07  69: 10.26  70: 10.34  71: 13.04  72: 11.09
  73: 10.91  74: 10.97  75: 10.53  76: 10.36  77: 10.86  78: 12.87  79:  9.94  80: 14.70
  81: 11.13  82: 10.77  83: 10.69  84: 10.33  85: 12.70  86: 11.26  87: 12.26  88: 14.79
  89: 12.51  90: 10.14  91: 10.10  92: 11.13  93: 11.88  94: 10.15  95: 11.34  96: 11.08
  97: 11.25  98: 11.25  99: 11.29 100: 11.15 101: 11.00 102: 11.15 103: 11.24 104: 11.31
 105: 11.37 106: 11.49 107: 10.76 108: 11.66 109: 10.42 110: 10.50 111: 11.26 112: 11.58
 113: 11.78 114: 11.33 115: 11.77 116: 12.93 117: 11.51 118: 11.35 119: 11.31 120: 11.45
 121: 11.59 122: 15.68 123: 11.15 124:  5.35 125:  4.45 126:  8.46 127: 10.79 128: 10.85
 129:  7.01 130:  3.46 131:  9.27 132:  3.94 133:  4.39 134:  3.44 135:  4.83 136:  4.83
 137:  7.27 138:  6.87 139:  8.71 140: 12.44 141:  3.34 142:  3.68 143:  3.35 144:  3.33
 145:  3.52 146:  4.34 147:  3.34 148:  3.42 149:  4.12 150:  9.47 151:  3.27 152:  3.87
 153: 11.68 154: 10.77 155:  3.98 156:  3.49 157:  3.91 158:  4.94 159:  3.62 160:  4.21
 161:  3.56 162:  3.93 163:  7.38 164:  4.27 165:  4.36 166:  2.93 167:  3.25 168:  3.28
 169:  3.57 170:  4.20 171:  2.86 172:  3.95 173:  3.93 174:  5.45 175:  3.12 176:  5.97
 177:  3.21 178:  8.65 179:  9.59 180: 11.33 181: 11.45 182: 10.69 183: 11.03 184: 10.05
 185: 10.90 186:  8.82 187:  9.81 188:  5.79 189:  6.31 190:  6.72 191:  5.87 192:  7.27
 193:  7.23 194:  6.38 195:  7.26 196:  6.39 197:  8.02 198:  4.09 199:  4.12 200:  7.65
 201:  9.06 202:  9.36 203:  5.44 204:  2.89 205:  4.82 206:  3.64 207:  3.46 208:  3.82
 209:  5.71 210:  3.66 211:  2.89 212:  3.50 213:  2.13 214:  1.75 215:  4.29 216:  1.90
 217:  2.71 218:  3.38 219:  2.19 220:  2.34 221:  3.14 222:  5.38 223:  6.25 224:  3.35
 225:  2.16 226: 18.87 227:  8.92 228:  7.80 229:  5.65 230:  7.87 231:  6.65 232:  5.72
 233:  5.94 234:  8.15 235:  6.43 236:  3.40 237:  3.48 238:  3.40 239:  3.34 240:  3.33
 241:  7.98 242:  8.10 243:  8.74 244:  9.30 245: 10.54 246: 11.39 247: 11.72 248: 12.00
 249: 11.85 250: 11.77 251: 11.89 252: 11.45 253: 11.02 254: 11.44 255: 11.25 256: 10.55
 257:  9.87 258: 10.22 259:  9.92 260: 10.09 261: 10.13 262:  9.92 263:  8.73 264:  8.75
 265:  9.02 266:  8.97 267: 10.46 268:  9.62 269:  8.52 270:  9.44 271:  9.16 272:  9.71
 273: 10.37 274: 10.44 275: 10.38 276:  9.58 277: 10.39 278: 10.13 279: 10.16 280: 11.61
 281: 11.64 282: 11.67 283: 11.67 284: 11.63 285: 11.52 286: 11.48 287: 11.59 288: 11.58
 289: 11.66 290: 11.46 291: 11.56 292: 11.75 293: 11.51 294: 11.56 295: 11.69 296: 11.57
 297: 11.59 298: 11.67 299: 11.58 300: 11.74 301: 11.70 302:  1.81 303:  1.79 304:  1.75
 305:  1.76 306:  1.79 307:  1.75 308:  1.75 309:  1.78 310:  1.78 311:  1.78 312:  1.78
 313:  1.80 314:  1.77 315:  1.78 316:  1.81 317:  1.80 318:  1.80 319:  1.81 320:  1.78
 321:  1.78 322:  1.84 323:  1.85 324:  1.87 325:  1.87 326:  1.87 327:  1.87 328:  1.86
 329:  1.86 330:  1.88 331:  1.87 332:  1.81 333:  1.88 334:  1.89 335:  1.90 336:  1.91
 337:  1.89 338:  1.81 339:  1.90 340:  1.90 341:  1.90 342:  1.89 343:  1.83 344:  1.89
 345:  1.88
 IR intensities (km·mol⁻¹)
   1:  0.00   2:  0.02   3:  0.01   4:  0.01   5:  0.00   6:  0.01   7:  0.17   8:  0.31
   9:  0.12  10:  0.10  11:  0.16  12:  0.08  13:  0.14  14:  0.07  15:  0.13  16:  0.22
  17:  0.32  18:  0.16  19:  0.08  20:  0.05  21:  0.12  22:  0.57  23:  0.19  24:  0.26
  25:  0.44  26:  0.43  27:  0.56  28:  0.07  29:  0.63  30:  0.35  31:  0.25  32:  0.60
  33:  0.29  34:  0.07  35:  1.11  36:  3.24  37:  1.37  38:  0.72  39:  0.03  40:  1.39
  41:  2.34  42:  0.55  43:  0.76  44:  1.80  45:  1.65  46:  0.70  47:  1.98  48: 11.85
  49:  0.32  50:  0.34  51:  4.12  52: 10.51  53:  0.47  54:  1.05  55:  1.12  56:  1.20
  57:  0.02  58:  2.09  59:  3.97  60:  0.02  61:  0.08  62:  0.07  63:  0.04  64:  0.10
  65:  1.24  66:  2.50  67:  4.07  68:  0.38  69:  0.78  70:  1.22  71:  9.39  72:  0.86
  73:  2.23  74:  0.53  75:  0.74  76:  4.10  77: 14.92  78: 14.19  79:  1.41  80: 36.70
  81: 15.84  82: 11.46  83:  1.58  84:  0.83  85: 56.52  86: 15.43  87: 29.89  88: 63.88
  89: 25.00  90:  2.99  91:  0.62  92:  5.48  93: 21.68  94:  3.15  95: 10.96  96:  0.10
  97:  0.69  98:  2.03  99:  2.23 100:  1.05 101:  3.81 102:  2.18 103:  1.85 104:  6.50
 105:  4.42 106:  3.67 107:  4.61 108:  8.52 109:  6.44 110: 11.12 111:  0.10 112:  0.69
 113:  7.17 114:  1.33 115:  2.44 116: 37.15 117:  3.77 118:  3.21 119:  5.74 120:  2.34
 121:  0.27 122: 83.12 123:  0.23 124:  5.86 125: 13.70 126: 13.17 127:  0.70 128:  0.59
 129: 14.54 130: 58.50 131:  5.69 132:  0.46 133:  0.01 134: 21.38 135: 21.87 136: 25.49
 137: 26.59 138: 12.08 139: 38.22 140: 32.79 141:  1.96 142:  3.09 143:  0.23 144:  2.57
 145:  0.14 146:  0.57 147:  1.04 148:  0.10 149:  0.77 150:  2.59 151:  0.13 152:  0.48
 153:  8.61 154:  2.06 155:  0.17 156:  0.28 157:  0.19 158:  2.00 159:  0.02 160:  0.09
 161:  1.39 162:  0.04 163:  1.67 164:  3.38 165:  0.77 166:  0.64 167:  1.57 168:  0.09
 169:  0.21 170:  0.08 171:  0.29 172:  2.64 173:  0.17 174:  0.98 175:  0.03 176:  1.21
 177:  0.01 178:  1.56 179:  0.76 180:  1.16 181:  0.09 182: 10.34 183:  5.04 184: 12.07
 185:  0.53 186:  3.34 187: 18.80 188:  0.74 189:  0.42 190:  3.74 191:  0.69 192:  0.22
 193:  0.23 194:  0.01 195:  0.99 196:  3.10 197:  1.48 198:  0.32 199:  1.57 200:  4.27
 201: 22.30 202: 56.20 203: 69.61 204:  0.67 205:  2.28 206:  1.47 207:  1.00 208: 13.57
 209: 23.80 210:  0.69 211:  2.30 212:  1.58 213: 10.69 214:  4.36 215: 38.54 216:  6.04
 217: 13.97 218:  2.31 219:  0.76 220:  2.80 221:  1.15 222: 94.38 223: 16.24 224: 34.86
 225:  3.10 226:251.30 227:143.41 228: 54.61 229: 47.76 230: 63.47 231: 36.26 232: 25.58
 233: 32.09 234: 20.81 235:  3.78 236:  6.56 237:  3.25 238:  0.99 239:  0.53 240:  0.87
 241:  0.91 242: 18.01 243:143.39 244: 17.86 245: 11.02 246:  3.57 247:  0.17 248:  0.34
 249:  0.62 250:  0.23 251:  2.77 252:  9.61 253: 16.34 254: 26.35 255:  0.79 256:  4.91
 257:184.80 258: 65.53 259:  4.32 260: 11.55 261:  3.20 262: 34.15 263:  5.15 264:  1.37
 265:  4.01 266:  4.08 267:381.95 268: 17.68 269:  4.38 270: 97.85 271: 46.77 272:  4.24
 273: 11.94 274:  9.73 275: 84.08 276:345.71 277:  5.01 278:  4.17 279: 77.58 280:  3.16
 281:  2.36 282:  0.64 283:  1.39 284:  5.06 285:  1.62 286:  3.90 287:  1.46 288:  0.99
 289:  0.86 290:  0.71 291: 32.89 292: 22.47 293: 12.48 294:  5.56 295: 52.37 296: 14.66
 297: 39.21 298:  1.24 299: 20.65 300:  9.48 301: 46.35 302: 45.98 303: 21.66 304:  3.72
 305:  6.95 306:  8.14 307:  0.35 308:  2.49 309: 28.49 310: 11.77 311: 63.70 312: 55.90
 313: 58.59 314:  0.69 315:  1.84 316: 69.74 317:  7.92 318: 17.33 319: 17.83 320:  3.97
 321: 62.47 322: 86.77 323: 75.80 324:106.90 325: 61.73 326: 46.77 327:189.48 328:170.64
 329:290.14 330:  4.07 331: 11.63 332: 29.74 333:123.05 334: 90.38 335:173.54 336:229.99
 337: 43.95 338: 34.78 339: 29.24 340:  5.08 341: 10.82 342: 31.37 343: 18.71 344: 86.82
 345: 30.85
 Raman intensities (Ä⁴*amu⁻¹)
   1:  0.00   2:  0.00   3:  0.00   4:  0.00   5:  0.00   6:  0.00   7:  0.00   8:  0.00
   9:  0.00  10:  0.00  11:  0.00  12:  0.00  13:  0.00  14:  0.00  15:  0.00  16:  0.00
  17:  0.00  18:  0.00  19:  0.00  20:  0.00  21:  0.00  22:  0.00  23:  0.00  24:  0.00
  25:  0.00  26:  0.00  27:  0.00  28:  0.00  29:  0.00  30:  0.00  31:  0.00  32:  0.00
  33:  0.00  34:  0.00  35:  0.00  36:  0.00  37:  0.00  38:  0.00  39:  0.00  40:  0.00
  41:  0.00  42:  0.00  43:  0.00  44:  0.00  45:  0.00  46:  0.00  47:  0.00  48:  0.00
  49:  0.00  50:  0.00  51:  0.00  52:  0.00  53:  0.00  54:  0.00  55:  0.00  56:  0.00
  57:  0.00  58:  0.00  59:  0.00  60:  0.00  61:  0.00  62:  0.00  63:  0.00  64:  0.00
  65:  0.00  66:  0.00  67:  0.00  68:  0.00  69:  0.00  70:  0.00  71:  0.00  72:  0.00
  73:  0.00  74:  0.00  75:  0.00  76:  0.00  77:  0.00  78:  0.00  79:  0.00  80:  0.00
  81:  0.00  82:  0.00  83:  0.00  84:  0.00  85:  0.00  86:  0.00  87:  0.00  88:  0.00
  89:  0.00  90:  0.00  91:  0.00  92:  0.00  93:  0.00  94:  0.00  95:  0.00  96:  0.00
  97:  0.00  98:  0.00  99:  0.00 100:  0.00 101:  0.00 102:  0.00 103:  0.00 104:  0.00
 105:  0.00 106:  0.00 107:  0.00 108:  0.00 109:  0.00 110:  0.00 111:  0.00 112:  0.00
 113:  0.00 114:  0.00 115:  0.00 116:  0.00 117:  0.00 118:  0.00 119:  0.00 120:  0.00
 121:  0.00 122:  0.00 123:  0.00 124:  0.00 125:  0.00 126:  0.00 127:  0.00 128:  0.00
 129:  0.00 130:  0.00 131:  0.00 132:  0.00 133:  0.00 134:  0.00 135:  0.00 136:  0.00
 137:  0.00 138:  0.00 139:  0.00 140:  0.00 141:  0.00 142:  0.00 143:  0.00 144:  0.00
 145:  0.00 146:  0.00 147:  0.00 148:  0.00 149:  0.00 150:  0.00 151:  0.00 152:  0.00
 153:  0.00 154:  0.00 155:  0.00 156:  0.00 157:  0.00 158:  0.00 159:  0.00 160:  0.00
 161:  0.00 162:  0.00 163:  0.00 164:  0.00 165:  0.00 166:  0.00 167:  0.00 168:  0.00
 169:  0.00 170:  0.00 171:  0.00 172:  0.00 173:  0.00 174:  0.00 175:  0.00 176:  0.00
 177:  0.00 178:  0.00 179:  0.00 180:  0.00 181:  0.00 182:  0.00 183:  0.00 184:  0.00
 185:  0.00 186:  0.00 187:  0.00 188:  0.00 189:  0.00 190:  0.00 191:  0.00 192:  0.00
 193:  0.00 194:  0.00 195:  0.00 196:  0.00 197:  0.00 198:  0.00 199:  0.00 200:  0.00
 201:  0.00 202:  0.00 203:  0.00 204:  0.00 205:  0.00 206:  0.00 207:  0.00 208:  0.00
 209:  0.00 210:  0.00 211:  0.00 212:  0.00 213:  0.00 214:  0.00 215:  0.00 216:  0.00
 217:  0.00 218:  0.00 219:  0.00 220:  0.00 221:  0.00 222:  0.00 223:  0.00 224:  0.00
 225:  0.00 226:  0.00 227:  0.00 228:  0.00 229:  0.00 230:  0.00 231:  0.00 232:  0.00
 233:  0.00 234:  0.00 235:  0.00 236:  0.00 237:  0.00 238:  0.00 239:  0.00 240:  0.00
 241:  0.00 242:  0.00 243:  0.00 244:  0.00 245:  0.00 246:  0.00 247:  0.00 248:  0.00
 249:  0.00 250:  0.00 251:  0.00 252:  0.00 253:  0.00 254:  0.00 255:  0.00 256:  0.00
 257:  0.00 258:  0.00 259:  0.00 260:  0.00 261:  0.00 262:  0.00 263:  0.00 264:  0.00
 265:  0.00 266:  0.00 267:  0.00 268:  0.00 269:  0.00 270:  0.00 271:  0.00 272:  0.00
 273:  0.00 274:  0.00 275:  0.00 276:  0.00 277:  0.00 278:  0.00 279:  0.00 280:  0.00
 281:  0.00 282:  0.00 283:  0.00 284:  0.00 285:  0.00 286:  0.00 287:  0.00 288:  0.00
 289:  0.00 290:  0.00 291:  0.00 292:  0.00 293:  0.00 294:  0.00 295:  0.00 296:  0.00
 297:  0.00 298:  0.00 299:  0.00 300:  0.00 301:  0.00 302:  0.00 303:  0.00 304:  0.00
 305:  0.00 306:  0.00 307:  0.00 308:  0.00 309:  0.00 310:  0.00 311:  0.00 312:  0.00
 313:  0.00 314:  0.00 315:  0.00 316:  0.00 317:  0.00 318:  0.00 319:  0.00 320:  0.00
 321:  0.00 322:  0.00 323:  0.00 324:  0.00 325:  0.00 326:  0.00 327:  0.00 328:  0.00
 329:  0.00 330:  0.00 331:  0.00 332:  0.00 333:  0.00 334:  0.00 335:  0.00 336:  0.00
 337:  0.00 338:  0.00 339:  0.00 340:  0.00 341:  0.00 342:  0.00 343:  0.00 344:  0.00
 345:  0.00
 output can be read by thermo (or use thermo option).
 writing <g98.out> molden fake output.
 recommended (thermochemical) frequency scaling factor: 1.0
           -------------------------------------------------
          |             Thermodynamic Functions             |
           -------------------------------------------------

Molecule has no symmetry elements
It seems to be the C1 point group
c1  symmetry found (for desy threshold:  0.10E+00) used in thermo

          ...................................................
          :                      SETUP                      :
          :.................................................:
          :  # frequencies                         339      :
          :  # imaginary freq.                       0      :
          :  linear?                             false      :
          :  only rotor calc.                    false      :
          :  symmetry                               c1      :
          :  rotational number                       1      :
          :  scaling factor                  1.0000000      :
          :  rotor cutoff                   50.0000000 cm⁻¹ :
          :  imag. cutoff                  -20.0000000 cm⁻¹ :
          :.................................................:

    mode    ω/cm⁻¹     T·S(HO)/kcal·mol⁻¹    T·S(FR)/kcal·mol⁻¹   T·S(vib)
   ------------------------------------------------------------------------
       1      3.98    -2.93500 (  0.00%)    -1.80658 (100.00%)    -1.80663
       2      9.55    -2.41554 (  0.13%)    -1.54685 ( 99.87%)    -1.54801
       3     11.96    -2.28237 (  0.33%)    -1.48025 ( 99.67%)    -1.48287
       4     13.50    -2.21055 (  0.53%)    -1.44433 ( 99.47%)    -1.44839
       5     17.25    -2.06554 (  1.40%)    -1.37179 ( 98.60%)    -1.38149
       6     21.11    -1.94597 (  3.08%)    -1.31197 ( 96.92%)    -1.33150
       7     23.66    -1.87855 (  4.77%)    -1.27823 ( 95.23%)    -1.30688
       8     28.09    -1.77694 (  9.06%)    -1.22736 ( 90.94%)    -1.27715
       9     29.76    -1.74272 ( 11.16%)    -1.21022 ( 88.84%)    -1.26962
      10     34.97    -1.64738 ( 19.31%)    -1.16245 ( 80.69%)    -1.25609
      11     36.09    -1.62883 ( 21.34%)    -1.15315 ( 78.66%)    -1.25467
      12     39.61    -1.57381 ( 28.25%)    -1.12557 ( 71.75%)    -1.25221
      13     42.73    -1.52905 ( 34.78%)    -1.10311 ( 65.22%)    -1.25125
      14     51.44    -1.41962 ( 52.83%)    -1.04817 ( 47.17%)    -1.24439
      15     58.66    -1.34225 ( 65.44%)    -1.00925 ( 34.56%)    -1.22718
      16     59.58    -1.33307 ( 66.84%)    -1.00463 ( 33.16%)    -1.22416
      17     64.93    -1.28245 ( 73.99%)    -0.97913 ( 26.01%)    -1.20355
      18     71.02    -1.22984 ( 80.28%)    -0.95259 ( 19.72%)    -1.17516
      19     76.49    -1.18635 ( 84.56%)    -0.93061 ( 15.44%)    -1.14686
      20     80.59    -1.15576 ( 87.10%)    -0.91514 ( 12.90%)    -1.12471
      21     87.65    -1.10671 ( 90.42%)    -0.89027 (  9.58%)    -1.08598
      22     90.88    -1.08557 ( 91.61%)    -0.87954 (  8.39%)    -1.06828
      23     97.85    -1.04251 ( 93.62%)    -0.85764 (  6.38%)    -1.03072
      24    101.25    -1.02269 ( 94.39%)    -0.84753 (  5.61%)    -1.01285
      25    108.59    -0.98207 ( 95.70%)    -0.82678 (  4.30%)    -0.97539
      26    117.10    -0.93848 ( 96.78%)    -0.80444 (  3.22%)    -0.93417
      27    118.33    -0.93247 ( 96.91%)    -0.80136 (  3.09%)    -0.92841
      28    138.81    -0.84086 ( 98.34%)    -0.75407 (  1.66%)    -0.83943
      29    144.18    -0.81921 ( 98.57%)    -0.74281 (  1.43%)    -0.81812
      30    151.23    -0.79210 ( 98.82%)    -0.72868 (  1.18%)    -0.79135
      31    155.74    -0.77545 ( 98.95%)    -0.71997 (  1.05%)    -0.77487
      32    157.44    -0.76933 ( 98.99%)    -0.71676 (  1.01%)    -0.76880
      33    168.71    -0.73040 ( 99.23%)    -0.69627 (  0.77%)    -0.73013
      34    177.82    -0.70100 ( 99.38%)    -0.68069 (  0.62%)    -0.70087
      35    199.97    -0.63607 ( 99.61%)    -0.64592 (  0.39%)    -0.63611
      36    210.29    -0.60856 ( 99.68%)    -0.63101 (  0.32%)    -0.60863
      37    218.81    -0.58702 ( 99.73%)    -0.61924 (  0.27%)    -0.58711
      38    221.19    -0.58118 ( 99.74%)    -0.61603 (  0.26%)    -0.58127
      39    229.35    -0.56171 ( 99.77%)    -0.60530 (  0.23%)    -0.56181
      40    232.33    -0.55483 ( 99.79%)    -0.60149 (  0.21%)    -0.55493
      41    236.86    -0.54452 ( 99.80%)    -0.59576 (  0.20%)    -0.54462
      42    246.52    -0.52335 ( 99.83%)    -0.58392 (  0.17%)    -0.52346
      43    253.49    -0.50869 ( 99.85%)    -0.57566 (  0.15%)    -0.50879
      44    265.51    -0.48458 ( 99.87%)    -0.56194 (  0.13%)    -0.48467
      45    269.15    -0.47753 ( 99.88%)    -0.55790 (  0.12%)    -0.47762
      46    271.69    -0.47270 ( 99.89%)    -0.55512 (  0.11%)    -0.47279
      47    272.68    -0.47083 ( 99.89%)    -0.55404 (  0.11%)    -0.47092
      48    289.69    -0.44000 ( 99.91%)    -0.53611 (  0.09%)    -0.44008
      49    294.13    -0.43234 ( 99.92%)    -0.53161 (  0.08%)    -0.43243
   ------------------------------------------------------------------------

   temp. (K)  partition function   enthalpy   heat capacity  entropy
                                   cal/mol     cal/K/mol   cal/K/mol   J/K/mol
 298.15  VIB  0.110E+29            33920.421    211.124    213.760
         ROT  0.520E+09              888.752      2.981     42.865
         INT  0.573E+37            34809.174    214.105    256.625
         TR   0.273E+29             1481.254      4.968     46.331
         TOT                       36290.4274   219.0731   302.9561  1267.5685

       T/K    H(0)-H(T)+PV         H(T)/Eh          T*S/Eh         G(T)/Eh
   ------------------------------------------------------------------------
    298.15    0.578325E-01    0.937332E+00    0.143944E+00    0.793388E+00
   ------------------------------------------------------------------------

         :::::::::::::::::::::::::::::::::::::::::::::::::::::
         ::                  THERMODYNAMIC                  ::
         :::::::::::::::::::::::::::::::::::::::::::::::::::::
         :: total free energy        -178.880021696297 Eh   ::
         ::.................................................::
         :: total energy             -179.673409932127 Eh   ::
         :: zero point energy           0.879499994737 Eh   ::
         :: G(RRHO) w/o ZPVE           -0.086111758907 Eh   ::
         :: G(RRHO) contrib.            0.793388235830 Eh   ::
         :::::::::::::::::::::::::::::::::::::::::::::::::::::

optimized geometry written to: xtbopt.xyz


           -------------------------------------------------
          | TOTAL ENERGY             -179.673409932127 Eh   |
          | TOTAL ENTHALPY           -178.736077460082 Eh   |
          | TOTAL FREE ENERGY        -178.880021696297 Eh   |
          | GRADIENT NORM               0.000105947464 Eh/α |
          | HOMO-LUMO GAP               2.515405839469 eV   |
           -------------------------------------------------

------------------------------------------------------------------------
 * finished run on 2025/07/17 at 13:18:32.437     
------------------------------------------------------------------------
 total:
 * wall-time:     0 d,  0 h,  0 min, 15.933 sec
 *  cpu-time:     0 d,  0 h,  9 min, 31.078 sec
 * ratio c/w:    35.842 speedup
 SCF:
 * wall-time:     0 d,  0 h,  0 min,  0.275 sec
 *  cpu-time:     0 d,  0 h,  0 min, 10.977 sec
 * ratio c/w:    39.874 speedup
 ANC optimizer:
 * wall-time:     0 d,  0 h,  0 min,  5.228 sec
 *  cpu-time:     0 d,  0 h,  3 min, 29.094 sec
 * ratio c/w:    39.996 speedup
 analytical hessian:
 * wall-time:     0 d,  0 h,  0 min, 10.113 sec
 *  cpu-time:     0 d,  0 h,  5 min, 41.711 sec
 * ratio c/w:    33.789 speedup

