$hessian                                                                        
        0.4606162610  -0.0029968761  -0.2339630978  -0.4260297517   0.0061541851
        0.2065739176  -0.0103802324   0.0008859073   0.0084950268  -0.0016603080
       -0.0028675431   0.0011810001   0.0000310323  -0.0001290397  -0.0002456363
        0.0004873161  -0.0006608882  -0.0002985193  -0.0008406995   0.0000700867
        0.0001978125   0.0008725002   0.0045109396   0.0003660103  -0.0001940816
       -0.0013382822   0.0073900396   0.0005679610   0.0013547471   0.0014120903
        0.0001950790  -0.0002305045  -0.0003613023  -0.0000900292   0.0002806543
       -0.0003627526   0.0003656992   0.0002178559   0.0003721801  -0.0005992366
       -0.0023947151   0.0008941327  -0.0215677090  -0.0020918566   0.0090087639
        0.0003465554   0.0003813707   0.0073483432  -0.0004924594  -0.0007166671
        0.0002386884   0.0008569138   0.0005529593   0.0018034231  -0.0005483009
       -0.0010441396  -0.0013422548  -0.0019271058  -0.0007971677  -0.0063745253
       -0.0004666645  -0.0001876467   0.0001600634   0.0013995935   0.0006383022
       -0.0010436718  -0.0005730094  -0.0002801639   0.0001475564   0.0002527853
        0.0000613627  -0.0003141886  -0.0001416549  -0.0000266676   0.0004844975
       -0.0000134891  -0.0000201119   0.0000187899  -0.0000014873  -0.0000477011
       -0.0000532852   0.0000506271  -0.0000302918   0.0000042852  -0.0000425964
       -0.0000223244   0.0000438398   0.0000270792  -0.0001689841  -0.0001392711
        0.0004552313  -0.0002611684   0.0001352052  -0.0008282653   0.0002730378
        0.0001953854   0.0005209933  -0.0011829217   0.0004752093  -0.0021468149
        0.0016879387   0.0000245971   0.0022080271  -0.0017462688  -0.0000224345
       -0.0006508371   0.0013842807  -0.0005717339   0.0010998953  -0.0003507783
       -0.0003413193  -0.0007182549   0.0005703993   0.0000099075   0.0002269082
       -0.0001837296  -0.0000029516   0.0005089361  -0.0000245287   0.0000069263
       -0.0002617998  -0.0001866121   0.0000138777   0.0002029624  -0.0000009079
       -0.0000093465  -0.0005206946  -0.0001397652   0.0000386820   0.0002833890
        0.0005949543  -0.0000732778  -0.0007246366  -0.0006860554   0.0000509402
        0.0004894553   0.0008652397  -0.0000454003  -0.0005090903  -0.0004183905
        0.0000766398   0.0000069970   0.0005333652  -0.0000292137   0.0000409052
       -0.0002024537   0.0000042977   0.0001165897   0.0002937468  -0.0000100468
        0.0001379910  -0.0004899506  -0.0000133896   0.0006097279  -0.0010005890
        0.0003235682  -0.0014891016   0.0003055834   0.0006019073   0.0012484604
       -0.0002624158  -0.0005521180  -0.0005033372   0.0006955437  -0.0002554240
        0.0000301888   0.0001068566   0.0000168738   0.0000315035  -0.0000479827
       -0.0000881178  -0.0000000391  -0.0000670662   0.0000316958   0.0000010363
        0.0000130628  -0.0000529357   0.0000100770  -0.0000294418   0.0001101086
       -0.0000052485   0.0000120327  -0.0002213116  -0.0000133283  -0.0001784147
        0.0001747329  -0.0000739073   0.0000306098  -0.0001079700  -0.0000016603
       -0.0001679537   0.0001054800   0.0000014810   0.0001771914   0.0000367482
       -0.0000091611  -0.0001221946  -0.0001252071   0.0001815135   0.0002877046
        0.0001878226   0.0000183580   0.0000371737   0.0000176887  -0.0000428106
        0.0000391493   0.0000567888   0.0006976188   0.0003100047   0.0000890725
       -0.0013921888  -0.0005932491   0.0002710152   0.0009544973   0.0005470587
       -0.0007732268   0.0000592409   0.0003290066  -0.0000172602   0.0000588741
        0.0001508036   0.0000288329  -0.0003058824   0.0004788875   0.0000772580
        0.0007892529  -0.0000316844  -0.0003142067  -0.0002534691  -0.0000343955
       -0.0004859537  -0.0000423441  -0.0002858941   0.0001261717  -0.0000981690
       -0.0000964426   0.0000844892   0.0000614323  -0.0000985693   0.0003525188
       -0.0002813220  -0.0002188194  -0.0001982166  -0.0000498394   0.0002573163
       -0.0006407643  -0.0000998119  -0.0000313284  -0.0002545618  -0.0001692475
        0.0000635296  -0.0001547904   0.0000020734   0.0000290085   0.0000209538
       -0.0000616393  -0.0000385775   0.0000176700   0.0000231048   0.0000197189
        0.0000116579  -0.0000400299  -0.0000157251  -0.0000266521  -0.0000205583
       -0.0000528545   0.0000171503  -0.0000436095  -0.0000010314   0.0000271870
        0.0000331294  -0.0000054358  -0.0000508806  -0.0000277463   0.0000370402
       -0.0000601885   0.0000155689  -0.0000481978  -0.0000076244   0.0000402248
        0.0000330023   0.0000138135  -0.0000321258   0.0000533745   0.0000021667
       -0.0000519716   0.0000175098  -0.0000171021  -0.0000322590   0.0000419909
        0.0000196345  -0.0000569934   0.0000032266   0.0000005493  -0.0000254529
       -0.0000484962  -0.0000119369   0.0000454215  -0.0000087692   0.0000092702
       -0.0000442593   0.0000134154   0.0000625303   0.0000106076  -0.0000338776
        0.0000511986  -0.0000057441   0.0000507768  -0.0000101386   0.0000546325
        0.0000299754  -0.0000225643  -0.0000090852   0.0000198856  -0.0000159952
       -0.0000002627  -0.0000072744   0.0000433981  -0.0000003710  -0.0000177582
        0.0000055515  -0.0000100706  -0.0000017408  -0.0000046303  -0.0000197624
       -0.0000235391   0.0000002853  -0.0000005990  -0.0000154714  -0.0000088820
       -0.0000056165   0.0000094440  -0.0000418367  -0.0000077406   0.0000288233
        0.0000271316  -0.0000382797  -0.0000076282   0.0000020322   0.0000172171
       -0.0000009768  -0.0000114559  -0.0000686720  -0.0000211430  -0.0000475112
       -0.0029968761   0.0418712970   0.0027020525   0.0027567559  -0.0528018810
        0.0000455174   0.0163232823   0.0033861781  -0.0090947510   0.0012212755
        0.0023263308  -0.0005972313   0.0008721581   0.0011252281  -0.0005401490
        0.0001545631   0.0006468747  -0.0000544077   0.0006979509  -0.0012851792
       -0.0005258856  -0.0004037303  -0.0039039310   0.0000353444  -0.0102771096
        0.0046900548   0.0054059186  -0.0004062113   0.0012602710  -0.0006256278
        0.0006410236   0.0007903090  -0.0004648676   0.0000063409   0.0004641788
        0.0002753407   0.0008857613  -0.0002648744   0.0004548759  -0.0004226064
       -0.0014692118   0.0002958832  -0.0095246396   0.0043033772   0.0022344338
       -0.0002190083   0.0007273075   0.0021416879  -0.0000292905  -0.0006771888
        0.0003513094   0.0000455198   0.0001597197   0.0008064674   0.0002846020
       -0.0008197791  -0.0009539026  -0.0002245235   0.0004447556  -0.0023640965
       -0.0002716910   0.0005674034   0.0005797402   0.0002293101  -0.0001341313
       -0.0004229573  -0.0003465083  -0.0000887048   0.0001165238   0.0001666044
        0.0000918550  -0.0001030565  -0.0000594277  -0.0000083161   0.0001684191
       -0.0000218992  -0.0000031857   0.0000114301  -0.0000076163   0.0000010139
       -0.0000005524   0.0000006171  -0.0000001975  -0.0000014464  -0.0000235779
       -0.0000104154   0.0000103521  -0.0000127307   0.0000150414   0.0000041171
        0.0000750725  -0.0000636411  -0.0000079587  -0.0001059529   0.0000462279
        0.0000152683   0.0000819439  -0.0001467539   0.0000579754  -0.0002886400
        0.0002302506   0.0000042061   0.0003421250  -0.0002712520  -0.0000046759
       -0.0000897327   0.0002080761  -0.0000905892   0.0002036958  -0.0000467197
       -0.0000991109  -0.0000740150   0.0000608011   0.0000012854   0.0000351771
       -0.0000302528  -0.0000016444   0.0001163797   0.0000651151   0.0000013911
       -0.0000300612  -0.0000424965   0.0000012694   0.0000582846   0.0000082429
       -0.0000008917  -0.0001251614  -0.0000205099   0.0000082982   0.0000538535
        0.0001738579  -0.0000169835  -0.0001498692  -0.0001696647   0.0000115880
        0.0001291546   0.0001855781  -0.0000090554  -0.0001522377  -0.0000927118
        0.0000179614  -0.0000098342   0.0001292491  -0.0000047441   0.0000048698
       -0.0000597731   0.0000004221   0.0000346805   0.0000394997  -0.0000006921
       -0.0000365035  -0.0001254508  -0.0000019176   0.0000968185  -0.0001867453
        0.0000972839  -0.0002198099   0.0000386472   0.0000957006   0.0001641421
       -0.0000441812  -0.0000594536  -0.0000717379   0.0000902130  -0.0000217035
        0.0000084200   0.0000179062  -0.0000094270  -0.0000012536   0.0000014468
       -0.0000125864  -0.0000057060   0.0000003916   0.0000017927  -0.0000005783
        0.0000010631  -0.0000041003  -0.0000005540   0.0000007680   0.0000095294
       -0.0000003571   0.0000073323  -0.0000217290  -0.0000015020  -0.0000092298
        0.0000204585  -0.0000033846   0.0000065860  -0.0000064285  -0.0000029510
       -0.0000137006   0.0000064982   0.0000014274   0.0000203000   0.0000072735
       -0.0000037618  -0.0000107295  -0.0000027848   0.0000011355   0.0000382833
        0.0000246153  -0.0000040286   0.0000088049   0.0000078446   0.0000090117
        0.0000049298  -0.0000097390   0.0003301985   0.0001726513  -0.0000097013
       -0.0005704246  -0.0003257612   0.0003110219   0.0015202841  -0.0006179433
       -0.0008514402  -0.0000744939   0.0000514080   0.0000363277   0.0001318974
       -0.0001648396  -0.0000592424   0.0003099355  -0.0004261822  -0.0001711223
        0.0001662422  -0.0002917687  -0.0001040279  -0.0000849321   0.0005426310
        0.0004316803  -0.0000368565  -0.0000065442  -0.0000652443  -0.0001451329
       -0.0000523040   0.0000897819   0.0000915753  -0.0000667420   0.0002436040
       -0.0003437553  -0.0000182784   0.0003714904  -0.0003201811  -0.0002631005
       -0.0000610799   0.0000187577  -0.0000080900  -0.0000073155  -0.0001016799
        0.0001132291  -0.0000437377   0.0000278807  -0.0000289061  -0.0000039435
       -0.0000004321  -0.0000038490   0.0000008104  -0.0000081797  -0.0000061802
       -0.0000011529  -0.0000054318  -0.0000063323  -0.0000041575  -0.0000038568
       -0.0000161684   0.0000047120  -0.0000125395  -0.0000057322   0.0000080458
       -0.0000017546  -0.0000025606  -0.0000029010  -0.0000038555   0.0000036050
       -0.0000003382  -0.0000079854  -0.0000058704  -0.0000026343  -0.0000025666
       -0.0000032100   0.0000026565   0.0000072341  -0.0000025129   0.0000006137
        0.0000012778  -0.0000048529   0.0000028774   0.0000024314  -0.0000014414
        0.0000015623   0.0000035137  -0.0000039584   0.0000001120   0.0000032260
        0.0000011848  -0.0000019747   0.0000007201   0.0000063256   0.0000031320
       -0.0000040917   0.0000018222   0.0000010242   0.0000000425  -0.0000001544
        0.0000034075  -0.0000001959   0.0000117548  -0.0000063553   0.0000125366
        0.0000013481  -0.0000069151   0.0000004664   0.0000004186   0.0000005642
       -0.0000036985   0.0000035362  -0.0000049984   0.0000004456  -0.0000021242
        0.0000066320   0.0000011234  -0.0000099014  -0.0000054791  -0.0000001079
       -0.0000044430   0.0000008152   0.0000005660  -0.0000026721  -0.0000077391
        0.0000009613  -0.0000006134   0.0000039937   0.0000000866   0.0000020993
        0.0000000186   0.0000029401  -0.0000005641  -0.0000007057   0.0000114109
        0.0000002057   0.0000030216   0.0000095205  -0.0000125761  -0.0000006276
       -0.2339630978   0.0027020525   0.1695602875   0.2121875676  -0.0024755173
       -0.1686443177   0.0101033525  -0.0004499877  -0.0005229431   0.0012647286
        0.0016388798  -0.0003267558  -0.0002618859   0.0002016063  -0.0003624828
       -0.0002388828   0.0003730807   0.0001908975   0.0001377956  -0.0000332831
       -0.0007323030   0.0002607248  -0.0030458433   0.0007616710   0.0196260497
        0.0007060650  -0.0085439204   0.0003968516  -0.0026753440  -0.0018582468
       -0.0017572509  -0.0002228406  -0.0000334929   0.0001194995  -0.0001587910
        0.0004523746  -0.0020728693   0.0000846503  -0.0001119401   0.0005911186
        0.0032568250   0.0005126513  -0.0049855704   0.0009570726   0.0069676325
        0.0003581638   0.0009944151   0.0006779497  -0.0002251188   0.0000248120
        0.0010592369  -0.0002656551  -0.0001146770   0.0003863395  -0.0000432949
       -0.0001366822  -0.0005177379  -0.0002069012  -0.0008969598  -0.0017244281
       -0.0000204968   0.0001230309   0.0009175935  -0.0006759094  -0.0002707033
       -0.0000665145   0.0001183764   0.0000233476  -0.0000328082  -0.0000226607
       -0.0000241233  -0.0000230528  -0.0000178231   0.0000075174   0.0001727323
       -0.0000216175  -0.0000130736  -0.0000012789   0.0000211541   0.0000009738
        0.0000078122   0.0000094874   0.0000094165   0.0000145114   0.0000144829
        0.0000146599   0.0000141463   0.0000414208  -0.0000628712  -0.0000523196
        0.0000073967   0.0000340670   0.0000562045  -0.0000554332  -0.0000135241
        0.0000304228  -0.0000022160  -0.0001055082   0.0000572868  -0.0001340599
        0.0001044457  -0.0000007379   0.0000691387  -0.0000518698   0.0000016371
       -0.0000206491   0.0000702036  -0.0000335028  -0.0000254331  -0.0000164424
        0.0000583937  -0.0000813216   0.0000643663   0.0000036225  -0.0000369577
        0.0000293762   0.0000011335  -0.0000919847  -0.0001386523   0.0000063771
       -0.0000032906   0.0000300171   0.0000010229  -0.0000423159  -0.0000169714
       -0.0000001098   0.0001046186   0.0000143931  -0.0000066332  -0.0000248695
       -0.0001841635   0.0000149049   0.0000778922   0.0001343499  -0.0000117731
       -0.0001093046  -0.0001048949   0.0000093383   0.0001778372   0.0000709878
       -0.0000138701   0.0000141308  -0.0000996736   0.0000067499   0.0000111794
        0.0000485367   0.0000063561  -0.0000293582  -0.0000001088  -0.0000011396
        0.0001146570   0.0001254195  -0.0000087900   0.0000085469   0.0000306463
       -0.0000597863  -0.0000700490   0.0000097248   0.0000392364   0.0000986392
        0.0000257210  -0.0000658488  -0.0000030900   0.0000533958  -0.0000298718
        0.0000058389  -0.0000093713   0.0000284719   0.0000118208   0.0000063934
       -0.0000064146  -0.0000010669  -0.0000071599   0.0000080156   0.0000046039
        0.0000093441   0.0000030376   0.0000001077  -0.0000060953   0.0000117155
        0.0000041556   0.0000038218  -0.0000168646  -0.0000004427  -0.0000311126
        0.0000044415  -0.0000090637   0.0000022082  -0.0000047458  -0.0000064609
       -0.0000186017   0.0000134783  -0.0000052245   0.0000189718  -0.0000048877
        0.0000019178  -0.0000078025  -0.0000204284   0.0000472913  -0.0000019466
        0.0000012301   0.0000107118  -0.0000036016   0.0000025595   0.0000195935
        0.0000077312   0.0000051214   0.0001186484   0.0000641715  -0.0000166303
       -0.0001550399  -0.0000150107   0.0003103307  -0.0006920315  -0.0003036145
        0.0000760405  -0.0000444424  -0.0001982349   0.0000412162   0.0000317444
       -0.0001112390   0.0000928730   0.0001114205  -0.0002895793  -0.0002067040
       -0.0003388657   0.0000011422   0.0004797554   0.0007651606   0.0001873590
        0.0002979736  -0.0000466805   0.0003703183  -0.0001437528   0.0004426075
        0.0001420875  -0.0001733252  -0.0000743763   0.0000668285  -0.0004510317
        0.0006823756  -0.0000103796   0.0002576060  -0.0013329622  -0.0005755838
        0.0010159441   0.0001418600   0.0000746090   0.0002092696  -0.0000924168
       -0.0000452679   0.0000234041  -0.0000797787  -0.0000181992   0.0000270291
       -0.0000007817   0.0000107952  -0.0000192304  -0.0000261820  -0.0000002050
       -0.0000037613  -0.0000004439  -0.0000027757  -0.0000076096   0.0000003574
        0.0000097369  -0.0000060485   0.0000134404   0.0000088966  -0.0000094842
        0.0000125268  -0.0000013742  -0.0000092541   0.0000031913  -0.0000028806
       -0.0000110039   0.0000175333  -0.0000016131   0.0000027288   0.0000089396
        0.0000106980  -0.0000046834   0.0000119249   0.0000129759  -0.0000011433
       -0.0000082420   0.0000113124   0.0000044266  -0.0000114610   0.0000074541
       -0.0000040473  -0.0000101448  -0.0000086482  -0.0000002815  -0.0000063917
       -0.0000100172   0.0000021634   0.0000074105  -0.0000152165  -0.0000068713
        0.0000028191   0.0000031128   0.0000099523   0.0000058231  -0.0000106686
        0.0000063219  -0.0000035071  -0.0000133386   0.0000082889  -0.0000070629
        0.0000004596   0.0000014290  -0.0000043091   0.0000033477  -0.0000036289
       -0.0000117331   0.0000044524  -0.0000108364  -0.0000024297   0.0000010190
        0.0000021615   0.0000019138  -0.0000028965  -0.0000060352   0.0000003100
        0.0000016166  -0.0000013815   0.0000061572   0.0000041158  -0.0000047652
        0.0000020387   0.0000009387   0.0000117317   0.0000021699   0.0000041034
       -0.0000036760   0.0000037582   0.0000052610  -0.0000016637   0.0000000829
       -0.0000023832  -0.0000109956   0.0000458437   0.0000179856   0.0000105521
       -0.4260297517   0.0027567559   0.2121875676   0.6289135617  -0.0028317089
       -0.1588422324  -0.0435496849   0.0329407040   0.0101964989   0.0067166891
       -0.0013297089  -0.0049135723   0.0012322840  -0.0041321246   0.0022932357
       -0.0015717432   0.0009525732   0.0009564947  -0.0016213086  -0.0000982229
        0.0041176650  -0.0103535125   0.0158249151   0.0054625788  -0.0401460084
        0.0034032998  -0.0039599605  -0.0017626129   0.0007665655  -0.0014293727
        0.0056952626   0.0010142823   0.0002318474  -0.0000217229  -0.0001904495
        0.0002853781   0.0063250477  -0.0002175006  -0.0007645989  -0.0000851750
        0.0008334664  -0.0010875041  -0.0948697668  -0.0353549182  -0.0439793571
       -0.0006453744  -0.0014423502  -0.0259837101   0.0068219299   0.0013993470
        0.0028896889  -0.0034130883  -0.0019131469  -0.0048189145  -0.0002630819
       -0.0012234314   0.0095845988  -0.0251143550  -0.0114600967  -0.0018020913
        0.0044233524   0.0028425177  -0.0043010764  -0.0034813465  -0.0016362641
        0.0034054067   0.0011825861   0.0006000656  -0.0006599357  -0.0006156205
       -0.0001305250   0.0008680134   0.0001848157  -0.0000649421  -0.0013394848
        0.0001224597   0.0001467365   0.0000282318  -0.0001223894   0.0001050988
        0.0001166542  -0.0001812695   0.0000650449  -0.0000008372   0.0001712133
        0.0000996778  -0.0001700258  -0.0001020947   0.0004884535   0.0004390054
       -0.0015124143   0.0009026740  -0.0004115834   0.0026441947  -0.0009150916
       -0.0005872810  -0.0017144564   0.0039471045  -0.0016093560   0.0070702556
       -0.0055780131  -0.0000654648  -0.0074253334   0.0058670411   0.0000723905
        0.0021235917  -0.0046984190   0.0020052120  -0.0037589550   0.0011602390
        0.0012836962   0.0023236580  -0.0018546432  -0.0000262212  -0.0005409609
        0.0004455410   0.0000159506  -0.0015037043   0.0000450257  -0.0000566057
        0.0007671917   0.0005572030  -0.0000289734  -0.0006692113   0.0000173466
        0.0000386624   0.0016165053   0.0004033406  -0.0001139470  -0.0008948663
       -0.0017583244   0.0002318006   0.0022907314   0.0021435013  -0.0001512821
       -0.0015184235  -0.0027320567   0.0001386072   0.0014801128   0.0012956155
       -0.0002319825  -0.0000034876  -0.0016650390   0.0000922285  -0.0001630210
        0.0006582194  -0.0000225200  -0.0003518555  -0.0008696096   0.0000223873
       -0.0003861673   0.0014467599   0.0000840057  -0.0020385592   0.0034167313
       -0.0012167820   0.0050255070  -0.0009630342  -0.0021074663  -0.0041758787
        0.0008124334   0.0018331691   0.0016437985  -0.0022150580   0.0007611355
       -0.0001273965  -0.0003607279  -0.0000423761  -0.0001107071   0.0000399295
        0.0003309113   0.0000570206   0.0001796896  -0.0001247945  -0.0000081525
       -0.0000525976   0.0001542062  -0.0000373138   0.0000758075  -0.0003585691
        0.0000158879  -0.0000726460   0.0007181097   0.0000409068   0.0005555466
       -0.0005673170   0.0002053188  -0.0001190692   0.0003093381   0.0000726901
        0.0005411687  -0.0003222509  -0.0000273079  -0.0005927313  -0.0001165351
        0.0000148166   0.0003882680   0.0003655625  -0.0005480431  -0.0009423381
       -0.0006354118  -0.0001051349  -0.0001264355  -0.0000945225   0.0000106440
       -0.0001923636  -0.0001492287  -0.0018239128  -0.0008935447   0.0004808900
        0.0016048912   0.0005628922  -0.0020276626  -0.0022859897  -0.0021838865
        0.0002070308   0.0001446718  -0.0011166288  -0.0000189923  -0.0004361241
       -0.0001473153  -0.0005476169  -0.0002480528   0.0005991333   0.0002565567
       -0.0010601943  -0.0003512691  -0.0003005841  -0.0017965420   0.0000111515
        0.0000684822   0.0001581595   0.0001366995  -0.0002124827  -0.0014695226
        0.0000324173   0.0001384893  -0.0000457827   0.0001512395  -0.0001398027
       -0.0018537274   0.0006002203   0.0003248103  -0.0003936218   0.0003370377
        0.0022077636   0.0005096301   0.0001244854   0.0007199976  -0.0000082753
        0.0005407182   0.0002211055   0.0000824499  -0.0000186618   0.0000323910
        0.0001651790  -0.0000043220   0.0000152477   0.0001989514  -0.0000641298
       -0.0000449244   0.0001277124   0.0000550502   0.0000924405   0.0000978283
        0.0002051698  -0.0000800333   0.0001473798   0.0000022780  -0.0000895649
       -0.0000884102   0.0000209196   0.0001463915   0.0000881326  -0.0000840179
        0.0001608682  -0.0000518754   0.0001428755   0.0000206625  -0.0001116544
       -0.0000752096  -0.0000329476  -0.0001274538  -0.0001374800   0.0000008855
        0.0001297971  -0.0000486588  -0.0000413357   0.0000926161  -0.0000979358
       -0.0000168838   0.0001441940   0.0000878973   0.0000003658   0.0000588301
        0.0001502790   0.0000348324  -0.0001335233   0.0000383313  -0.0000177191
        0.0001092254  -0.0000489936  -0.0001660980  -0.0000323929   0.0000973070
       -0.0001484132   0.0000380861  -0.0001634964   0.0000273777  -0.0001775994
       -0.0001200869   0.0001040753   0.0000449384  -0.0000766259   0.0000181191
        0.0001313552  -0.0000847037   0.0000524299   0.0000254448   0.0000476921
       -0.0001249771   0.0000252233   0.0001602625   0.0001016352   0.0000593274
        0.0000885828  -0.0000107122  -0.0000131723   0.0000512641   0.0001427374
        0.0000174194  -0.0000190882  -0.0000443784   0.0000352090  -0.0001068619
       -0.0000552391   0.0001170795   0.0000396259   0.0000059083  -0.0000187070
        0.0000720818   0.0000548106   0.0002020267   0.0000822022   0.0000569693
        0.0061541851  -0.0528018810  -0.0024755173  -0.0028317089   0.3687356759
       -0.0026349217   0.0246358215  -0.1367621273  -0.0225752643  -0.0049403558
       -0.0336640168   0.0011057567  -0.0054210240  -0.0005153475   0.0029817688
       -0.0000916695  -0.0040332645  -0.0001844707   0.0011973105   0.0079641548
       -0.0005404563   0.0162170198  -0.0063519898  -0.0097792210   0.0075765341
       -0.0702190228   0.0565150862   0.0015916069  -0.0197454777   0.0171196641
       -0.0001084404  -0.0050680994  -0.0008910809  -0.0000152151  -0.0012345614
       -0.0002379309  -0.0005267095   0.0012374150  -0.0023589293  -0.0000233410
        0.0079167889   0.0011425120  -0.0310604591  -0.0527614169  -0.0216136758
        0.0002733078  -0.0031013511  -0.0139347072   0.0004615938   0.0057926009
        0.0000199675  -0.0006303550  -0.0007797343  -0.0032611185  -0.0037917621
        0.0042698641   0.0052888389  -0.0102190214  -0.0051389476   0.0015257977
        0.0038456808  -0.0015359787  -0.0029324093  -0.0025040543  -0.0005358864
        0.0021776181   0.0019890908   0.0006889126  -0.0007183229  -0.0012404877
       -0.0005841582   0.0002953993   0.0002430891   0.0000568708  -0.0005667338
        0.0000812939   0.0000191025  -0.0000189092   0.0000152413  -0.0000092812
        0.0000003612  -0.0000118042  -0.0000051987  -0.0000107197   0.0000400870
        0.0000216494  -0.0000293846  -0.0000006684   0.0000113442   0.0000273930
       -0.0001523799   0.0001071632  -0.0000172725   0.0002494678  -0.0000955570
       -0.0000509615  -0.0001797451   0.0003613105  -0.0001453545   0.0006807339
       -0.0005422792  -0.0000052761  -0.0007479899   0.0005905462   0.0000091967
        0.0002055167  -0.0004659290   0.0001956544  -0.0004046322   0.0001089641
        0.0001611838   0.0002053547  -0.0001675809  -0.0000024240  -0.0000704641
        0.0000573130   0.0000037164  -0.0001970315  -0.0000509804  -0.0000029472
        0.0000711968   0.0000708620  -0.0000033591  -0.0000924552  -0.0000064743
        0.0000038409   0.0002061283   0.0000414379  -0.0000137371  -0.0001041181
       -0.0002622297   0.0000308387   0.0002708046   0.0002800919  -0.0000196523
       -0.0002096068  -0.0003312107   0.0000185027   0.0002204319   0.0001586835
       -0.0000304367   0.0000088722  -0.0002163605   0.0000111840  -0.0000143345
        0.0000923246  -0.0000014255  -0.0000545291  -0.0000904754   0.0000031826
        0.0000061114   0.0001975544   0.0000054376  -0.0002087507   0.0003695578
       -0.0001550775   0.0004930465  -0.0000957472  -0.0002089224  -0.0003959409
        0.0000921573   0.0001584236   0.0001642107  -0.0002147666   0.0000633186
       -0.0000216459  -0.0000316180   0.0000001586  -0.0000047186   0.0000097459
        0.0000338316   0.0000047690   0.0000072059  -0.0000083934   0.0000025143
       -0.0000046980   0.0000111463   0.0000008314   0.0000023655  -0.0000272861
        0.0000003780  -0.0000076598   0.0000593110   0.0000052217   0.0000374747
       -0.0000506859   0.0000176053  -0.0000111345   0.0000239859   0.0000054640
        0.0000392431  -0.0000237137  -0.0000040110  -0.0000529690  -0.0000161771
        0.0000046296   0.0000357381   0.0000222643  -0.0000401922  -0.0000855783
       -0.0000566971  -0.0000028639  -0.0000096176  -0.0000044838  -0.0000264695
       -0.0000209166   0.0000312045  -0.0017582142  -0.0008662031   0.0001370182
        0.0021292191   0.0009057326  -0.0016092465  -0.0006415357   0.0002885379
        0.0003199944   0.0003581261  -0.0002107193  -0.0002494040  -0.0001735321
        0.0005581308   0.0001475196  -0.0007084577   0.0004781742   0.0004072908
       -0.0011300574   0.0011481461   0.0006916718   0.0000676101  -0.0008803599
       -0.0020259485  -0.0000050689  -0.0004697975   0.0007666452   0.0000285867
        0.0001516831  -0.0004250319  -0.0000781581   0.0001508298  -0.0010826046
       -0.0001230365  -0.0007601853  -0.0015566253   0.0006587211  -0.0016934628
        0.0005233700  -0.0000358603   0.0002601355   0.0002309525   0.0006380746
       -0.0010605115   0.0002485522  -0.0000740908   0.0000764969   0.0000256274
        0.0000150103   0.0000206298   0.0000011758   0.0000117382   0.0000116304
       -0.0000044687   0.0000060064   0.0000151447   0.0000127484   0.0000061477
        0.0000238802  -0.0000086923   0.0000207779   0.0000075702  -0.0000140166
       -0.0000030120   0.0000052513   0.0000126320   0.0000123200  -0.0000079641
        0.0000109683   0.0000067592   0.0000173972   0.0000044846  -0.0000046532
       -0.0000035355  -0.0000038952   0.0000050997  -0.0000078874   0.0000001597
        0.0000077624  -0.0000007930   0.0000038088   0.0000039020  -0.0000056151
       -0.0000056184   0.0000071388   0.0000005982  -0.0000002190   0.0000011552
        0.0000067110   0.0000040690  -0.0000090736  -0.0000042125  -0.0000050317
        0.0000109843  -0.0000036991  -0.0000105054  -0.0000012734   0.0000049087
       -0.0000118337   0.0000057661  -0.0000225619   0.0000098662  -0.0000238141
       -0.0000011020   0.0000128289  -0.0000002387   0.0000024601  -0.0000018355
       -0.0000016773   0.0000036192  -0.0000057698  -0.0000042173   0.0000034531
       -0.0000036378  -0.0000012581   0.0000044163   0.0000000197   0.0000013630
        0.0000072168  -0.0000006731  -0.0000017557   0.0000064136   0.0000029416
       -0.0000008225   0.0000036942   0.0000078315   0.0000020179  -0.0000020752
       -0.0000035701  -0.0000051996  -0.0000038616  -0.0000080068  -0.0000122737
        0.0000170114  -0.0000032070  -0.0000032025   0.0000620790   0.0000191768
        0.2065739176   0.0000455174  -0.1686443177  -0.1588422324  -0.0026349217
        0.4440699272   0.0075443336  -0.0261901812  -0.0429814756  -0.0052367540
        0.0003199051   0.0027116660   0.0026024745   0.0016798059   0.0045760676
        0.0007651372  -0.0004540241  -0.0005301604   0.0045140477  -0.0001491605
        0.0031574752   0.0053631220  -0.0083845527  -0.0056165565  -0.0077428394
        0.0568004115  -0.1177974185  -0.0006012647   0.0147704834   0.0025336467
        0.0004117936  -0.0005508918   0.0030032449  -0.0000912558  -0.0002917534
       -0.0017987391   0.0003852308  -0.0025763265  -0.0031201036  -0.0016019412
        0.0037724717  -0.0229515665  -0.0416241327  -0.0278163460  -0.0708688065
       -0.0152723624  -0.0105687048  -0.0264442140   0.0046019944   0.0014204015
       -0.0036930011  -0.0011995777  -0.0009096676  -0.0041486392   0.0020882269
        0.0014825735   0.0061666615  -0.0046661158   0.0009930842   0.0134436531
        0.0001004200  -0.0003215491  -0.0047193040   0.0007092363   0.0002308537
        0.0016751283  -0.0000025831   0.0000935944  -0.0000807072   0.0000055335
        0.0001418571   0.0007362792   0.0001182119  -0.0000769471  -0.0013000298
        0.0001418210   0.0001152260  -0.0000081410  -0.0001095467   0.0000644341
        0.0000511979  -0.0000924258   0.0000231927  -0.0000091154   0.0001155089
        0.0000542742  -0.0001065227  -0.0000690557   0.0002315947   0.0002393619
       -0.0007632834   0.0004521628  -0.0002101151   0.0013459433  -0.0004789057
       -0.0002828340  -0.0008970309   0.0020154884  -0.0008173993   0.0036189727
       -0.0028531322  -0.0000293761  -0.0038213152   0.0030152617   0.0000341344
        0.0010841976  -0.0024113986   0.0010209753  -0.0019514761   0.0005992166
        0.0006729386   0.0011757066  -0.0009409587  -0.0000099899  -0.0002766101
        0.0002186957   0.0000062664  -0.0007688927   0.0000020231  -0.0000255562