114
 energy: -175.075563890256 gnorm: 0.000060086420 xtb: 6.7.1 (edcfbbe)
C            0.75018502810730        1.50164654932036        9.11095095091198
C            1.76017052829325        0.67709043348072        9.63428095304114
N            2.38637120774637       -0.18922769556992        8.84132799309326
C            2.14526403793563       -0.25298196138312        7.57104197101408
C            1.20786997228403        0.59486431513697        6.88999625749679
C            0.94874454112991        0.46724180455305        5.51074096306257
C           -0.22147214541604        1.02590200712557        4.89982413779680
C           -0.43679837116484        0.94686308502557        3.55762196014951
C            0.46079035573468        0.28915826356457        2.68751535944624
Si           0.14640772418967        0.09639810828609        0.85596190731878
C            1.75284815719960        0.44423921190897       -0.09940238275382
C            2.16426164484475       -0.35146450368224       -1.16388865863132
C            3.33768067714049       -0.09206417371318       -1.84585969329701
C            4.13179464619053        0.98884637734895       -1.47349295965112
N            5.32160080828851        1.26474341156146       -2.16478651300140
C            6.56091908865788        1.46380426930159       -1.59165571512513
C            6.94059947311110        1.38821653677099       -0.25805605579262
C            8.27014174979381        1.61064482618503        0.04763437254365
C            9.20736433757959        1.89216420359318       -0.94425074639391
C            8.83982234672351        1.94593363800293       -2.27567388791263
C            7.50986258665418        1.72730398547014       -2.60754700372071
C            6.79327361122912        1.69049811432685       -3.85344122408205
C            7.16414123809537        1.89130100565144       -5.17590081842388
C            6.19320535161752        1.80590672478885       -6.15605565556397
C            4.86569903184735        1.53741817208674       -5.82897560929606
C            4.47206220124532        1.33426233647606       -4.51963534350484
C            5.44670743120697        1.39779188256164       -3.53264650108260
C            3.73641050230765        1.79445629809691       -0.40866849243940
C            2.56494675461904        1.51466659134508        0.26674790427282
C           -1.20059879533847        1.29746253106025        0.27418097156683
C           -2.53030367619905        1.07815125894730        0.62544410843395
C           -3.53347997468979        1.93864427505914        0.22546901009906
C           -3.22351719972670        3.04751734703159       -0.55760583905978
N           -4.23794550453845        3.92081060887861       -0.98004061314875
C           -5.40602707236687        3.55246456132491       -1.61569703314966
C           -5.83629025366129        2.29392027108985       -2.01455894120345
C           -7.05272469570468        2.20375849571121       -2.66464463514969
C           -7.82416999109279        3.33472576845133       -2.92388636923705
C           -7.39028147707316        4.59280524449266       -2.55043127771795
C           -6.17205067221278        4.70882264293380       -1.89508847023245
C           -5.42015794530483        5.82637904817529       -1.39235183959978
C           -5.65075021755707        7.19468156162076       -1.35365715069937
C           -4.70511260903927        8.00895776837005       -0.75935006852038
C           -3.54962319149810        7.47259476890084       -0.19474646856648
C           -3.29746570196806        6.11386405810643       -0.22134465675795
C           -4.23237813290107        5.29321816660003       -0.83831608882659
C           -1.89992472819637        3.27977968381078       -0.92120245337569
C           -0.90808961958647        2.41423418914133       -0.50190561307377
C           -0.43465466147266       -1.65388690030942        0.38619928891740
C           -0.07939495438991       -2.76061456485204        1.15251632970763
C           -0.50498279626953       -4.03249728796751        0.82283275642795
C           -1.30753165820583       -4.22687076945014       -0.29853496838272
N           -1.74710766450534       -5.51526889456227       -0.64077631995442
C           -0.94639785211833       -6.62935214168835       -0.78400220636464
C            0.43414128940305       -6.74312414582184       -0.68640685369289
C            0.99603836754134       -7.98616934850552       -0.90906546861191
C            0.21120788741660       -9.09231828379157       -1.22855020147056
C           -1.16145298937924       -8.98053218533404       -1.34812381226015
C           -1.74911314674820       -7.74200732788925       -1.13037508846927
C           -3.10358541624211       -7.26343491177331       -1.19053709847725
C           -4.32185311229068       -7.87127103396234       -1.46103695258455
C           -5.46988032442430       -7.10266005611340       -1.41602475275787
C           -5.41409017023482       -5.74828989313234       -1.09344133445649
C           -4.21341945793183       -5.12082672083395       -0.81943001046577
C           -3.05425611490424       -5.88263297654216       -0.88514880288980
C           -1.67404991493447       -3.13166569652659       -1.07609787697720
C           -1.24293494252796       -1.86660591689524       -0.72876371466290
C            1.62923212229903       -0.24939468455720        3.27836555574087
C            1.85840765807537       -0.18598667310046        4.61845434430298
C            0.49735810917099        1.48152463456164        7.76993115244316
H            0.23463506599875        2.18655857671500        9.76784824530150
H            2.07810503111872        0.72200315778755       10.66334083705163
H            2.63022534827526       -1.06195823814426        7.04285093827672
H           -0.95056607453434        1.52289526397539        5.52219008240646
H           -1.32729566811200        1.39468044300947        3.13809731934237
H            1.55783598779343       -1.19550823948839       -1.45838102068485
H            3.65430312595671       -0.73125497597631       -2.65731223532668
H            6.22501809222280        1.15460444554458        0.51568840333258
H            8.59004099059040        1.56130719839930        1.07822750120643
H           10.23683131917900        2.06189178436675       -0.66504034995719
H            9.57006194270168        2.14952696283044       -3.04443654151795
H            8.18961874254356        2.11446911545684       -5.42943819994732
H            6.46183287864171        1.95743913393442       -7.19116109244578
H            4.12705325965527        1.49066229490518       -6.61578419676491
H            3.43854547571071        1.14321817475300       -4.27393143198063
H            4.34338956320552        2.64314435062311       -0.12847896102056
H            2.26779480531006        2.14239124790377        1.09459603535188
H           -2.78227419623632        0.21655205165119        1.22690502979097
H           -4.55724719705044        1.76742238545161        0.52531093115990
H           -5.23791806144292        1.41426713798921       -1.83223625715432
H           -7.41178296745391        1.23549505461828       -2.98164346009491
H           -8.77069886214163        3.22328434112757       -3.43200566624799
H           -7.98216808476004        5.46972174963497       -2.76590262548329
H           -6.55312910480588        7.61039692223899       -1.77628367693294
H           -4.86518683351443        9.07644875805831       -0.72118255117695
H           -2.83629043639035        8.13278059049792        0.27665988751431
H           -2.40737819010860        5.70536854878997        0.23268759780239
H           -1.66010319348325        4.12897705671398       -1.54453707499718
H            0.11463910137285        2.60214222447623       -0.79386494163246
H            0.53312094504916       -2.61897452915943        2.03058196641980
H           -0.23599051650506       -4.87845835622728        1.43858306601618
H            1.05074604698313       -5.88813841614262       -0.45388342733895
H            2.06760337310093       -8.10201644999033       -0.83687942083883
H            0.68730910607021      -10.04785649798506       -1.39239162234339
H           -1.76608409370168       -9.83571983448206       -1.61031886766238
H           -4.36854327131928       -8.92382828237544       -1.69690143358532
H           -6.42725333867020       -7.55660592045796       -1.62565002500846
H           -6.33003011298209       -5.17710303925871       -1.05241041464999
H           -4.18105123397285       -4.07508638530949       -0.55386508800326
H           -2.28147311975391       -3.28306876178110       -1.95670143024841
H           -1.53145753677629       -1.02387143198436       -1.34038647804953
H            2.35335485314081       -0.73518610914612        2.63755423267214
H            2.76345085111276       -0.61940665957397        5.01883956366037
H           -0.21139783311869        2.18044166068568        7.35315049540997
