$hessian                                                                        
        0.6417559285   0.0254842412  -0.0182140667  -0.2974507066   0.0836287712
        0.0259762219  -0.0612027659  -0.0695044801  -0.0086970518  -0.0142036333
        0.0343275665   0.0051218586   0.0377653430   0.0061025019   0.0003054171
       -0.1157369479   0.0315828125   0.0062864258  -0.0010673311  -0.0013983774
       -0.0010988425  -0.0016909112  -0.0077302045   0.0000811140  -0.0008524951
        0.0056563222   0.0009633344  -0.0017955644  -0.0019788823  -0.0002372559
       -0.0004201969   0.0031098048   0.0005534476  -0.0007447660  -0.0056145608
        0.0000589502   0.0040702467   0.0056069364  -0.0011668259  -0.0020952075
       -0.0081685062  -0.0019201040   0.0065257835   0.0047976668  -0.0058022102
        0.0020904420  -0.0022680194   0.0040158543  -0.0018062478   0.0010556572
       -0.0005573328  -0.0014506702  -0.0002333776  -0.0019501329   0.0043700526
        0.0013202776  -0.0020057741  -0.0023648088  -0.0047673813   0.0048272787
       -0.0055453031   0.0022530564  -0.0019510168   0.0027979533   0.0006052239
        0.0004948913   0.0019957440  -0.0022695350   0.0025247520  -0.0087880742
        0.0011500032   0.0016280675  -0.1606236771  -0.1298303401  -0.0138440248
       -0.0110576140   0.0044299993   0.0000956369  -0.0017594697  -0.0032103485
       -0.0003940506  -0.0108743337   0.0268435453   0.0044808340  -0.0000234498
        0.0000309040   0.0001263223  -0.0000689448   0.0000167675  -0.0002316065
       -0.0000304469  -0.0000486041  -0.0000219211  -0.0001281272  -0.0001259452
       -0.0002454809   0.0001659321   0.0000016135   0.0009389253  -0.0000459807
       -0.0007723840  -0.0002489670   0.0002692873   0.0005552021   0.0007505282
        0.0000233132  -0.0002013137  -0.0000495003   0.0000353216   0.0001648709
        0.0000215364  -0.0000376738  -0.0006014842  -0.0006152317
        0.0254842412   0.6479523392   0.0769084097   0.0024000951  -0.0989081602
       -0.0096593709  -0.0072734743   0.0346245645   0.0066958568   0.0268545724
       -0.0138028626  -0.0021877482  -0.0484978724  -0.0665210120  -0.0080989241
        0.1088126400  -0.2965152258  -0.0388799020  -0.0011828666   0.0033356380
       -0.0001951310  -0.0020528721  -0.0038558460  -0.0004618815   0.0013663003
        0.0009159983   0.0000260268  -0.0018960527  -0.0014928858   0.0001575365
        0.0020447358  -0.0022814529  -0.0000149201  -0.0009532554   0.0030922598
       -0.0002149613  -0.0002382745  -0.0007262799  -0.0001935775  -0.0018243982
       -0.0021784227   0.0008365404  -0.0041852433   0.0003793862  -0.0004794556
        0.0026458252  -0.0013072796   0.0000809713  -0.0024119527  -0.0000435028
        0.0000961104   0.0012503703   0.0004245142   0.0000448717  -0.0011250168
        0.0001240502  -0.0000246421   0.0004735486   0.0004376769  -0.0003316511
       -0.0000394290  -0.0002344985   0.0000770952   0.0006405052   0.0000221806
       -0.0001482621  -0.0014310907   0.0006588836  -0.0007981239   0.0033630849
       -0.0004429905   0.0006004982  -0.1300587619  -0.1873854642  -0.0177343642
        0.0274841703  -0.0076065836  -0.0022290596  -0.0038032327  -0.0024902964
       -0.0015089425   0.0042916191  -0.0065070047  -0.0019244971  -0.0000503343
       -0.0000533446  -0.0001694212   0.0000372811   0.0000013429  -0.0000118388
        0.0000306312  -0.0000236531  -0.0000246264   0.0000830128   0.0001485777
        0.0001362058  -0.0001348756  -0.0000198441  -0.0004733427   0.0000248434
        0.0003350235   0.0001508287  -0.0000609663  -0.0001916749  -0.0001893217
       -0.0000737155   0.0000192179   0.0000528984  -0.0000217360  -0.0000649025
        0.0000059715   0.0000279443   0.0001815340   0.0000841441
       -0.0182140667   0.0769084097   0.1224699697   0.0118501107  -0.0122710640
       -0.0493222276   0.0015248003   0.0078285136   0.0032655992   0.0031423162
       -0.0027966506  -0.0050320954  -0.0071420130  -0.0094579502  -0.0030924602
        0.0173633788  -0.0373460210  -0.0480929189  -0.0003621836  -0.0001871953
        0.0059617891  -0.0001003950  -0.0000674359   0.0013335802   0.0002246516
       -0.0004588682  -0.0001943382  -0.0001382633  -0.0000308832  -0.0001708158
        0.0003666850  -0.0006133101  -0.0000470873  -0.0001102212   0.0009260273
       -0.0001290132  -0.0002902057  -0.0005041879   0.0001477792  -0.0001052466
        0.0004518101   0.0001404560  -0.0008285590  -0.0001402151   0.0003222317
        0.0000872608   0.0000624605  -0.0003114224  -0.0000724490  -0.0000637507
        0.0000315052   0.0002187176   0.0000373588   0.0000954202  -0.0005066411
       -0.0000774438   0.0001675765   0.0002617803   0.0005273898  -0.0004986019
        0.0005506941  -0.0002742910   0.0002377419  -0.0002536073  -0.0000426816
        0.0000232440  -0.0002179812   0.0002985162  -0.0003792914   0.0010460407
       -0.0003508890   0.0001084504  -0.0141006029  -0.0177124307  -0.0345688007
        0.0050927732  -0.0015185959   0.0002329525  -0.0002105451  -0.0016959167
        0.0074465048   0.0009061142  -0.0015614099  -0.0001453029  -0.0000087347
       -0.0000107436  -0.0000073545   0.0000068129  -0.0000112256   0.0000459015
        0.0000072366   0.0000000226   0.0000386287   0.0000248253   0.0000293874
        0.0000321868   0.0000304329  -0.0000017241  -0.0001458533  -0.0000046148
        0.0001539424   0.0000758816  -0.0000322030  -0.0000943926  -0.0001037758
       -0.0000108733   0.0000217839   0.0000140588  -0.0000026170  -0.0000367773
       -0.0000141720   0.0000073924   0.0000804314   0.0000640735
       -0.2974507066   0.0024000951   0.0118501107   0.6277816785  -0.0040618181
       -0.0239235931  -0.1997566265  -0.0758771092  -0.0061368292   0.0276098677
       -0.0582691819  -0.0091581791  -0.0345471150  -0.0193070897  -0.0024263838
       -0.0146763576   0.0859183736   0.0129024149  -0.0018260181  -0.0038507132
        0.0006607363   0.0018036905   0.0079923940  -0.0001865628   0.0005205318
       -0.0072909238  -0.0012795663   0.0022732268   0.0027112872   0.0002579630
        0.0005895732  -0.0038743737  -0.0007871910   0.0012067858   0.0074177616
       -0.0000484569  -0.0043300520  -0.0074374383   0.0019416256   0.0013985598
        0.0158714137   0.0032342158  -0.0073711334  -0.0076825175   0.0081888361
       -0.0047382509   0.0036877085  -0.0059373346   0.0043575863  -0.0014256267
        0.0005431386   0.0012906555   0.0000507285   0.0030587840  -0.0057630146
       -0.0018304700   0.0027794033   0.0031787944   0.0067968889  -0.0068187900
        0.0081006018  -0.0032464047   0.0028226978  -0.0043162956  -0.0009796540
       -0.0005924911  -0.0022935152   0.0033066740  -0.0037672029   0.0116186403
       -0.0020718211  -0.0022409515  -0.0219228584   0.0015550629   0.0009209685
       -0.0702116274   0.0772813869   0.0163570923  -0.0226072156  -0.0207520383
       -0.0018973607   0.0005838748   0.0018623469   0.0002067342  -0.0000087046
       -0.0000548913  -0.0001189519   0.0000876746  -0.0000508300   0.0003293094
        0.0000553683   0.0000721512   0.0000509569   0.0001475301   0.0002221814
        0.0003403368  -0.0004090156  -0.0002221425  -0.0013242807   0.0000317786
        0.0010336560   0.0003622223  -0.0003820785  -0.0008527601  -0.0010723550
       -0.0000221329   0.0002783762   0.0000953392  -0.0000401303  -0.0002300524
       -0.0000498687   0.0000364304   0.0009093699   0.0008634638
        0.0836287712  -0.0989081602  -0.0122710640  -0.0040618181   0.6605329017
        0.0919645995  -0.1604454340  -0.2240389185  -0.0244800709  -0.0027902554
       -0.0623298260  -0.0098494272  -0.0150456946   0.0004511757   0.0007030974
        0.0329764098  -0.0012901178  -0.0015141298   0.0004839271  -0.0042229207
       -0.0004949186   0.0002530939   0.0026819479  -0.0000015683   0.0000285064
       -0.0015648298  -0.0002613670   0.0001723162   0.0007756390   0.0000655304
        0.0004481183  -0.0011695714  -0.0001869823   0.0007888739   0.0019078681
        0.0001720974  -0.0011625651  -0.0048416331   0.0000059036   0.0031474425
        0.0012097242  -0.0005213226  -0.0007543547  -0.0012097781   0.0014452375
       -0.0010074692   0.0014038025  -0.0011194847   0.0013940492   0.0000619407
       -0.0001934641  -0.0002902000  -0.0002462255   0.0009447952  -0.0007599391
       -0.0003047309   0.0004263465   0.0005381619   0.0012461526  -0.0012500153
        0.0016502358  -0.0006104154   0.0005498797  -0.0008851486  -0.0002415509
       -0.0001534319  -0.0006553409   0.0007891828  -0.0009685532   0.0022878611
       -0.0010594277   0.0003012823  -0.0216408672   0.0030215568   0.0011796863
        0.0779035938  -0.2706510829  -0.0429719915   0.0017284023   0.0033511499
        0.0005844275   0.0022243869  -0.0050271727  -0.0018322704  -0.0000493134
        0.0000245462  -0.0000080191   0.0000184421  -0.0000081082   0.0000838825
        0.0000267295  -0.0000173731  -0.0000114924   0.0000338299   0.0001015000
        0.0000992862  -0.0002121675  -0.0000293493  -0.0004774592   0.0000594353
        0.0001592264   0.0000520960  -0.0000665089  -0.0001772826  -0.0001885700
        0.0000146775   0.0000378777   0.0000334860   0.0000097098  -0.0000155315
       -0.0000075938   0.0000101024   0.0002078140   0.0001515624
        0.0259762219  -0.0096593709  -0.0493222276  -0.0239235931   0.0919645995
        0.1290161153  -0.0196952320  -0.0269860951  -0.0467817455  -0.0011069983
       -0.0081148932  -0.0022799684  -0.0019588869   0.0013015106  -0.0043442938
        0.0058716466  -0.0027177020   0.0011476269   0.0001796550  -0.0003319484
       -0.0003600522  -0.0000901371   0.0000195253   0.0001057831   0.0000258063
        0.0001891335   0.0000060783  -0.0001315745  -0.0000555192   0.0000029620
        0.0000449704  -0.0000442053  -0.0001429437   0.0000499692  -0.0000159867
       -0.0001970537  -0.0001363847  -0.0007495089   0.0008113404   0.0007279899
       -0.0010770008   0.0048106256   0.0006108197   0.0002078191  -0.0000987871
       -0.0005392634  -0.0001718477  -0.0002028159   0.0003987964   0.0000399089
       -0.0000949658  -0.0003045776  -0.0001311195  -0.0000110135   0.0001496102
        0.0000096438  -0.0000346010  -0.0000675625  -0.0000068761   0.0000369436
        0.0000478853  -0.0000067015  -0.0000109588  -0.0001165494   0.0000231580
        0.0001036025   0.0001960381   0.0000795853  -0.0000126824  -0.0007192011
       -0.0003406510   0.0003906649  -0.0023478376   0.0002893876   0.0007881968
        0.0149363929  -0.0433708489  -0.0416084630   0.0014329107   0.0015060370
        0.0010037797   0.0004937014  -0.0018318048   0.0071364954  -0.0000070746
        0.0000068271  -0.0000040859  -0.0000012376   0.0000019593   0.0000122886
        0.0000038637  -0.0000142406   0.0000255711   0.0000014636   0.0000023573
        0.0000323257  -0.0000248593  -0.0000175845   0.0000297732   0.0000003828
        0.0000289078   0.0000543863   0.0000077037  -0.0000273397  -0.0000033325
        0.0000027123   0.0000050303   0.0000140915   0.0000093415  -0.0000157467
       -0.0000126654   0.0000030884   0.0000116008  -0.0000059945
       -0.0612027659  -0.0072734743   0.0015248003  -0.1997566265  -0.1604454340
       -0.0196952320   0.6777947455   0.0231264942  -0.0225394409  -0.1141138210
        0.0995983441   0.0190330234  -0.0075263707   0.0298172113   0.0046950711
        0.0007974946  -0.0163291857  -0.0024216427  -0.0080843203   0.0040159335
        0.0002154075   0.0001494211  -0.0013321324   0.0001041015  -0.0002358032
        0.0008782335   0.0001783618   0.0001768712  -0.0002223560  -0.0000667252
       -0.0007806721   0.0009064324   0.0001721703   0.0001314684  -0.0031366288
       -0.0000346969  -0.0028166573  -0.0003133806  -0.0011944369   0.0105926670
       -0.0233092224  -0.0033001905   0.0000497161  -0.0011640982  -0.0012690774
       -0.0023988795  -0.0021023092  -0.0001808007   0.0011547346   0.0002379796
       -0.0001655654  -0.0009250846  -0.0005303046   0.0000885589   0.0006866975
        0.0000588546  -0.0000715116  -0.0001982401  -0.0002851295   0.0004020702
       -0.0002043639   0.0002415657  -0.0002390491   0.0000593795   0.0001461793
        0.0000629534   0.0003193388  -0.0004392507   0.0002275749  -0.0010192464
       -0.0000021986  -0.0000073201  -0.0057602031   0.0010050481   0.0008464268
        0.0051292729   0.0052445550  -0.0000564535  -0.2931258928   0.0519705413
        0.0239289307   0.0007297918  -0.0003136190   0.0000957483   0.0000744963
       -0.0000640652   0.0000348332   0.0000114055   0.0000097996  -0.0000408245
        0.0000280960  -0.0000937153  -0.0000006562   0.0000982457  -0.0000074059
       -0.0000399929   0.0002242865   0.0001328753  -0.0002209752  -0.0000262607
        0.0000279848   0.0000041084  -0.0000079566  -0.0000081108  -0.0000499938
       -0.0000212989   0.0000351982  -0.0000039582  -0.0000152855  -0.0000444927
       -0.0000093399   0.0000116204  -0.0000367162  -0.0000062570
       -0.0695044801   0.0346245645   0.0078285136  -0.0758771092  -0.2240389185
       -0.0269860951   0.0231264942   0.6106584353   0.0878836468   0.0521193218
       -0.2457958278  -0.0373171997   0.0599682639  -0.0073636128  -0.0023513727
       -0.0085576377  -0.0411526026  -0.0052029270   0.0008903614   0.0095737530
       -0.0001734014  -0.0021003967  -0.0082670108  -0.0000168917   0.0003534192
        0.0059475862   0.0011596991  -0.0016089775  -0.0029585607  -0.0001190423
       -0.0009909779   0.0029057680   0.0008757848  -0.0015644990  -0.0079800337
       -0.0002780089  -0.0014952056   0.0096576377  -0.0027196156  -0.0065587621
       -0.0591344165  -0.0094799138   0.0029892916   0.0044782367  -0.0077134820
        0.0063083169  -0.0057335833   0.0050283989  -0.0066383743   0.0005462202
       -0.0000516134   0.0010309374   0.0008237127  -0.0035161307   0.0038389250
        0.0017485948  -0.0023370789  -0.0024742210  -0.0058306154   0.0058082881
       -0.0076261982   0.0027612652  -0.0023942333   0.0044038361   0.0009580211
        0.0005422658   0.0014981157  -0.0027720834   0.0032274287  -0.0068421229
        0.0038373529   0.0006765453   0.0013240241   0.0010922108  -0.0008208547
       -0.0178306019  -0.0243873996  -0.0040942669   0.0521148146  -0.0523658969
       -0.0070682307  -0.0001991218  -0.0005135187   0.0000799813   0.0000306467
        0.0000043261  -0.0000032796  -0.0000405670   0.0000538663  -0.0003574937
        0.0000116885  -0.0001641811  -0.0000568628   0.0001464881  -0.0001829143
       -0.0003770153  -0.0004623603  -0.0000373172   0.0004993166  -0.0000828829
       -0.0008104941  -0.0002547049   0.0003183682   0.0007538277   0.0009598171
       -0.0000008219  -0.0003131763  -0.0001131799   0.0000240691   0.0001889181
        0.0000338765  -0.0000420645  -0.0008121337  -0.0008006675
       -0.0086970518   0.0066958568   0.0032655992  -0.0061368292  -0.0244800709
       -0.0467817455  -0.0225394409   0.0878836468   0.1254790197   0.0123924378
       -0.0412424423  -0.0532674252   0.0100202805  -0.0011799474  -0.0021285774
       -0.0016269476  -0.0066778749  -0.0039639511   0.0003290012   0.0002757696
        0.0060202400  -0.0001418883  -0.0009779007  -0.0000464333  -0.0000488147
        0.0006589945  -0.0003102087  -0.0001147240  -0.0003011336  -0.0000940290
       -0.0001390985   0.0003920005  -0.0001773604  -0.0001497005  -0.0010978273
       -0.0000685997  -0.0004218337   0.0014362105   0.0021162197  -0.0022605210
       -0.0080219767   0.0002608389   0.0013075751   0.0004425913  -0.0019369287
       -0.0014737051  -0.0010740249  -0.0005494824   0.0004603997  -0.0002176552
       -0.0001715160  -0.0003485380   0.0000051126  -0.0002129234   0.0005665498
        0.0001744239  -0.0002836008  -0.0003267794  -0.0006368808   0.0006280267
       -0.0007202585   0.0002825029  -0.0002777120   0.0003020128   0.0000449541
        0.0001816157   0.0005044926  -0.0000607427   0.0000549516  -0.0010704737
       -0.0001306772   0.0008175254   0.0009016935  -0.0008801564   0.0065671963
       -0.0033050009  -0.0044759112  -0.0004888002   0.0235310654  -0.0062612375
       -0.0347033715  -0.0000814462  -0.0000431463  -0.0001449376   0.0000027500
        0.0000071258  -0.0000215722   0.0000058060  -0.0000072057   0.0000875105
        0.0000054248  -0.0000242747   0.0000633200   0.0000644692  -0.0000279917
       -0.0000054396  -0.0007569091  -0.0003693349  -0.0000002690  -0.0000596665
       -0.0000656334   0.0000413675   0.0000299618   0.0000595087   0.0000993596
       -0.0000084155  -0.0000178081   0.0000170320   0.0000072278   0.0000147094
        0.0000126032  -0.0000031047  -0.0001015528  -0.0000775423
       -0.0142036333   0.0268545724   0.0031423162   0.0276098677  -0.0027902554
       -0.0011069983  -0.1141138210   0.0521193218   0.0123924378   0.5973421902
       -0.0310795142  -0.0038331372  -0.2409570772   0.0671131122   0.0091137416
       -0.0464852078  -0.0554623686  -0.0082072199  -0.0286481584   0.0115030082
        0.0044479871   0.0026102859   0.0121036054   0.0000150697   0.0005595636
       -0.0107097104  -0.0014862278   0.0031417059   0.0038426082   0.0002560157
        0.0009969609  -0.0042497184  -0.0009832557   0.0008255099   0.0128724493
       -0.0000666281   0.0082041189  -0.0178155251   0.0002755863  -0.1454608480
       -0.0681266620  -0.0131439285  -0.0425842338  -0.0203488977   0.0012108982
       -0.0036046178  -0.0005733886  -0.0040545505   0.0042002963  -0.0005199338
       -0.0002228895   0.0004574509  -0.0004548035   0.0038198501  -0.0044016702
       -0.0017963211   0.0020549947   0.0027219127   0.0055951869  -0.0057443017
        0.0069079354  -0.0026900941   0.0023608281  -0.0036089087  -0.0006266540
       -0.0011122576  -0.0047284299   0.0037579124  -0.0024041730   0.0089360734
       -0.0038688841  -0.0019995089   0.0000186419   0.0004909989  -0.0000424153
       -0.0020310467  -0.0037429631   0.0002103539  -0.0122439375   0.0282934574
        0.0049006870  -0.0012891214  -0.0022169143  -0.0001132080  -0.0000095449
        0.0000215317  -0.0000966932   0.0000654563   0.0000199310   0.0004465563
        0.0000399563   0.0003582707   0.0001036094  -0.0001852252   0.0003953654
        0.0005423970   0.0001134236   0.0002936227  -0.0014640075   0.0001305589
        0.0012136569   0.0007544047  -0.0002971253  -0.0008090113  -0.0009125810
       -0.0000400521   0.0002489867   0.0001894849  -0.0000506985  -0.0001545994
        0.0000114125   0.0000614491   0.0009386211   0.0007453506
        0.0343275665  -0.0138028626  -0.0027966506  -0.0582691819  -0.0623298260
       -0.0081148932   0.0995983441  -0.2457958278  -0.0412424423  -0.0310795142
        0.6220675994   0.0798355121   0.0178752534  -0.0695657284  -0.0024786797
       -0.0136838113   0.0210283925   0.0039431820   0.0401833513  -0.0414455046
       -0.0058566970   0.0016544225   0.0152617333   0.0007526220  -0.0004602211
       -0.0071477950  -0.0008780706   0.0006686199   0.0035869993   0.0000820480
        0.0007665249  -0.0052128573  -0.0007269166   0.0047312595   0.0049739567
       -0.0000934291  -0.0134278121  -0.0557189491  -0.0043233372  -0.0815521097
       -0.1586172218  -0.0133716968  -0.0132199030   0.0046757429   0.0019092797
       -0.0055271483   0.0022738134  -0.0051597409   0.0088283385  -0.0003699203
       -0.0015313312  -0.0032055595  -0.0017691724   0.0048095007  -0.0014823827
       -0.0013640858   0.0014769893   0.0016931853   0.0042413775  -0.0041603939
        0.0061989119  -0.0019358381   0.0015576038  -0.0031797146  -0.0008344895
       -0.0008320001  -0.0020065049   0.0036532525  -0.0035007171   0.0096892126
       -0.0063202232   0.0022605561   0.0008259548  -0.0000264790  -0.0002949611
       -0.0030920954  -0.0022691672  -0.0013281525   0.0063250314  -0.0070987378
        0.0001190821  -0.0035730622  -0.0028719282  -0.0013693187  -0.0003840029
        0.0004258066   0.0000193833   0.0000527233   0.0000482623   0.0003444009
        0.0001792800  -0.0002076109   0.0000757994   0.0000498200   0.0005177152
        0.0005568009   0.0005369171   0.0009557895  -0.0002719737   0.0002097933
        0.0007526582   0.0004736740  -0.0002593285  -0.0007114667  -0.0007884121
       -0.0000228001   0.0002442989   0.0001898643  -0.0000034787  -0.0001348604
        0.0000224583   0.0000341209   0.0008431539   0.0006910573
        0.0051218586  -0.0021877482  -0.0050320954  -0.0091581791  -0.0098494272
       -0.0022799684   0.0190330234  -0.0373171997  -0.0532674252  -0.0038331372
        0.0798355121   0.1289097397   0.0001133557  -0.0035756179  -0.0506087881
       -0.0007389646   0.0054499500   0.0002352354   0.0069087042  -0.0050128044
        0.0041697646  -0.0004710486  -0.0004802213  -0.0012056771   0.0003647449
        0.0014752245   0.0001101650  -0.0011283140  -0.0008314158   0.0000109259
        0.0004902212  -0.0003727593   0.0010543003  -0.0001635161  -0.0000980273
        0.0021969122   0.0015158114  -0.0045432536  -0.0036421122  -0.0167428342
       -0.0172688131  -0.0331459627  -0.0063398741   0.0000345243  -0.0021720601
       -0.0003104129   0.0004778465   0.0000274705  -0.0004900228   0.0004314068
       -0.0000100572   0.0000776166  -0.0000767816  -0.0003588066   0.0008612161
        0.0008245025  -0.0006674780  -0.0002379167  -0.0005414843   0.0006847702
       -0.0004785275   0.0000779552   0.0003738431   0.0001735860  -0.0004192282
        0.0005225656   0.0006824063  -0.0004362251  -0.0010191233   0.0039255080
       -0.0000592522   0.0006797610   0.0001582394  -0.0000396606   0.0001603962
       -0.0001119446  -0.0016291011   0.0077321364   0.0015646973  -0.0028065767
        0.0005979879  -0.0003638133  -0.0014122229   0.0073486807  -0.0000837286
        0.0000825639   0.0000371629   0.0000027686   0.0000339004  -0.0000869993
        0.0000130717   0.0000303470  -0.0002828594  -0.0001661215   0.0002861085
        0.0000472398  -0.0001434113   0.0000354969  -0.0008919135   0.0000817045
        0.0000405806  -0.0000394220  -0.0000206501   0.0000257944  -0.0000323044
       -0.0000427771  -0.0000867640  -0.0000538642  -0.0000381522  -0.0000196833
       -0.0000282597  -0.0000251872  -0.0000774460  -0.0000738805
        0.0377653430  -0.0484978724  -0.0071420130  -0.0345471150  -0.0150456946
       -0.0019588869  -0.0075263707   0.0599682639   0.0100202805  -0.2409570772
        0.0178752534   0.0001133557   0.6275261981   0.0450125316   0.0003587979
       -0.2058142334  -0.0795698170  -0.0050932541  -0.1105284488   0.0842789088
        0.0097205341   0.0149230709  -0.0238673663  -0.0024017375  -0.0032968204
        0.0053793540   0.0013751993  -0.0031381541  -0.0036908117  -0.0000417094
        0.0005263415   0.0028000298   0.0006728709  -0.0006082147  -0.0046704883
        0.0004053071   0.0052240092   0.0061797859  -0.0014996534  -0.0503359149
       -0.0262716651  -0.0042749783   0.0069628035   0.0038033365  -0.0076879191
        0.0074730577  -0.0035076632   0.0064299182  -0.0064507499   0.0017068516
       -0.0002074695  -0.0002127242   0.0003102059  -0.0035113690   0.0055436510
        0.0021128684  -0.0029001119  -0.0030877000  -0.0069986858   0.0070684782
       -0.0086430853   0.0033092854  -0.0029434348   0.0048053337   0.0009685773
        0.0007251260   0.0019161674  -0.0032477338   0.0035741348  -0.0121990577
        0.0023671991   0.0024754456   0.0003283003   0.0024252694   0.0005186670
       -0.0005487800  -0.0002181476  -0.0003156118   0.0004803852   0.0002171634
        0.0001254987  -0.0254167755  -0.0216772873  -0.0029305512  -0.0001559787
        0.0003245943   0.0000746848  -0.0002214595  -0.0002417851  -0.0004051535
       -0.0001123641  -0.0000344592  -0.0001384597  -0.0000206502  -0.0002631293
       -0.0003456625  -0.0000528223   0.0000432372   0.0005037588   0.0000427154
       -0.0011149322  -0.0004672508   0.0003602436   0.0009341062   0.0010619898
        0.0000095534  -0.0003367125  -0.0001543346   0.0000207508   0.0002406351
        0.0000622675  -0.0000334280  -0.0010032059  -0.0008667536
        0.0061025019  -0.0665210120  -0.0094579502  -0.0193070897   0.0004511757
        0.0013015106   0.0298172113  -0.0073636128  -0.0011799474   0.0671131122
       -0.0695657284  -0.0035756179   0.0450125316   0.6015695910   0.0585696849
       -0.1488478524  -0.1941634557  -0.0169447290   0.0654900270  -0.1953325537
       -0.0181263164  -0.0147169517  -0.0577339957  -0.0037850339   0.0006495939
        0.0022184665  -0.0003889306  -0.0036376438  -0.0062103018  -0.0000226262
        0.0044306885  -0.0023321881  -0.0000531248  -0.0028772895   0.0015182243
       -0.0007407736   0.0019226952   0.0094903415   0.0005932286  -0.0335421891
       -0.0089692079  -0.0021234989  -0.0067094502  -0.0033169444   0.0008727739
        0.0007035897  -0.0003139130  -0.0011256913  -0.0003894334  -0.0002204915
        0.0002374807   0.0005096925   0.0000133534   0.0009842636  -0.0016644109
       -0.0002137418   0.0002234301   0.0011492088   0.0016606962  -0.0014114573
        0.0017081316  -0.0008300930   0.0005028833  -0.0005194468  -0.0002528000
       -0.0002510832  -0.0018713330   0.0021365459  -0.0022196794   0.0035191558
       -0.0035839631   0.0019350421   0.0018077910  -0.0043252212  -0.0017228692
       -0.0005766002   0.0003809065   0.0002331705   0.0016786187  -0.0043415412
       -0.0019899903   0.0025830281   0.0046649087  -0.0005166698   0.0000859425
       -0.0003211319  -0.0002457265  -0.0000664311   0.0000785188   0.0001354244
        0.0002372864   0.0000922342   0.0000425431   0.0005552387   0.0009627293
        0.0005002194   0.0000213671  -0.0000536128  -0.0005869651   0.0000190297
        0.0007645362   0.0003007992  -0.0001860360  -0.0004820863  -0.0005257901
       -0.0002033615   0.0001485057   0.0001764190  -0.0000851694  -0.0001805934
        0.0000717318   0.0000842462   0.0004774555   0.0003138660
        0.0003054171  -0.0080989241  -0.0030924602  -0.0024263838   0.0007030974
       -0.0043442938   0.0046950711  -0.0023513727  -0.0021285774   0.0091137416
       -0.0024786797  -0.0506087881   0.0003587979   0.0585696849   0.1264215678
       -0.0163244808  -0.0182626894  -0.0481890247   0.0093008840  -0.0214190838
       -0.0352168646  -0.0018346588  -0.0024383679  -0.0032624751   0.0004981638
       -0.0003503495   0.0012353875  -0.0000046643  -0.0001742519   0.0014378057
        0.0002784110  -0.0003871124   0.0000340976   0.0000198803   0.0005262894
       -0.0000752467  -0.0003508586   0.0007650994  -0.0012959224  -0.0046984478
       -0.0008850056   0.0007585008  -0.0024092129  -0.0026024821   0.0038967238
       -0.0000695799   0.0003972043  -0.0002542671   0.0004917969  -0.0002518921
        0.0001867904   0.0001560905  -0.0000423863   0.0002793309  -0.0004823014
       -0.0001785250   0.0003616469   0.0003405826   0.0006308564  -0.0005821464
        0.0006558529  -0.0002647531   0.0003154993  -0.0003622307  -0.0000177970
       -0.0002566653  -0.0007188056  -0.0004443649   0.0002037573   0.0007961299
        0.0012122545  -0.0013193932   0.0005687918  -0.0016695056   0.0073912814
       -0.0000333796   0.0000071100   0.0005982265   0.0008625354  -0.0018708896
        0.0066947630   0.0010299155   0.0010159240   0.0014041341   0.0000088826
       -0.0000379364  -0.0000659017   0.0000053264   0.0000780717  -0.0002340164
        0.0000262349   0.0000176530  -0.0001346510  -0.0000224578   0.0001870082
        0.0000636532   0.0001946844   0.0001060728  -0.0001442568   0.0001038820
        0.0000176208  -0.0000342630  -0.0000190884  -0.0000810798  -0.0000938991
       -0.0000135626   0.0000063690  -0.0000073164  -0.0000262985  -0.0000320235
       -0.0000142203  -0.0000146609   0.0000991564   0.0000714835
       -0.1157369479   0.1088126400   0.0173633788  -0.0146763576   0.0329764098
        0.0058716466   0.0007974946  -0.0085576377  -0.0016269476  -0.0464852078
       -0.0136838113  -0.0007389646  -0.2058142334  -0.1488478524  -0.0163244808
        0.6688111629  -0.0169405313  -0.0166411523   0.0127729355   0.0000406738
       -0.0003265025  -0.0008522070   0.0031822756   0.0003448214   0.0000272646
       -0.0001694615  -0.0000897681   0.0001833877   0.0007169522  -0.0000402293
       -0.0002528532  -0.0001981110  -0.0000187947   0.0003743276   0.0003992112
        0.0000640877   0.0003606735  -0.0014444379   0.0000339540  -0.0042258877
        0.0050589972   0.0002965590  -0.0001278123  -0.0016246996   0.0001882832
       -0.0002846013  -0.0000011024   0.0000749367   0.0000770802  -0.0001357155
        0.0001604992   0.0001555725   0.0001962748  -0.0003385711  -0.0000334436
       -0.0000254901  -0.0000029098  -0.0001468772  -0.0000887011  -0.0000246706
       -0.0001109704  -0.0000274562   0.0001235715  -0.0001749755   0.0000233320
        0.0001003214   0.0003765736  -0.0003278872   0.0004907092  -0.0008570628
        0.0009264399  -0.0010247490   0.0051725820  -0.0181213387  -0.0029655212
       -0.0056543265   0.0015928902   0.0009016434   0.0006503277  -0.0000775549
       -0.0002217863  -0.2942464938   0.0564024033   0.0141214411  -0.0000656931
        0.0001376089   0.0000293894  -0.0000018552   0.0000394188   0.0000210298
       -0.0000029666   0.0000183904   0.0000217355  -0.0000235817  -0.0000569018
       -0.0000650174  -0.0000751558  -0.0001167051   0.0002532110  -0.0000225010
       -0.0001030649   0.0000057282   0.0000421597   0.0000356617   0.0001263489
        0.0000531459  -0.0000233686  -0.0000061810   0.0000371244   0.0000443248
       -0.0000291742  -0.0000198008  -0.0000320756  -0.0001078755
        0.0315828125  -0.2965152258  -0.0373460210   0.0859183736  -0.0012901178
       -0.0027177020  -0.0163291857  -0.0411526026  -0.0066778749  -0.0554623686
        0.0210283925   0.0054499500  -0.0795698170  -0.1941634557  -0.0182626894
       -0.0169405313   0.6454373498   0.0751084699  -0.0232862413  -0.0568832909