$hessian                                                                        
        0.5205479228   0.0146018122   0.0057387153  -0.0684938733   0.0182733346
        0.0099152439   0.0000321819   0.0039442930   0.0029700363  -0.0076937273
        0.0245630108   0.0042949299  -0.0019659749   0.0005167678  -0.0000780068
       -0.0002611552   0.0000097271  -0.0012765408   0.0003252028   0.0002022287
       -0.0001307880  -0.0003709446   0.0001605302   0.0000118253   0.0001944567
        0.0002307599  -0.0000698461  -0.0001795951  -0.0002165965  -0.0000697613
        0.0002068859   0.0001016532   0.0001015378  -0.0000227468  -0.0000554781
       -0.0000241800   0.0000635741   0.0000086836   0.0000056522  -0.0000187753
       -0.0000209964  -0.0000059828   0.0002395014  -0.0000289715  -0.0000000419
       -0.0000471549  -0.0002212088  -0.0000061199  -0.0000873968   0.0000720152
        0.0000147103  -0.0000918270  -0.0000567857   0.0000002209   0.0000661503
        0.0000051258  -0.0000104005   0.0000430706   0.0000051429  -0.0000057549
        0.0001816465   0.0000034112  -0.0000061811  -0.0000917760  -0.0000365744
        0.0000030840   0.0000097690  -0.0000031665  -0.0000277833   0.0000070900
        0.0000032734   0.0000284665   0.0002216247   0.0001127837  -0.0000127829
        0.0000053242   0.0000412086   0.0000063184   0.0001185862   0.0000111287
        0.0000040366  -0.0001843996  -0.0001308566  -0.0000031353   0.0000014903
       -0.0001311698  -0.0000087026  -0.0003463556   0.0001877867   0.0000390697
        0.0000447062   0.0000935933   0.0000050616  -0.0000958425   0.0000094783
        0.0000026689   0.0000285818  -0.0000390683  -0.0000019695  -0.0000780305
       -0.0000018736   0.0000027734   0.0000468350   0.0000539213   0.0000063872
        0.0000325582   0.0000024254   0.0000006071   0.0000098168   0.0000422612
        0.0000021670   0.0001045013  -0.0000050444  -0.0000218664  -0.0000993411
        0.0000813672   0.0000053520   0.0000889330  -0.0004522640   0.0002749574
       -0.0000948777   0.0003940042  -0.0002144059   0.0007888741  -0.0004868584
       -0.0001309603  -0.0008480752   0.0002020851  -0.0001795064  -0.0468505236
       -0.0011385141   0.0228441873  -0.2136332429   0.0688399123  -0.0832353338
       -0.1842798653  -0.1097016472   0.0452231317   0.0022229635  -0.0217508394
       -0.0062295122   0.0004736972   0.0002758736   0.0006775310   0.0003566670
       -0.0005691761  -0.0004254149   0.0003482303   0.0008278573  -0.0000149980
       -0.0000918010   0.0002629301   0.0001013918  -0.0001266304   0.0000815577
       -0.0001584946  -0.0000233010  -0.0000311989  -0.0000606560   0.0000315197
        0.0000177440   0.0000183683  -0.0000204569  -0.0000104839  -0.0000040835
       -0.0000138451   0.0000083399   0.0000015208   0.0000013580  -0.0000103003
       -0.0000014237  -0.0000047900  -0.0000059896   0.0000045590  -0.0000110883
       -0.0000054543  -0.0000000789   0.0000012986   0.0000049018   0.0000017207
       -0.0000052916  -0.0000099581   0.0000055747  -0.0000059968   0.0000020947
        0.0000052331  -0.0000074328   0.0000030749  -0.0000099847  -0.0000046799
       -0.0000088876  -0.0000048183   0.0000017925   0.0000055271  -0.0000033254
       -0.0000159963   0.0000005608   0.0000034604  -0.0000016166  -0.0000029409
       -0.0000012246   0.0000065650   0.0000109935   0.0000024926  -0.0000037795
        0.0000093955   0.0000014067  -0.0000167882   0.0000045810   0.0000022224
       -0.0000075566  -0.0000119335  -0.0000005449  -0.0000076953  -0.0000085402
        0.0000007327   0.0000066335   0.0000080159  -0.0000126656  -0.0006557615
        0.0008556038   0.0001199209
        0.0146018122   0.4565259886  -0.0235819898   0.0125665145  -0.1721068796
       -0.0406233826   0.0014507140  -0.0053212174  -0.0065335357   0.0133745504
       -0.0169995872   0.0011279649   0.0010000834   0.0001984238  -0.0007194281
        0.0006405680   0.0000886126   0.0009814572  -0.0004209244  -0.0000152332
        0.0000390875   0.0002965520  -0.0001442680  -0.0000204080  -0.0000905883
        0.0001889955  -0.0002085229  -0.0002312203  -0.0002554192   0.0002156141
        0.0002387298   0.0001026491  -0.0000737144  -0.0000637571  -0.0001104543
        0.0001314304   0.0000998252   0.0000065334   0.0000302534  -0.0000805460
       -0.0000291089   0.0000063018   0.0000391809   0.0000414426  -0.0000016481
       -0.0000302011  -0.0000864754   0.0000083765  -0.0000346358   0.0000423461
        0.0000098509  -0.0000308732  -0.0000352427   0.0000059954   0.0000242636
        0.0000249247  -0.0000008010   0.0000150293  -0.0000156888  -0.0000033597
        0.0000612474   0.0000255597  -0.0000025916  -0.0000113676  -0.0000083686
        0.0000020089   0.0000030786   0.0000029729  -0.0000071856   0.0000056734
        0.0000010203   0.0000071074   0.0000914809   0.0000026765  -0.0000133306
        0.0000115192   0.0001632534   0.0000147727   0.0001113401  -0.0001943361
       -0.0000084534  -0.0001371719   0.0000046703  -0.0000000877  -0.0000004890
       -0.0001934815  -0.0000114944  -0.0000360642   0.0001297443  -0.0000080074
       -0.0000155873   0.0000173749   0.0000011156  -0.0000186896  -0.0000961703
       -0.0000082363  -0.0000915149   0.0000498585   0.0000038956   0.0000576988
       -0.0000327639  -0.0000031692   0.0000071324   0.0000335959   0.0000028124
        0.0001065866  -0.0000308598  -0.0000035660  -0.0001103120   0.0001523710
        0.0000100030   0.0000401424   0.0000648476  -0.0000462030  -0.0001172685
       -0.0000138977  -0.0000774491  -0.0001001696  -0.0002139503   0.0001003221
        0.0000973151   0.0002288696  -0.0000911266   0.0002178329  -0.0000573289
        0.0006684162  -0.0018998980  -0.0006561987  -0.0002218746  -0.0010318988
       -0.0422351406   0.0041012168   0.0686495582  -0.0700003274   0.0347440266
       -0.1096238357  -0.1275957532   0.0359836851   0.0006096451  -0.0238762591
       -0.0067286337   0.0000782993   0.0007333805  -0.0003625589  -0.0001940700
        0.0005213722   0.0006828728  -0.0001023866   0.0009150580   0.0009013104
        0.0001800871   0.0000196121  -0.0003401517   0.0000998201   0.0000330194
        0.0000697481   0.0000177657   0.0000349791   0.0000264736  -0.0000281038
        0.0000057846  -0.0000057613   0.0000046728   0.0000059551  -0.0000049553
        0.0000037258   0.0000002019  -0.0000023914  -0.0000005779  -0.0000000701
       -0.0000007112  -0.0000007383  -0.0000050822  -0.0000019924  -0.0000038418
       -0.0000013958   0.0000002403   0.0000023820  -0.0000000119   0.0000016256
       -0.0000001432  -0.0000026249   0.0000000321  -0.0000048730   0.0000026557
        0.0000031395  -0.0000045962   0.0000027228  -0.0000006589  -0.0000002843
       -0.0000026194  -0.0000005180   0.0000019796  -0.0000004784  -0.0000013804
       -0.0000014198   0.0000000750  -0.0000013812   0.0000065691   0.0000016387
       -0.0000037619   0.0000001764   0.0000017881  -0.0000012577  -0.0000006683
        0.0000001134  -0.0000004243   0.0000022462   0.0000013012  -0.0000001359
        0.0000010603   0.0000005037   0.0000001569   0.0000016760   0.0000065301
        0.0000027702   0.0000004912  -0.0000072409  -0.0000051006  -0.0003003095
       -0.0000394884  -0.0001527434
        0.0057387153  -0.0235819898   0.5143945341   0.0067609095  -0.0358833675
       -0.0728915570   0.0055212375  -0.0280687714  -0.0173690249  -0.0019309133
        0.0092056267   0.0036018753  -0.0015189906   0.0006866483  -0.0011205820
        0.0000995320  -0.0001414160  -0.0006690966   0.0001547468  -0.0000008643
       -0.0000228573  -0.0002385252   0.0000794459   0.0000353425   0.0001323516
        0.0001751353  -0.0000695883  -0.0001480941  -0.0001575010   0.0000109861
        0.0001736070   0.0000606186   0.0000439826  -0.0000538411  -0.0000453565
        0.0000114368   0.0000702113   0.0000131822   0.0000235477  -0.0000341188
       -0.0000152149  -0.0000168772   0.0001246508  -0.0000266061   0.0000023794
       -0.0000230745  -0.0001122398  -0.0000015417  -0.0000445143   0.0000324253
        0.0000042466  -0.0000420936  -0.0000282858   0.0000048114   0.0000218685
        0.0000011607  -0.0000167997   0.0000266224   0.0000026162   0.0000041176
        0.0000869807  -0.0000010128  -0.0000051315  -0.0000481976  -0.0000171504
       -0.0000008758   0.0000009693  -0.0000012597  -0.0000168270  -0.0000011251
        0.0000000324   0.0000132099   0.0001006523   0.0000637391  -0.0000085961
        0.0000013674  -0.0000249052  -0.0000035491   0.0000336356   0.0000669863
        0.0000014476  -0.0000677214  -0.0000855448   0.0000001718  -0.0000057272
       -0.0000135013  -0.0000029183  -0.0001970340   0.0000644080   0.0000190360
        0.0000400294   0.0000512270   0.0000048565  -0.0000619181   0.0000397867
       -0.0000005399   0.0000434276  -0.0000433666   0.0000023404  -0.0000658410
        0.0000075116  -0.0000007596   0.0000265066   0.0000201157   0.0000047015
       -0.0000133558   0.0000126938  -0.0000046118   0.0000408692  -0.0000209226
        0.0000005411   0.0000763378   0.0000166965  -0.0000297149  -0.0000961296
        0.0000352561  -0.0000274407   0.0000576647  -0.0002662964   0.0001384421
       -0.0000802147   0.0002659336  -0.0000751653   0.0002866832  -0.0002680069
       -0.0000393707  -0.0005258331   0.0006211954   0.0000714013   0.0228165470
        0.0041808489  -0.2802359932  -0.0831453930   0.0351613266  -0.0847824976
        0.0454600408   0.0362086556  -0.0591430326  -0.0005125698   0.0046507315
        0.0025240963   0.0009018745  -0.0015241159  -0.0066254606   0.0005848030
       -0.0007938019   0.0009172314  -0.0003936995  -0.0007822362   0.0011627302
       -0.0000940755   0.0000638489   0.0001727787  -0.0001002800   0.0001054113
       -0.0000471378  -0.0000155505  -0.0000212543  -0.0000241761   0.0000167367
        0.0000026012   0.0000076630  -0.0000062883  -0.0000062645  -0.0000012618
       -0.0000011980   0.0000020583   0.0000020687   0.0000025976  -0.0000027977
       -0.0000002313  -0.0000005008  -0.0000022022   0.0000014317  -0.0000042382
       -0.0000016785  -0.0000009603   0.0000050958   0.0000019877  -0.0000030353
       -0.0000025943  -0.0000057544   0.0000012252  -0.0000022783   0.0000035607
        0.0000034233  -0.0000034292   0.0000030568  -0.0000026205  -0.0000015409
       -0.0000057510  -0.0000031802   0.0000022375   0.0000025449   0.0000004761
       -0.0000065303   0.0000007057   0.0000026089   0.0000015543  -0.0000031119
       -0.0000012620   0.0000046772   0.0000055939   0.0000005060  -0.0000022451
        0.0000060187  -0.0000000185  -0.0000080933   0.0000031435   0.0000010995
       -0.0000030310  -0.0000063451  -0.0000009704   0.0000021259  -0.0000020096
        0.0000032120   0.0000051022   0.0000018542  -0.0000001344   0.0000778300
        0.0000345135   0.0000714386
       -0.0684938733   0.0125665145   0.0067609095   0.5106750865   0.0346522274
       -0.0104237596  -0.0665662583  -0.0037883118   0.0182690587  -0.1559968754
        0.0420050391  -0.0502828066  -0.0018494666   0.0047960031  -0.0042768414
        0.0014915811  -0.0011311906  -0.0002145800  -0.0015900193   0.0000683831
       -0.0004499439   0.0006733020  -0.0005183754   0.0008087797  -0.0000581971
        0.0001137132  -0.0000323315   0.0000538892  -0.0001329309  -0.0000333134
       -0.0003625325  -0.0000530405   0.0000918992   0.0001960538   0.0001799740
       -0.0002276018  -0.0002924128   0.0000045952  -0.0001071179   0.0002860634
        0.0001194981   0.0000372303   0.0000453676   0.0000911202  -0.0000068308
       -0.0001198689  -0.0003745493  -0.0000656706  -0.0001006103   0.0001725660
        0.0000268574  -0.0001193849  -0.0001320512  -0.0000012073   0.0000705191
        0.0000683515  -0.0000088205   0.0000244120  -0.0000712199   0.0000063678
        0.0002319452   0.0000908594  -0.0000090278  -0.0000813932  -0.0000467067
        0.0000027718   0.0000103047   0.0000129299  -0.0000032498   0.0000085029
        0.0000173381   0.0000020566   0.0003473709  -0.0000260082   0.0000056526
        0.0000037763   0.0007151435   0.0000569813   0.0004538234  -0.0009053097
       -0.0000398667  -0.0005451001   0.0002701888   0.0000329269   0.0000889474
       -0.0008726515  -0.0000696372  -0.0001286893   0.0006736669   0.0000810775
       -0.0001536047  -0.0000942669  -0.0000190154   0.0000625673  -0.0004516454
       -0.0000306753  -0.0004335326   0.0003000645   0.0000205977   0.0003482515
       -0.0001223837  -0.0000040245  -0.0000235006   0.0001150315   0.0000093252
        0.0004529207  -0.0001618862  -0.0000145918  -0.0005514620   0.0006919461
        0.0000479481  -0.0001171343  -0.0001983405   0.0001173659   0.0002404313
        0.0000685317   0.0001149899  -0.0009108051   0.0012244449  -0.0010388609
        0.0001118844  -0.0004618198   0.0003704095  -0.0031782553  -0.0030311910
        0.0004411195  -0.0302352501   0.0059948857  -0.0102238228  -0.0006726002
        0.0039198081   0.0021865597  -0.0065817789   0.0255315337   0.0071942655
        0.0028448382  -0.0219848348  -0.0070154641  -0.1777798542  -0.0987449095
        0.0425747756  -0.0003184016   0.0004653319   0.0048579911   0.0006673917
        0.0006455798  -0.0257113331  -0.0041010522  -0.0013347111   0.0243559391
        0.0011136075  -0.0015381233   0.0017587567   0.0001504343  -0.0003038999
        0.0002221018   0.0000060535  -0.0000422471  -0.0000365561   0.0000746524
        0.0000053419  -0.0000051651  -0.0000001216  -0.0000140907  -0.0000056754
       -0.0000112988  -0.0000102514   0.0000030556  -0.0000025712   0.0000020433
        0.0000008652   0.0000018072   0.0000120360   0.0000072732   0.0000055443
        0.0000010670  -0.0000000127  -0.0000069954  -0.0000053724   0.0000041462
       -0.0000014210   0.0000130014   0.0000022883  -0.0000022683  -0.0000148910
        0.0000016511  -0.0000020626  -0.0000141976  -0.0000086146   0.0000004260
        0.0000129821  -0.0000007050  -0.0000062625  -0.0000050685  -0.0000031359
       -0.0000004884  -0.0000045557  -0.0000103383  -0.0000084113  -0.0000005732
       -0.0000131411  -0.0000053838  -0.0000021173  -0.0000012587   0.0000067901
       -0.0000082584  -0.0000027447   0.0000055524  -0.0000056922  -0.0000003098
        0.0000016514   0.0000018002  -0.0000014363   0.0000086149  -0.0000036124
        0.0000002976   0.0000030535  -0.0000012679   0.0000205209   0.0006417808
        0.0009890117  -0.0000953245
        0.0182733346  -0.1721068796  -0.0358833675   0.0346522274   0.4796202927
       -0.0211258679  -0.0037332556  -0.0611589362  -0.0018627034   0.0323598979
       -0.0794992199   0.0244350076   0.0186142244  -0.0132632609   0.0151473433
       -0.0023578850  -0.0009557624   0.0050186046   0.0010049727  -0.0006129651
        0.0008945046   0.0000373542   0.0002734187  -0.0011303880  -0.0002652543
       -0.0010958418   0.0005850423   0.0005126521   0.0008821985  -0.0002847987
       -0.0007285145  -0.0003406436  -0.0000337348   0.0001383289   0.0002283972
       -0.0001634689  -0.0002258594   0.0000435188   0.0000077518   0.0002310447
        0.0001209982  -0.0000239282  -0.0004465334  -0.0001287568   0.0000205734
        0.0001280206   0.0004626629  -0.0000292743   0.0001851754  -0.0001911534
       -0.0000302508   0.0001876122   0.0001462370  -0.0000066020  -0.0001053861
       -0.0000658302   0.0000157683  -0.0000765601   0.0000330529   0.0000180530
       -0.0003440704  -0.0000745447   0.0000046056   0.0001332062   0.0000559603
       -0.0000020944  -0.0000128011  -0.0000093324   0.0000360728  -0.0000127448
       -0.0000086699  -0.0000354435  -0.0004461589  -0.0001034583   0.0000253353
       -0.0000240685  -0.0004771134  -0.0000473540  -0.0004139108   0.0005351174
        0.0000238962   0.0005319354   0.0000012937  -0.0000059992  -0.0000413157
        0.0006727611   0.0000575908   0.0004393715  -0.0005751964  -0.0000380887
        0.0000462635  -0.0000564432   0.0000018343   0.0000729146   0.0002738156
        0.0000177124   0.0002465291  -0.0001390517  -0.0000090476  -0.0001333484
        0.0000881083   0.0000029953  -0.0000480170  -0.0001315470  -0.0000115224
       -0.0003181207   0.0000889687   0.0000058607   0.0003253746  -0.0004688901
       -0.0000320366  -0.0002290036  -0.0001286602   0.0000920831   0.0003612427
       -0.0001743248   0.0000746209  -0.0004404717   0.0004117866  -0.0003735046
        0.0001707889   0.0001033283  -0.0000108906  -0.0040296303   0.0016433069
        0.0020339684  -0.0041467917   0.0058104242  -0.0053673402   0.0009527795
       -0.0029491581  -0.0032899087   0.0052726921  -0.0150782419  -0.0030300966
       -0.0007746016  -0.0234137386  -0.0054942478  -0.0981089803  -0.1134774555
        0.0314558610   0.0028633235  -0.0022039952  -0.0280722178   0.0001502240
       -0.0000951599   0.0098513859  -0.0031271361  -0.0009709224   0.0179326990
        0.0018231587  -0.0004193467  -0.0008540962   0.0008861391  -0.0004973849
        0.0005275453   0.0000240066   0.0000680715   0.0001173407  -0.0000297736
       -0.0000694828  -0.0000435640   0.0000136922   0.0000027922   0.0000024386
        0.0000045857   0.0000008404   0.0000003550  -0.0000083938   0.0000090453
        0.0000018693  -0.0000002342   0.0000043144  -0.0000032423   0.0000055666
        0.0000061232   0.0000009798  -0.0000025701  -0.0000011362   0.0000022835
        0.0000038477   0.0000087841  -0.0000051794   0.0000095866  -0.0000007250
       -0.0000069233   0.0000102186  -0.0000025495   0.0000080411   0.0000041249
        0.0000086083   0.0000088193  -0.0000031593  -0.0000021766  -0.0000001551
        0.0000184993   0.0000026087   0.0000022788  -0.0000024959   0.0000081261
        0.0000039608  -0.0000058236  -0.0000104907  -0.0000022860   0.0000023729
       -0.0000094563  -0.0000009627   0.0000158973  -0.0000028549  -0.0000011817
        0.0000058488   0.0000144357   0.0000018275   0.0000005471   0.0000204845
        0.0000007567  -0.0000149027   0.0000248724   0.0000228952  -0.0000618094
       -0.0007039972  -0.0011487943
        0.0099152439  -0.0406233826  -0.0728915570  -0.0104237596  -0.0211258679
        0.4535250727   0.0111491395   0.0016405440  -0.1860372095  -0.0436344443
        0.0260791998  -0.0818020310  -0.0144553447   0.0125411070  -0.0090522842
        0.0005756012   0.0051507800   0.0032536934  -0.0006702995   0.0005681061
       -0.0001965620  -0.0002623247  -0.0012870987  -0.0005487133   0.0006111607
        0.0006316491  -0.0006101321  -0.0008807644  -0.0003621015   0.0003785871
        0.0005191364   0.0003253757  -0.0003815090  -0.0001337621  -0.0002692037
        0.0004452942   0.0002783416  -0.0000213231   0.0000130824  -0.0002572527
       -0.0001040883   0.0000369086   0.0001859440   0.0000222019  -0.0000309496
        0.0000133065  -0.0000042038   0.0001089810   0.0000146546  -0.0000090179
       -0.0000008112   0.0000164690   0.0000106892   0.0000199887  -0.0000034423
       -0.0000077595  -0.0000019030  -0.0000000007   0.0000068643  -0.0000110056
       -0.0000151458  -0.0000089386   0.0000034613  -0.0000022865   0.0000007780
        0.0000082485  -0.0000082039   0.0000040823  -0.0000036079  -0.0000031423
       -0.0000101212  -0.0000022874  -0.0000116183   0.0000196717  -0.0000326796
       -0.0000074103  -0.0001026524   0.0000136467  -0.0000584736   0.0001409502
       -0.0000032259   0.0000666092  -0.0000544718  -0.0000035471  -0.0000110145
        0.0001212900   0.0000186151  -0.0000968891  -0.0000505555  -0.0001324033
        0.0000311668   0.0000188315   0.0000027734  -0.0000249620   0.0000735868
        0.0000016647   0.0000712110  -0.0000553035  -0.0000063483  -0.0000666358
        0.0000179443  -0.0000036514   0.0000124744  -0.0000111754  -0.0000039497
       -0.0000668877   0.0000256663  -0.0000011536   0.0000893798  -0.0001032197
       -0.0000067575   0.0000184627   0.0002707305  -0.0001203772  -0.0002155326
       -0.0001548817  -0.0001709086   0.0003201841  -0.0005621734   0.0005825348
        0.0002723538   0.0003184057  -0.0002838511   0.0011259925   0.0022637697
        0.0041505562  -0.0025309899  -0.0029710464   0.0012317484   0.0056471126
       -0.0281375825  -0.0128184949  -0.0022851832   0.0094530960   0.0033819668
       -0.0013537491   0.0055053839   0.0021320770   0.0421136575   0.0312789031
       -0.0551498942   0.0015648236  -0.0031055323  -0.0139636240  -0.0013467324
        0.0016935506  -0.0188994501   0.0050514733   0.0028920592  -0.0133462788
       -0.0006688931  -0.0015514231  -0.0011349561  -0.0006028409   0.0002696754
       -0.0003448191  -0.0000334216   0.0001557666   0.0001889654  -0.0001471563
        0.0000405648  -0.0000155286   0.0000103322   0.0000113126   0.0000110467
       -0.0000005364   0.0000008074  -0.0000101864  -0.0000071152   0.0000050066
        0.0000011332  -0.0000018075   0.0000021807  -0.0000015777   0.0000045699
        0.0000045614   0.0000016079   0.0000029820   0.0000028480  -0.0000062871
       -0.0000010734  -0.0000028989  -0.0000005453   0.0000015359   0.0000038635
        0.0000029026   0.0000023157   0.0000035196   0.0000080289  -0.0000020359
       -0.0000054200   0.0000006242  -0.0000002287   0.0000010360   0.0000076600
       -0.0000027922   0.0000009280   0.0000043619   0.0000012076   0.0000030702
        0.0000063519   0.0000043687   0.0000041672  -0.0000024857  -0.0000009944
        0.0000065015  -0.0000028585  -0.0000070514   0.0000025322  -0.0000020894
       -0.0000044425  -0.0000043118  -0.0000018366  -0.0000262418   0.0000289051
       -0.0000000454  -0.0000335891  -0.0000462007  -0.0000367470   0.0006752614
       -0.0008705072  -0.0014644629
        0.0000321819   0.0014507140   0.0055212375  -0.0665662583  -0.0037332556
        0.0111491395   0.5238700849  -0.0001720144   0.0052195966   0.0004403776
        0.0018665852  -0.0236499048  -0.0020396128   0.0003102824  -0.0011120446
       -0.0004716873   0.0010895883   0.0004157823   0.0004869354   0.0001941247
        0.0000123105  -0.0005353461  -0.0000204179  -0.0003413067   0.0003119718
        0.0002719665  -0.0001976497  -0.0004373266  -0.0001829924   0.0001784609
        0.0002856021   0.0001471895  -0.0001595973  -0.0000861773  -0.0001514334
        0.0002177145   0.0001722619   0.0000103056   0.0000173951  -0.0001885199
       -0.0000821592   0.0000114507   0.0001169833  -0.0000364724  -0.0000051686
        0.0000135245   0.0000612212   0.0000481724  -0.0000297913  -0.0000164470
        0.0000064979  -0.0000237212   0.0000200856   0.0000082885   0.0000224061
       -0.0000021513   0.0000035558   0.0000260381   0.0000371894  -0.0000089846
        0.0000220901  -0.0000250069  -0.0000019243  -0.0000001629   0.0000050332
        0.0000065736   0.0000069048  -0.0000029582  -0.0000201117   0.0000094834
       -0.0000046088   0.0000224096   0.0000243670   0.0000547736  -0.0000185658
        0.0000157239  -0.0001549305  -0.0000028436  -0.0000476139   0.0002332125
        0.0000103455   0.0000498670  -0.0001829868  -0.0000160474  -0.0000469642
        0.0001549468   0.0000207468  -0.0000980683  -0.0001164163  -0.0000609266
        0.0000572892   0.0001068584   0.0000085108  -0.0000666420   0.0001116261
        0.0000067797   0.0001252623  -0.0001063058  -0.0000110957  -0.0001330207
        0.0000224453   0.0000006032   0.0000409317   0.0000014809  -0.0000022738
       -0.0000932745   0.0000511544   0.0000038857   0.0001534013  -0.0001577889
       -0.0000144231   0.0000545354   0.0001191915  -0.0000589395  -0.0001535793
       -0.0000630113  -0.0000818871   0.0002069888  -0.0002210479   0.0002706383
        0.0000916276   0.0001480417  -0.0002043295   0.0005879853   0.0000062148
        0.0007306007  -0.0011246813   0.0000965384  -0.0005398398   0.0003631819
        0.0011950842   0.0005285483   0.0003277207  -0.0001086119   0.0007067669
        0.0004377752  -0.0001087987  -0.0007592679  -0.0040342931  -0.0019068963
        0.0243055380  -0.0518583279   0.0381712271   0.0125306341  -0.2149687146
        0.0680316426  -0.0839221703  -0.1845331567  -0.1066962137   0.0505752853
        0.0000081712  -0.0000114222  -0.0002944296  -0.0001374320   0.0001458654
       -0.0000926439  -0.0000269447   0.0000509490   0.0000462250  -0.0000717617
        0.0000179110  -0.0000084550  -0.0000121525   0.0000003607   0.0000001848
        0.0000002960   0.0000108820  -0.0000068968   0.0000051402  -0.0000126251
       -0.0000009981  -0.0000046236  -0.0000127262   0.0000017848  -0.0000120522
       -0.0000077752   0.0000018862   0.0000013413   0.0000066084  -0.0000004209
       -0.0000046322  -0.0000125215   0.0000036777  -0.0000067120   0.0000076149
        0.0000029315  -0.0000066244   0.0000078005  -0.0000030175  -0.0000047005
       -0.0000133104  -0.0000027772   0.0000026738   0.0000048278  -0.0000010990
       -0.0000158256   0.0000023542   0.0000045892   0.0000021843   0.0000009738
        0.0000028961   0.0000060031   0.0000100476  -0.0000013081  -0.0000049714
        0.0000103402  -0.0000020736  -0.0000166220   0.0000049470  -0.0000018539
       -0.0000068968  -0.0000098428  -0.0000023496  -0.0000229981   0.0000088414
        0.0000006482  -0.0000104263  -0.0000080692  -0.0000288244  -0.0004769973
        0.0000821707  -0.0009658422
        0.0039442930  -0.0053212174  -0.0280687714  -0.0037883118  -0.0611589362
        0.0016405440  -0.0001720144   0.5226534560  -0.0013913684   0.0023222568
       -0.0005229003   0.0109140784   0.0014423326  -0.0006291853   0.0006081110
        0.0003322896  -0.0005685639  -0.0003433722  -0.0002940858  -0.0000519875
       -0.0001003389   0.0003066722   0.0000558800   0.0001745841  -0.0001702440
       -0.0000217065   0.0000094380   0.0000666479  -0.0000398352  -0.0000103989
       -0.0000041301  -0.0000122043   0.0000427276   0.0000258981   0.0000134634
       -0.0000387014  -0.0000285132  -0.0000016924   0.0000021664   0.0000536524
        0.0000203890   0.0000049444   0.0000038467   0.0000380333   0.0000041601
       -0.0000314592  -0.0001100503  -0.0000207622  -0.0000133444   0.0000461251
        0.0000045786  -0.0000203207  -0.0000358407  -0.0000023512   0.0000163872
        0.0000157812  -0.0000039683   0.0000030404  -0.0000262531   0.0000050595
        0.0000498186   0.0000267032  -0.0000044634  -0.0000192399  -0.0000121553
       -0.0000000572   0.0000015812   0.0000009860   0.0000018356   0.0000015675
        0.0000043910  -0.0000011056   0.0000732729  -0.0000069553   0.0000012296
        0.0000013398   0.0001726362   0.0000082904   0.0001020380  -0.0002203453
       -0.0000078854  -0.0001265866   0.0000668621   0.0000076324   0.0000237407
       -0.0002049352  -0.0000133637  -0.0000281992   0.0001622293   0.0000224077
       -0.0000326326  -0.0000231672  -0.0000020518   0.0000088789  -0.0001050922
       -0.0000081739  -0.0001060700   0.0000691290   0.0000111319   0.0000853172
       -0.0000314987   0.0000015735  -0.0000063513   0.0000226453   0.0000063595
        0.0001100812  -0.0000373399  -0.0000062666  -0.0001304567   0.0001661708
        0.0000137319  -0.0000003035  -0.0000255865   0.0000081371   0.0000179492
        0.0000337783   0.0000118456  -0.0001181016  -0.0001258939   0.0000359145
        0.0000206745   0.0001612025  -0.0000169637   0.0000936840  -0.0001827438
       -0.0002096651  -0.0005574289  -0.0001691083   0.0006860592   0.0012139684
       -0.0051319556  -0.0035498158  -0.0005544627   0.0008259235  -0.0006477030
        0.0003903747   0.0011998118  -0.0007759790  -0.0035242551  -0.0002223891
        0.0172809827   0.0382191701  -0.2534040729  -0.0683614595   0.0678057235
       -0.0714724703   0.0334658786  -0.1069012350  -0.1261667829   0.0386227354
        0.0000605360   0.0002670160   0.0001016180   0.0000947513  -0.0000390612
        0.0000758166   0.0000185591  -0.0000063687  -0.0000234710   0.0000186207
       -0.0000005176  -0.0000017193  -0.0000023526  -0.0000029189  -0.0000059808
       -0.0000034511  -0.0000038561   0.0000019658  -0.0000030995   0.0000019145
       -0.0000013972  -0.0000003684   0.0000016938  -0.0000006036   0.0000001451
        0.0000010691  -0.0000013696  -0.0000006091  -0.0000018686   0.0000016026
       -0.0000001238   0.0000029818  -0.0000011421  -0.0000003541  -0.0000029217
        0.0000013472  -0.0000006567  -0.0000031577  -0.0000022986   0.0000007483
        0.0000041822  -0.0000001613  -0.0000009541  -0.0000006091  -0.0000039144
        0.0000027128  -0.0000007785  -0.0000022295  -0.0000006306   0.0000016020
       -0.0000027234  -0.0000018465  -0.0000014127   0.0000011343   0.0000012997
       -0.0000030144   0.0000019579   0.0000050069  -0.0000006656   0.0000024896
        0.0000013506   0.0000024517   0.0000017756   0.0000049331  -0.0000017010
       -0.0000017378   0.0000033870   0.0000031352   0.0000034751  -0.0003063551
        0.0000700738  -0.0001555855
        0.0029700363  -0.0065335357  -0.0173690249   0.0182690587  -0.0018627034
       -0.1860372095   0.0052195966  -0.0013913684   0.4450293398  -0.0097301451
        0.0049224911  -0.0209493374  -0.0008325184  -0.0011186966  -0.0003811468
       -0.0008514477   0.0007621112   0.0001555142   0.0004651338   0.0001091128
        0.0001042892  -0.0003454087   0.0000237964  -0.0002157534   0.0001765751
       -0.0001608159   0.0001154191   0.0000212627   0.0002621354  -0.0000870352
       -0.0001121126  -0.0000462093  -0.0000399079   0.0000075585   0.0000265181
       -0.0000073948  -0.0000025783  -0.0000000425   0.0000113975  -0.0000033484
       -0.0000006352  -0.0000054093  -0.0000613782  -0.0000531728   0.0000056665
        0.0000489907   0.0001509323   0.0000166554   0.0000678013  -0.0000734046
       -0.0000055426   0.0000726336   0.0000575575   0.0000099088  -0.0000393568
       -0.0000334550   0.0000027750  -0.0000233405   0.0000197294   0.0000130360
       -0.0001157875  -0.0000356424   0.0000080827   0.0000367771   0.0000178753