94
 energy: -137.478516374221 gnorm: 0.000088475946 xtb: 6.7.1 (edcfbbe)
C           -3.37698047815488        1.89536867870533       -0.14798871137380
C           -3.90420734338345        0.66945727079563        0.04531219323081
C           -5.30481231931550        0.32634929246459        0.02790452360204
C           -6.32221857261693        1.22682510825635       -0.31361244164036
C           -7.64388942304894        0.84626855052044       -0.31735816918762
C           -8.01373895317002       -0.45647003286647        0.02721284158083
N           -9.35570047637506       -0.84016094935134        0.02692622268667
C           -9.71652664133317       -2.13528770154790       -0.36224962167275
C          -10.75359021427002       -2.80472181035666        0.28732734162679
C          -11.11001399017066       -4.08076631974851       -0.10287450403185
C          -10.43786650914739       -4.71245639168953       -1.13649048338187
C           -9.40497189353226       -4.05316889498298       -1.78280699875148
C           -9.04625176940252       -2.77388861523748       -1.40557401853119
C          -10.34592192492478        0.07022240068880        0.41426053495312
C          -10.11423834522652        0.96664903607742        1.45748495542677
C          -11.09341083534205        1.86569535813981        1.83227335315321
C          -12.31742127277997        1.88196106676179        1.18359157842384
C          -12.55442484121706        0.99023500073999        0.15024420088555
C          -11.57886679627210        0.09270713210813       -0.23753050038312
C           -7.00986009668093       -1.36555965941980        0.36871992613202
C           -5.68972783458247       -0.97926326099675        0.36252463815922
C           -1.98038981965285        2.24050409956634       -0.13405352461928
C           -0.94427870102966        1.30646947227780        0.01804800547635
C            0.37160431359777        1.69547258466664        0.02565621519458
C            0.74335789077231        3.04195289770584       -0.12865425583000
C            2.13201786628506        3.44132010929377       -0.12885812065205
C            2.57165262597415        4.59068812556133       -0.82379198983064
C            3.88377196619614        4.95599062092963       -0.84225412420364
C            4.88430963726495        4.18999056633952       -0.17428066620142
C            6.22102248515918        4.55892200142934       -0.25165063463802
C            7.34893673005949        3.82125492272639        0.22087782675490
C            7.54777833731662        2.44641675411337        0.13472721470789
C            6.71477109726890        1.58308893829575       -0.63673158698601
C            6.91530629214005        0.23334012767737       -0.65900319612152
C            7.96711987055627       -0.35572026057524        0.06423211020859
N            8.14677343844000       -1.73439117561956        0.05871522441020
C            7.03624238957139       -2.58416490391398        0.01458378448756
C            5.86550331255456       -2.25249400580930        0.69808014787181
C            4.76987769390819       -3.09105401470754        0.64646279165303
C            4.82262360374935       -4.27190691546484       -0.07687610390779
C            5.98413558072598       -4.60787580361454       -0.75361156647868
C            7.08348352223266       -3.77302736687934       -0.71454388232163
C            9.43595482244358       -2.27631313959460        0.09502031227622
C           10.47825551659659       -1.66432494553316       -0.60239635778039
C           11.75071765165414       -2.19879314069742       -0.55884891802622
C           12.00444865369047       -3.34908002540594        0.17101967727273
C           10.97180366409849       -3.96268325729535        0.86206387990362
C            9.69687172898882       -3.43324068208512        0.83031821371990
C            8.83969553978320        0.48354943706618        0.78181472735636
C            8.64503080781009        1.83395667349061        0.80656418748797
C            4.42187149909669        3.06844743700259        0.57868984039730
C            3.10711594180697        2.70961474625169        0.58232268265579
C           -0.29342477062290        3.97597873396313       -0.28750764569482
C           -1.60902721181094        3.58608354942792       -0.28571611399107
H           -4.04184614752641        2.73093584440354       -0.32538688476733
H           -3.24301126346253       -0.16279128600928        0.24817679384860
H           -6.07353451272254        2.23744242572440       -0.59784243715234
H           -8.40931401144387        1.55554630901810       -0.59764786696137
H          -11.27268531706900       -2.31791182871312        1.10006097982863
H          -11.91338582710818       -4.58884126605714        0.41014669889898
H          -10.71720312651693       -5.71105899658003       -1.43634057375797
H           -8.87936734407887       -4.53541288830106       -2.59392984092735
H           -8.24788701835365       -2.25750588682854       -1.91823251553103
H           -9.16440154298295        0.94860204208329        1.97161609340601
H          -10.90184814462461        2.55309329191359        2.64312795067855
H          -13.08109763466227        2.58431430616913        1.48130305751442
H          -13.50389266349860        0.99902533989994       -0.36469073685268
H          -11.76232544125136       -0.59484098829987       -1.05030685289411
H           -7.27908317144034       -2.37494757588577        0.64432290189839
H           -4.92952700878989       -1.69760480963991        0.63587542521781
H           -1.17949437236116        0.25784469144557        0.12053822956300
H            1.14042300078708        0.94199534988946        0.11539445526412
H            1.85457784292526        5.17260055783149       -1.38404996487422
H            4.19562264018668        5.82668363697858       -1.40242835055184
H            6.43692530133472        5.53458671267119       -0.67354477580192
H            8.15467431231051        4.40779072498310        0.64753792169294
H            5.93133616093991        2.01657926102844       -1.23792178549302
H            6.27579048939728       -0.39882073100669       -1.25856433142335
H            5.82751799120742       -1.33861411825113        1.27236971388722
H            3.87066799230012       -2.82484151008725        1.18202196343836
H            3.96468673537169       -4.92574072808225       -0.11297734852628
H            6.03195629785159       -5.52365035298813       -1.32410958593819
H            7.98358960621546       -4.03059552865342       -1.25335294827432
H           10.27749524579038       -0.77529830631569       -1.18203714899912
H           12.54846793414050       -1.71833595136452       -1.10574425456396
H           12.99998212102895       -3.76488551608344        0.20074256064710
H           11.16246406742684       -4.85653472876800        1.43744818902042
H            8.89530845789007       -3.90587869443760        1.37892356356967
H            9.65693706906160        0.04125023687567        1.33356288966152
H            9.31113136143317        2.46179718054558        1.38072148683067
H            5.13183533011461        2.52236772186225        1.18075370471385
H            2.79428423954160        1.87016954292709        1.18629424725450
H           -0.05586147344256        5.02548589376585       -0.37897509111022
H           -2.38429834239042        4.33223311326411       -0.39664119838925
