$hessian                                                                        
        0.7026680007  -0.1012300793   0.0109424564  -0.3446581654   0.1703804822
       -0.0252276153  -0.0658791475  -0.0034068362   0.0008220007   0.0038296225
        0.0104526392  -0.0016889297  -0.0047311628   0.0009303411   0.0002115262
        0.0036389445   0.0021770683  -0.0003573650  -0.0018269002  -0.0007038415
        0.0001188712   0.0003065949  -0.0002678452   0.0000847594   0.0000449927
        0.0000854850   0.0000640373   0.0000546262   0.0000305277   0.0000685437
       -0.0000258971  -0.0000041419  -0.0000166421   0.0000044673  -0.0000474953
       -0.0000959439  -0.0001940872  -0.0000111733   0.0000520918   0.0000458046
        0.0004245121  -0.0000782123  -0.0001300767  -0.0001208514  -0.0000333733
       -0.0000189938   0.0000347503   0.0000901125  -0.0000185213  -0.0000151795
        0.0000117121   0.0000558308   0.0000288678  -0.0000678810   0.0000713631
       -0.0000422065  -0.0000696428  -0.0050596851  -0.0036523139   0.0000321506
        0.0075444178  -0.0067748010   0.0012493794  -0.1876887217  -0.0539338155
        0.0101360926  -0.0153393225  -0.0304374849   0.0048568751   0.0102828902
       -0.0003754582  -0.0004932643  -0.0070977717  -0.0025549269   0.0005562770
        0.0030083927   0.0011848651  -0.0002691248  -0.0010835779   0.0004921691
        0.0001759298   0.0004287257   0.0004091930   0.0000020293  -0.0004612702
       -0.0001897303   0.0000355544   0.0003173792   0.0000505615  -0.0000450162
       -0.0001232182   0.0000840439   0.0000197235   0.0000196375  -0.0000549086
        0.0000132239   0.0000062068   0.0000127304  -0.0000096832  -0.0000064017
        0.0000027925   0.0000034483   0.0000255085  -0.0000762691   0.0000162115
       -0.0000344801   0.0000859065  -0.0000161049  -0.0000093903  -0.0000145177
        0.0000424277  -0.0000024747   0.0000002167  -0.0000097160  -0.0000011326
       -0.0000002980   0.0000092809  -0.0000025671   0.0000012468   0.0000010988
       -0.0000043864  -0.0000055132   0.0000095225  -0.0000057786   0.0000111915
       -0.0000091935   0.0000315556  -0.0000233375  -0.0000350171   0.0000013829
       -0.0000035371   0.0000198810   0.0000012665  -0.0000101003  -0.0000123724
       -0.0000034184   0.0000027551  -0.0000010310   0.0000013413  -0.0000037804
       -0.0000012929  -0.0000032478   0.0000078367   0.0000034657   0.0000016423
        0.0000099853  -0.0000226299  -0.0000065767   0.0000056429  -0.0000081737
        0.0005611839  -0.0000323836  -0.0000918784  -0.0004745738  -0.0011028166
        0.0000022739   0.0036452378   0.0096858075  -0.0010077875  -0.0559063267
        0.0024659314   0.0005341111  -0.0427791814   0.0014603159   0.0000281291
       -0.0013349301   0.0056164612  -0.0006130981  -0.0005415935   0.0000320066
       -0.0001416867   0.0000539263   0.0000999341  -0.0000654039   0.0000079649
       -0.0000222971   0.0000273901  -0.0000465116   0.0000111960  -0.0000056225
       -0.0000404007   0.0000270043   0.0000160594  -0.0000159681   0.0000345644
        0.0000490016  -0.0000173473   0.0000147648  -0.0000453119  -0.0000023372
       -0.0000193025   0.0000439276   0.0000082993  -0.0000357358  -0.0000466767
       -0.0000103501  -0.0000419963  -0.0000151552  -0.0000253904  -0.0000360170
        0.0000094208  -0.0000149607   0.0000251159  -0.0000304769  -0.0003359270
       -0.0001510742   0.0000601913   0.0000611603   0.0001142875   0.0001593547
       -0.0003609922   0.0009074694  -0.0000995088   0.0000666409   0.0001529382
       -0.0000704693   0.0000154603  -0.0000129242  -0.0000163952   0.0000040569
       -0.0000079320   0.0000492710  -0.0000119173  -0.0000293658  -0.0000377384
       -0.0000181217   0.0000025055   0.0000226566  -0.0000025886   0.0000074381
        0.0000097729   0.0000038516  -0.0000004076   0.0000080480   0.0000028561
        0.0000017291   0.0000011016  -0.0000010208  -0.0000008657  -0.0000032874
        0.0000004249   0.0000020883  -0.0000051094   0.0000019151   0.0000027830
       -0.0000001203   0.0000013965  -0.0000020893  -0.0000021342  -0.0000054744
        0.0000092377  -0.0000050429   0.0000008363   0.0000008859   0.0000000312
       -0.0000026397   0.0000060491   0.0000033488  -0.0000051864   0.0000058764
       -0.0000004341  -0.0000020218   0.0000017723  -0.0000026609  -0.0000070269
        0.0000052372   0.0000058700  -0.0000032977  -0.0000011286   0.0000060188
       -0.0000147195   0.0000012196  -0.0000430733  -0.0000115227  -0.0000228985
       -0.0000127159  -0.0011180247  -0.0003579400   0.0001213930   0.0007009218
       -0.0017628131   0.0001239584
       -0.1012300793   0.6049392733  -0.0780395396   0.1701309643  -0.1836123902
        0.0225269748   0.0024041684   0.0131045958  -0.0021660970  -0.0025455315
       -0.0037302964   0.0006630247   0.0017339394  -0.0000796674  -0.0001319926
       -0.0008239307   0.0001242502  -0.0000995610   0.0001075004  -0.0000075424
        0.0000043059   0.0000387224  -0.0000383740  -0.0000173173  -0.0000107817
       -0.0000171952   0.0000129543  -0.0000063186  -0.0000219852  -0.0000336273
       -0.0000218604   0.0000163137   0.0000093214   0.0000390724  -0.0000194443
        0.0000097451  -0.0000086439   0.0000128254  -0.0000054992   0.0000325025
        0.0001844396   0.0000798148   0.0000502878  -0.0000334579   0.0000060131
        0.0000281008   0.0000307151  -0.0000054811   0.0000015483  -0.0000443949
       -0.0000212464  -0.0000222546   0.0000425120   0.0000502338  -0.0000363877
       -0.0000400288  -0.0000049232   0.0002878175   0.0012483322  -0.0001044831
       -0.0049580828   0.0001163555   0.0003662560  -0.0815365871  -0.1062147666
        0.0097859389  -0.0288181638  -0.0179743939   0.0031517730   0.0005339051
       -0.0052832766   0.0017931334  -0.0003032007  -0.0006435496   0.0000812850
        0.0000545235   0.0000013721  -0.0002674306   0.0000548031   0.0001739697
       -0.0000246995  -0.0000159088   0.0000071945   0.0000668521  -0.0000495874
        0.0000224565   0.0000114777  -0.0000033556  -0.0000524202   0.0000265678
       -0.0000254139   0.0000733177   0.0000202617   0.0000039091  -0.0000303409
       -0.0000198013   0.0000209629   0.0000260230   0.0000129996   0.0000358414
       -0.0000329118  -0.0000319231  -0.0000333680   0.0002001815  -0.0000479873
        0.0000427346  -0.0002114381   0.0000512509   0.0000307310   0.0000410091
       -0.0001047355   0.0000041132   0.0000060130   0.0000323603  -0.0000010583
        0.0000073256  -0.0000181580  -0.0000019594  -0.0000032558   0.0000008793
        0.0000034470   0.0000157928  -0.0000107270   0.0000000958  -0.0000171363
        0.0000201560  -0.0000518836   0.0000472556   0.0000684668  -0.0000104070
        0.0000028060  -0.0000292141  -0.0000004615   0.0000093792   0.0000122607
        0.0000029561  -0.0000049901   0.0000030333  -0.0000067396   0.0000104993
        0.0000046935   0.0000064661  -0.0000202979  -0.0000102853  -0.0000113263
       -0.0000427652   0.0000648233  -0.0000424640   0.0000141960   0.0000154053
        0.0000434949  -0.0000237704  -0.0000553618   0.0000415915  -0.0001487645
       -0.0000535813   0.0036965227  -0.0010161601   0.0011193838   0.0120771286
        0.0069689910  -0.0010379546   0.0015258155  -0.2859796909   0.0393259087
        0.0277467229  -0.0223401276   0.0035909392  -0.0024573060  -0.0009288654
        0.0003454078  -0.0000459329  -0.0000307182   0.0000304146   0.0000052910
        0.0000057079  -0.0000183829   0.0000050751  -0.0000033047  -0.0000081256
        0.0000086128  -0.0000063006   0.0000010045   0.0000085236   0.0000001954
       -0.0000058100   0.0000179786  -0.0000047577   0.0000002581   0.0000005328
        0.0000272030  -0.0000098675   0.0000049359   0.0000024652  -0.0000073059
       -0.0000055869   0.0000124646  -0.0000080645   0.0000068564  -0.0000019418
        0.0000043964   0.0000057963   0.0000075220   0.0000080520  -0.0002397366
       -0.0000508516  -0.0000357942  -0.0002951533   0.0000186718  -0.0000544759
        0.0001729443   0.0010337777  -0.0005211097  -0.0012104677  -0.0006414880
        0.0001249391  -0.0000482608  -0.0000052634   0.0000373073   0.0000317723
       -0.0000029681  -0.0000219813   0.0000259951   0.0000234287  -0.0000142139
        0.0000225350  -0.0000011747  -0.0000117156  -0.0000010111  -0.0000083799
       -0.0000211518  -0.0000123546  -0.0000013095  -0.0000014282  -0.0000088608
       -0.0000048713  -0.0000016752   0.0000000111   0.0000019074   0.0000036767
       -0.0000008061  -0.0000026482   0.0000090347  -0.0000047611  -0.0000098967
        0.0000047167  -0.0000000853   0.0000004836  -0.0000042875   0.0000053406
       -0.0000016123   0.0000054122  -0.0000020469   0.0000012169  -0.0000032145
        0.0000038834  -0.0000056690  -0.0000060077   0.0000065563  -0.0000055828
        0.0000005312   0.0000010269  -0.0000003229   0.0000039163   0.0000112900
       -0.0000106088  -0.0000079421   0.0000013349   0.0000028727  -0.0000075331
        0.0000212757   0.0000408283   0.0000207089  -0.0000077361   0.0000467934
        0.0000321274   0.0010430169   0.0001332906  -0.0000363536   0.0027248886
        0.0006071445  -0.0004723303
        0.0109424564  -0.0780395396   0.1209377199  -0.0247595665   0.0225615376
       -0.0386509641  -0.0001633585  -0.0022777953  -0.0000920278   0.0003995057
        0.0007374332   0.0001048975  -0.0002237558  -0.0000529885  -0.0001547374
        0.0000341031  -0.0000891522  -0.0001077328   0.0000593279   0.0000728853
        0.0000385614   0.0000175048  -0.0000043457   0.0000053551  -0.0000063127
       -0.0000017178  -0.0000022060   0.0000048239   0.0000028655   0.0000008094
        0.0000038454  -0.0000009848   0.0000019707  -0.0000055692   0.0000056886
        0.0000001670  -0.0000105234  -0.0000004817  -0.0000060586  -0.0000120011
       -0.0000832211  -0.0000381100   0.0000034828   0.0000265015  -0.0000044060
       -0.0000026724  -0.0000086746  -0.0000068578  -0.0000010641   0.0000104909
        0.0000074190   0.0000018252  -0.0000151056  -0.0000093205   0.0000172441
        0.0000162129   0.0000042820   0.0000206901  -0.0001043437   0.0003413827
        0.0006548575   0.0004009026   0.0021154671   0.0144919811   0.0094448228
       -0.0519653123   0.0044678602   0.0031063862  -0.0003334783   0.0000198876
        0.0017296444   0.0063299518   0.0000124824   0.0002994137  -0.0001473397
       -0.0000612160  -0.0002381027  -0.0015734421   0.0002770074   0.0000476114
       -0.0000347713  -0.0000291262  -0.0001510328   0.0000165215  -0.0000141165
        0.0000788837   0.0000431430  -0.0000089052   0.0000153201  -0.0000101206
        0.0000029782  -0.0000139565  -0.0000036825  -0.0000016022   0.0000067497
        0.0000027974  -0.0000007525  -0.0000056901  -0.0000030696  -0.0000029306
        0.0000055311   0.0000028615   0.0000074113  -0.0000320355   0.0000075752
       -0.0000087205   0.0000347192   0.0000094745  -0.0000047792  -0.0000011729
        0.0000002187  -0.0000013605   0.0000001767  -0.0000024643   0.0000000486
        0.0000004213   0.0000010740  -0.0000005189   0.0000003567   0.0000013706
       -0.0000009730  -0.0000021064  -0.0000014278  -0.0000008262  -0.0000009470
       -0.0000023500   0.0000088436  -0.0000152743  -0.0000202722   0.0000013838
        0.0000011790   0.0000068651  -0.0000012485  -0.0000005259  -0.0000046622
       -0.0000000236   0.0000008601  -0.0000001224   0.0000015856  -0.0000026446
       -0.0000022429  -0.0000027624   0.0000067198   0.0000027407   0.0000006306
        0.0000080877  -0.0000086503   0.0000079439  -0.0000039404  -0.0000019852
        0.0001118803  -0.0000833937   0.0000306886  -0.0002631644  -0.0001048559
        0.0000154929  -0.0004077448   0.0010196723   0.0068074033  -0.0008958749
       -0.0007431050   0.0017613340  -0.0002329488   0.0394138177  -0.0414355157
       -0.0044652130   0.0037375887   0.0006065942   0.0004755800   0.0001572528
        0.0000963147  -0.0000006201   0.0000103168   0.0000427073   0.0000021472
        0.0000008474   0.0000056456   0.0000010819   0.0000014446   0.0000020097
       -0.0000002157   0.0000006898   0.0000009423  -0.0000032114   0.0000029592
        0.0000031343  -0.0000008860   0.0000007532  -0.0000003173   0.0000015817
       -0.0000118508   0.0000053025  -0.0000012579   0.0000059513   0.0000091556
       -0.0000003939  -0.0000017688   0.0000031873  -0.0000036787   0.0000002134
        0.0000008148  -0.0000061742  -0.0000018629   0.0000039619   0.0000422159
       -0.0000287717  -0.0001605551   0.0000494930  -0.0000384986  -0.0000908295
       -0.0000757009  -0.0005422458  -0.0023464463   0.0001957129   0.0001140430
        0.0000650680   0.0000093974   0.0000336397  -0.0000205253   0.0000039736
        0.0000122377  -0.0000062921  -0.0000034755  -0.0000020789   0.0000030193
       -0.0000039516  -0.0000000190   0.0000018973  -0.0000007972   0.0000029955
        0.0000032810   0.0000013697  -0.0000015555   0.0000011695   0.0000016523
        0.0000009644   0.0000002703   0.0000010536   0.0000001789   0.0000008604
        0.0000007447  -0.0000003506   0.0000005659   0.0000007825   0.0000004503
       -0.0000004462   0.0000004512   0.0000004965   0.0000012141  -0.0000005805
       -0.0000014176  -0.0000015525   0.0000007408  -0.0000002857   0.0000030539
       -0.0000008541   0.0000013151   0.0000018724  -0.0000007732   0.0000005926
        0.0000003433   0.0000009545  -0.0000004886   0.0000003800  -0.0000025728
        0.0000017357   0.0000015340  -0.0000014633  -0.0000005737   0.0000019147
       -0.0000167730  -0.0000057102  -0.0000082522  -0.0000269231   0.0000144307
       -0.0000203292  -0.0001545933  -0.0000262440  -0.0000102254  -0.0004659957
       -0.0004151321  -0.0021746575
       -0.3446581654   0.1701309643  -0.0247595665   0.7030436832  -0.1002187596
        0.0134735630  -0.1886157765  -0.0544021181   0.0088332952  -0.0157666065
       -0.0308662009   0.0053036509   0.0106705101  -0.0005835941  -0.0007024666
       -0.0074455342  -0.0026685312   0.0002672119   0.0030188493   0.0012055533
       -0.0000968906  -0.0004599922   0.0004053910  -0.0001545348  -0.0000208685
       -0.0001274347  -0.0000745586  -0.0001123871  -0.0000380324  -0.0000968035
        0.0000198680   0.0000092965   0.0000138607   0.0000313902   0.0000170991
        0.0001111950   0.0002739023  -0.0000021407  -0.0000693156  -0.0000333260
       -0.0005503245   0.0002201775   0.0002458435   0.0001871805   0.0000544126
        0.0000430116  -0.0000255640  -0.0001380891   0.0000241201  -0.0000004735
       -0.0000361788  -0.0001062685  -0.0000254070   0.0001275614  -0.0001274236
        0.0000361597   0.0000907617   0.0038067482   0.0099998992  -0.0010494999
       -0.0564977509   0.0023274099  -0.0006663123  -0.0651607715  -0.0031996023
        0.0010953612   0.0036876277   0.0100326283  -0.0016191517  -0.0044048387
        0.0007366442   0.0002391549   0.0032855056   0.0020506045  -0.0003812800
       -0.0017029181  -0.0006542449   0.0001406721   0.0006294844  -0.0002493639
       -0.0000844353  -0.0002412515  -0.0002339943   0.0000192181   0.0002666155
        0.0001091559  -0.0000331843  -0.0002005518  -0.0000556122   0.0000382228
        0.0000621249  -0.0000257418  -0.0000016165  -0.0000111213   0.0000273764
       -0.0000171194   0.0000053386  -0.0000040156   0.0000072560   0.0000106782
       -0.0000163184  -0.0000101953  -0.0000286820   0.0001162026  -0.0000311552
        0.0000357736  -0.0001326446   0.0000211087   0.0000126260   0.0000229518
       -0.0000622048   0.0000027110   0.0000038175   0.0000197451  -0.0000027627
        0.0000008414  -0.0000111032   0.0000019662   0.0000024100  -0.0000033486
        0.0000034207   0.0000092793  -0.0000075650   0.0000019382  -0.0000138662
        0.0000103371  -0.0000408145   0.0000413928   0.0000543358  -0.0000063657
        0.0000068355  -0.0000224515  -0.0000017345   0.0000120949   0.0000055455
        0.0000021945   0.0000013670   0.0000069417  -0.0000103134   0.0000145950
        0.0000019794   0.0000051695  -0.0000136641  -0.0000111855  -0.0000082087
       -0.0000153993   0.0000386941  -0.0000166978   0.0000016647   0.0000152002
       -0.0003459695   0.0000011564   0.0000278252   0.0003318185   0.0006283001
        0.0000184517  -0.0049947476  -0.0032638234   0.0003321701   0.0071194621
       -0.0066913564   0.0009217086  -0.0013475858   0.0054768302  -0.0010997436
       -0.0427562109   0.0012312793  -0.0005441330  -0.0004069518   0.0010886242
        0.0001436735   0.0000799965   0.0001427221   0.0000584989  -0.0000105534
        0.0000524090  -0.0000393338   0.0000548610  -0.0000094574   0.0000147839
        0.0000412838  -0.0000314989  -0.0000283876   0.0000106073  -0.0000549102
       -0.0000638742  -0.0000427712  -0.0000229419   0.0000083978  -0.0000582904
        0.0000050179  -0.0000257598  -0.0000231878   0.0000523281   0.0000678061
        0.0000119815   0.0000645790   0.0000222083   0.0000360481   0.0000458049
       -0.0000196818   0.0000282025  -0.0000320309   0.0000319212  -0.0011082553
       -0.0003660833  -0.0000304847   0.0006842495  -0.0018406086   0.0001855524
       -0.0006152536   0.0001027768  -0.0001001604   0.0000651640   0.0001396756
       -0.0000259608   0.0000124179  -0.0000232966  -0.0000332447   0.0000018342
       -0.0000046067  -0.0000402556   0.0000122205   0.0000308611   0.0000178220
        0.0000196477   0.0000014561  -0.0000203094  -0.0000023025  -0.0000028885
       -0.0000096328  -0.0000081408  -0.0000026584  -0.0000026459  -0.0000055017
       -0.0000000086  -0.0000002876  -0.0000015135   0.0000048217   0.0000042439
       -0.0000043376  -0.0000002203   0.0000071134  -0.0000071906  -0.0000020014
        0.0000028373  -0.0000044834   0.0000039750   0.0000006209   0.0000019849
       -0.0000049133   0.0000031012  -0.0000035022  -0.0000002677   0.0000001134
        0.0000013115  -0.0000044052  -0.0000059713   0.0000048536  -0.0000054215
        0.0000016220  -0.0000011827  -0.0000009159   0.0000053365   0.0000064701
       -0.0000067074  -0.0000087892   0.0000016814   0.0000058015  -0.0000081872
        0.0000134685   0.0000169816   0.0000367637  -0.0000094985   0.0000176914
        0.0000119532  -0.0003293989  -0.0001617354   0.0000287612   0.0000372950
        0.0000338991   0.0000843072
        0.1703804822  -0.1836123902   0.0225615376  -0.1002187596   0.6051220486
       -0.0794410614  -0.0822739414  -0.1064258305   0.0093761898  -0.0289286958
       -0.0182700760   0.0029347267   0.0009005203  -0.0051047644   0.0020001006
       -0.0014025146  -0.0012900614   0.0003148478   0.0014674650   0.0006171416
       -0.0004066389  -0.0004100853   0.0004192648   0.0000054879   0.0000923312
       -0.0000363866  -0.0000529716  -0.0000743697   0.0000317049   0.0000259468
        0.0000303491  -0.0000158859  -0.0000054988  -0.0000624690   0.0000550766
        0.0000668228   0.0000781816  -0.0000856224  -0.0000769382  -0.0000622200
       -0.0006165432  -0.0000403125  -0.0000303209   0.0001729147   0.0000860080
       -0.0000302859  -0.0000766673  -0.0000381829   0.0000128519   0.0000525351
        0.0000105047  -0.0000174127  -0.0000725993  -0.0000214012   0.0000701817
        0.0001295192   0.0000178185   0.0037659645  -0.0005404669   0.0015230723
        0.0115274628   0.0067966263  -0.0009251920   0.0022627144   0.0129634016
       -0.0022012110  -0.0025572470  -0.0038080244   0.0006585884   0.0018623014
       -0.0000668629  -0.0001339705  -0.0011402644  -0.0000144719   0.0000160993
        0.0005175914   0.0002335204  -0.0000361073  -0.0001774290   0.0000311331
        0.0000157190   0.0000855256   0.0000699819  -0.0000053007  -0.0000750711
       -0.0000310070   0.0000055599   0.0000497268   0.0000118040  -0.0000074409
       -0.0000176117   0.0000104684   0.0000020551   0.0000029770  -0.0000093648
        0.0000053431   0.0000002255   0.0000074403  -0.0000068552  -0.0000056137
       -0.0000029203   0.0000039092   0.0000037012  -0.0000071462   0.0000000295
       -0.0000033696   0.0000081881  -0.0000011435  -0.0000010762  -0.0000016956
        0.0000059336   0.0000000454   0.0000008385   0.0000004454   0.0000000064
        0.0000006001   0.0000006641  -0.0000002488   0.0000006555  -0.0000006568
       -0.0000001767   0.0000001823   0.0000022210  -0.0000012367   0.0000011596
       -0.0000017337   0.0000042628  -0.0000030609  -0.0000051261  -0.0000010393
        0.0000005822   0.0000029382  -0.0000002425  -0.0000011151  -0.0000031978
       -0.0000007788   0.0000011385   0.0000008459  -0.0000007564   0.0000005908
       -0.0000007050  -0.0000004421   0.0000013536  -0.0000002570   0.0000026045
        0.0000026977  -0.0000058052  -0.0000029194   0.0000070992  -0.0000004550
        0.0000995682   0.0000004513  -0.0000036071  -0.0000999226  -0.0001354063
        0.0000366885   0.0002943676   0.0013074322  -0.0000658364  -0.0048568108
        0.0001237220   0.0003929167   0.0277878355  -0.0223507181   0.0035340937
        0.0015028003  -0.2856601385   0.0406889911   0.0002075188   0.0009749915
       -0.0006328002  -0.0011976585  -0.0006210841   0.0001380831  -0.0000037589
        0.0000142380   0.0000107357   0.0000280902   0.0000006147   0.0000175741
        0.0000218859  -0.0000102729  -0.0000183220  -0.0000031956  -0.0000259069
       -0.0000288564  -0.0000294607   0.0000056755   0.0000375312  -0.0000198447
       -0.0000330958   0.0000054614  -0.0000181635   0.0000149054   0.0000280262
        0.0000098928   0.0000185687   0.0000153352   0.0000089861   0.0000238989
       -0.0000201445   0.0000062483  -0.0000228067  -0.0000074768   0.0010039732
        0.0001880149   0.0000294273   0.0026794439   0.0005688251  -0.0004917576
       -0.0024907959  -0.0009909970   0.0001824680  -0.0000376918  -0.0000244103
        0.0000027834   0.0000130935   0.0000083536  -0.0000099637  -0.0000032497
       -0.0000039445   0.0000058037  -0.0000059182  -0.0000090603  -0.0000060439
       -0.0000011823   0.0000008212   0.0000057532  -0.0000008045   0.0000002973
        0.0000036543   0.0000006840  -0.0000010283   0.0000009478   0.0000008473
       -0.0000008624   0.0000002350  -0.0000000294  -0.0000004586  -0.0000008829
       -0.0000000115  -0.0000001405  -0.0000005013  -0.0000003978  -0.0000001321
       -0.0000000292  -0.0000007045  -0.0000002899  -0.0000003250  -0.0000012115
        0.0000009225  -0.0000011445   0.0000002492   0.0000006291   0.0000010221
       -0.0000000576   0.0000012005   0.0000001325  -0.0000002691   0.0000007316
       -0.0000000157  -0.0000002345   0.0000002970  -0.0000001295  -0.0000009672
        0.0000017132   0.0000016412  -0.0000000596  -0.0000008151   0.0000011157
       -0.0000039892  -0.0000040446  -0.0000165998   0.0000096033  -0.0000187693
       -0.0000210347  -0.0002335009  -0.0000485473  -0.0000077299  -0.0002860718
        0.0000499210  -0.0000324723
       -0.0252276153   0.0225269748  -0.0386509641   0.0134735630  -0.0794410614
        0.1222447407   0.0132679013   0.0098608921  -0.0511254202   0.0051667915
        0.0028143942  -0.0007818328   0.0000636918   0.0021959244   0.0057140627
        0.0002179395   0.0002337056   0.0002520949  -0.0001540697  -0.0003989613
       -0.0012247108   0.0000944221   0.0001460098  -0.0001526465   0.0000452640
       -0.0000157095   0.0000178103  -0.0000168420   0.0000091723   0.0000567100
       -0.0000519490  -0.0000106723  -0.0000422102   0.0000629102  -0.0000579189
       -0.0000019640  -0.0000947020  -0.0000166399   0.0000954156  -0.0001698911
        0.0002136265  -0.0001328881   0.0000787867   0.0000056163   0.0000618324
        0.0000081098  -0.0000488941   0.0000151482   0.0000302922   0.0000035576
       -0.0000459681   0.0000172550   0.0000413926   0.0000633226  -0.0000342755
       -0.0000681742   0.0000081514  -0.0011526676   0.0011893905   0.0062080456
       -0.0022409309  -0.0013505394   0.0011443006   0.0002418656  -0.0021212389
       -0.0004781614   0.0003537263   0.0005024843   0.0001625490  -0.0002480719
       -0.0000301439  -0.0001900987   0.0001429571  -0.0000202988  -0.0000985961
       -0.0000886339  -0.0000362855   0.0000512904   0.0000259862  -0.0000125428
        0.0000025619  -0.0000249420  -0.0000085002  -0.0000008670   0.0000094440
        0.0000116312   0.0000027785  -0.0000063661  -0.0000020273   0.0000052601
        0.0000035813  -0.0000003917   0.0000010662  -0.0000008765   0.0000027500
       -0.0000020267   0.0000015546  -0.0000020530   0.0000009368   0.0000028220
       -0.0000003714  -0.0000018325  -0.0000003128   0.0000036763  -0.0000005169
        0.0000003766  -0.0000044310   0.0000087669   0.0000006739   0.0000033722
       -0.0000106792  -0.0000004896   0.0000003573   0.0000013294  -0.0000001634
        0.0000007699  -0.0000012902  -0.0000003427  -0.0000001887   0.0000011338
       -0.0000002320   0.0000001588  -0.0000022757   0.0000001616  -0.0000016506
        0.0000011587  -0.0000013350  -0.0000015094  -0.0000011022   0.0000000573
        0.0000005811   0.0000004180  -0.0000007871   0.0000009070  -0.0000007740
        0.0000005158  -0.0000005216  -0.0000000480   0.0000002460  -0.0000000232
        0.0000002926  -0.0000008322   0.0000009476   0.0000000013  -0.0000012795
       -0.0000004125   0.0000028700   0.0000001708  -0.0000016774   0.0000004383
       -0.0000110952   0.0000016489  -0.0000048578   0.0000321892   0.0000070276
       -0.0000071137   0.0000131738  -0.0001073033   0.0003552965   0.0007566640
        0.0003831767   0.0020894303  -0.0043670837   0.0037380189   0.0005646200
       -0.0002848288   0.0406038753  -0.0420779041   0.0000754298  -0.0006235715
       -0.0022190820   0.0001992783   0.0001937292   0.0001636384   0.0000043664
        0.0000038430  -0.0000011010  -0.0000019962   0.0000014853  -0.0000006515
        0.0000003477   0.0000090244  -0.0000023258  -0.0000024621   0.0000028321
        0.0000129709  -0.0000112685   0.0000110986  -0.0000052771   0.0000066491
        0.0000288806  -0.0000050527   0.0000055174  -0.0000018767   0.0000019353
       -0.0000093226   0.0000013386  -0.0000070674  -0.0000024369  -0.0000040920
        0.0000042792  -0.0000071928   0.0000045929   0.0000016710  -0.0002144986
        0.0000320525   0.0001148589  -0.0004528605  -0.0005757864  -0.0020736145
        0.0003900479   0.0001937178   0.0001332594   0.0000086471   0.0000120680
        0.0000384214  -0.0000050800   0.0000028006   0.0000034483  -0.0000024451
        0.0000017887  -0.0000013237   0.0000013083   0.0000012781   0.0000000956
        0.0000004548  -0.0000003799  -0.0000019134  -0.0000003211   0.0000007161
       -0.0000013218  -0.0000005142  -0.0000007222   0.0000001353  -0.0000000711
        0.0000003140  -0.0000001605   0.0000005729   0.0000004179   0.0000010010
        0.0000002030  -0.0000003861   0.0000011453  -0.0000000670  -0.0000004532
        0.0000002945   0.0000002104   0.0000002664   0.0000002563   0.0000002662
       -0.0000008125  -0.0000003488   0.0000001005  -0.0000000804   0.0000008777
       -0.0000001295   0.0000000315   0.0000002950   0.0000002662  -0.0000003846
        0.0000000914   0.0000005873  -0.0000003302   0.0000006058   0.0000001190
       -0.0000004386  -0.0000003990  -0.0000006112   0.0000002576  -0.0000000252
        0.0000023728   0.0000038663   0.0000019392  -0.0000006254   0.0000080439
        0.0000056100   0.0000419287  -0.0000220828  -0.0001640704   0.0000407511
       -0.0000249445  -0.0001001797
       -0.0658791475   0.0024041684  -0.0001633585  -0.1886157765  -0.0822739414
        0.0132679013   0.6191339821   0.0026643663   0.0045388861  -0.0876949940
       -0.0466138944   0.0084596307   0.0000110575  -0.0300473855   0.0066468894
        0.0024489580   0.0245564588  -0.0050989290  -0.0036514245  -0.0024041984
        0.0008739308   0.0003970193  -0.0002453514   0.0004478061   0.0003719256
        0.0000874476   0.0001072354   0.0000968036   0.0001644502   0.0002684447
       -0.0000749825  -0.0000971352  -0.0001417403   0.0001333471  -0.0001518407
       -0.0000985065  -0.0007023228  -0.0000862012   0.0001192430   0.0001099721
        0.0010709639  -0.0003794744  -0.0001354540  -0.0001397541   0.0001365562
       -0.0000306863  -0.0001427741   0.0001572095   0.0000878114   0.0000837220
       -0.0000861415   0.0001208818   0.0001465376  -0.0000551548   0.0000667587
       -0.0001612013  -0.0000870023  -0.0660026890  -0.0160719611   0.0001918949
       -0.2097974440   0.1291245405  -0.0257772457   0.0100104971   0.0072966287
       -0.0012548333  -0.0013642361  -0.0032242594   0.0005326697   0.0018013781
       -0.0000940063  -0.0001238637  -0.0012695044  -0.0007101348   0.0001433173
        0.0007506338   0.0002766227  -0.0000566035  -0.0002787894   0.0001038543
        0.0000535875   0.0001091768   0.0001006921  -0.0000167694  -0.0001116685
       -0.0000545356   0.0000113369   0.0000943376   0.0000312831  -0.0000207870
       -0.0000254727   0.0000057532  -0.0000004594   0.0000054831  -0.0000104275
        0.0000090910  -0.0000035543   0.0000004828  -0.0000056310  -0.0000056404
        0.0000089948   0.0000029325   0.0000189317  -0.0000661108   0.0000184051
       -0.0000245695   0.0000736161  -0.0000111109  -0.0000055549  -0.0000123371
        0.0000346425  -0.0000010703  -0.0000014372  -0.0000111082   0.0000022298
       -0.0000003911   0.0000069561  -0.0000008867  -0.0000020915   0.0000015299
       -0.0000016953  -0.0000049899   0.0000040625  -0.0000015712   0.0000082395
       -0.0000062801   0.0000253882  -0.0000247288  -0.0000335416   0.0000043614
       -0.0000052111   0.0000136031   0.0000008094  -0.0000076022  -0.0000046774
       -0.0000010872  -0.0000008134  -0.0000050794   0.0000062586  -0.0000086607
       -0.0000020734  -0.0000026614   0.0000075644   0.0000060732   0.0000037693
        0.0000114284  -0.0000229757   0.0000131449  -0.0000051209  -0.0000098845