$hessian                                                                        
        0.5646808501   0.0503706733   0.0151750510  -0.1024333251  -0.0954473790
        0.0143081711  -0.0459702523  -0.0374929200   0.0045937228   0.0085124563
       -0.0054611022   0.0016931799  -0.0032322490  -0.0037067349   0.0003873447
        0.0039402770   0.0002161962   0.0003405439  -0.0008151623  -0.0002035086
       -0.0000574849  -0.0000437712  -0.0002760888  -0.0001632022   0.0003353192
        0.0000604608  -0.0001106018   0.0001064913  -0.0000761793  -0.0001777075
        0.0000022734   0.0000677563   0.0000375050  -0.0001319530  -0.0000642359
        0.0001147064  -0.0003779076   0.0000647724   0.0001063199  -0.0000957590
        0.0001472798   0.0001249431  -0.0002648631  -0.0002218901  -0.0001142391
       -0.0001426724  -0.0000055909  -0.0001291813   0.0000433476  -0.0000483506
       -0.0000265291   0.0000590651   0.0001010228   0.0001675813   0.0002829322
        0.0001423276   0.0001010818  -0.0067516791  -0.0000890066   0.0002158476
        0.0015838633   0.0092966533  -0.0024075721  -0.2189619387  -0.0362620049
       -0.0025800168  -0.0560678951   0.0116004969  -0.0044229159   0.0112730254
        0.0142073248  -0.0033935154  -0.0202803299  -0.0054243187   0.0000080054
        0.0144384987   0.0036945545   0.0006071854  -0.0026618451  -0.0042882066
        0.0000941891   0.0018272011   0.0008422865  -0.0003324655   0.0013069028
        0.0016977467   0.0023800621  -0.0098411668   0.0056104965  -0.0045413007
        0.0096431854  -0.0120909691   0.0041423374  -0.0002217520   0.0103510538
       -0.0017223580  -0.0026082063  -0.0033304420  -0.0017559190  -0.0014901547
        0.0016759047  -0.0001803299  -0.0003626954  -0.0018413617  -0.0004441995
        0.0000156798  -0.0001193151  -0.0000243633   0.0004015503   0.0002659926
        0.0001177640  -0.0002592036   0.0000752788   0.0000439186   0.0000916054
        0.0001380891   0.0000396536  -0.0000605222  -0.0000519958  -0.0000140486
        0.0001263891   0.0000201643  -0.0000614576  -0.0000160909  -0.0002427951
       -0.0000701389  -0.0004268839   0.0001178227  -0.0001420213   0.0001873230
        0.0001727486  -0.0000186713  -0.0000573923   0.0000987904  -0.0000352073
        0.0000773016  -0.0000127901  -0.0000142401  -0.0001467592  -0.0000141356
        0.0000746551   0.0000836849  -0.0002270611   0.0000666568   0.0009462868
        0.0032022518   0.0011221571   0.0034606471  -0.0034672361   0.0014020484
        0.0032112623   0.0001342760   0.0001201280  -0.0057563060   0.0019538708
       -0.0009701188   0.0177603541  -0.0038614454   0.0025864075  -0.0323658757
       -0.0354253677   0.0038801144  -0.1372147057   0.1178188709  -0.0264114433
        0.0069613743   0.0173203374  -0.0039669796  -0.0017903187  -0.0008334608
       -0.0000995210   0.0000696374  -0.0000649925   0.0001349382  -0.0000177074
        0.0000282264  -0.0000440329  -0.0000375669  -0.0000365361   0.0000102088
       -0.0000086294  -0.0000463566  -0.0000156304   0.0000248773  -0.0000546768
       -0.0000476037   0.0000427971  -0.0000181658   0.0000234226   0.0000294514
        0.0000214855  -0.0000142845  -0.0000106994   0.0000608511   0.0000585113
       -0.0000355837   0.0000313610   0.0000197148  -0.0000518381   0.0000076393
       -0.0000079048   0.0000013927  -0.0000388335   0.0000501904  -0.0003825138
       -0.0000885480  -0.0001042550  -0.0000321142  -0.0001856463  -0.0001178296
        0.0006488015  -0.0011865275   0.0007458454  -0.0007491210  -0.0001234664
        0.0000033065  -0.0000290988   0.0000133365  -0.0000090385  -0.0000133633
        0.0001818986   0.0002538664   0.0001578534  -0.0009970799  -0.0024029954
       -0.0010832183  -0.0003198308   0.0026021433   0.0001447919  -0.0000465445
       -0.0001971920   0.0000088843  -0.0000173342  -0.0000838100   0.0000323736
        0.0000009873  -0.0000002426   0.0000058134  -0.0000012693   0.0000183387
       -0.0000004647  -0.0000132160  -0.0000036279   0.0000012363   0.0000034350
       -0.0000008224  -0.0000008490   0.0000043357  -0.0000145774  -0.0000292794
       -0.0000056206  -0.0000036881  -0.0000075632  -0.0000013658  -0.0000006551
       -0.0000007082  -0.0000022097  -0.0000015591  -0.0000009990   0.0000037603
        0.0000028225  -0.0000011019   0.0000009662   0.0000197905  -0.0000381257
        0.0000010027   0.0001002657   0.0000047241   0.0000104677  -0.0000428382
        0.0000238732  -0.0000293596  -0.0000562291  -0.0000278031  -0.0000900260
       -0.0000266504  -0.0002322680  -0.0000300992  -0.0000073880   0.0010845977
        0.0021483446  -0.0005040418
        0.0503706733   0.7020571422  -0.1005294173  -0.0999478324  -0.3765999039
        0.0571698610  -0.0496451439  -0.0185898834   0.0007011671   0.0123611436
       -0.0060818016   0.0021090989  -0.0043906605  -0.0045221400   0.0002698665
        0.0039453971   0.0008197475   0.0000448470  -0.0006606012  -0.0002612384
       -0.0000006216  -0.0000422914  -0.0003498653  -0.0001272891   0.0003377407
        0.0001397703  -0.0000990642   0.0000805835  -0.0000870470  -0.0001610144
        0.0000004330   0.0000469803   0.0000295313  -0.0001120422  -0.0000786934
        0.0000861707  -0.0003443762   0.0001010631   0.0001254979  -0.0002783139
        0.0003481958   0.0001432351  -0.0002365565  -0.0003120232  -0.0001191866
       -0.0001398451   0.0000106957  -0.0000706127   0.0000269519  -0.0000587435
       -0.0000307797   0.0000192367   0.0001096222   0.0001655852   0.0003489942
        0.0000888598   0.0001076775  -0.0068985006   0.0010202876  -0.0001012457
        0.0064224870   0.0118807487  -0.0017966095   0.0031281306  -0.0691725710
        0.0035150372  -0.0011592637   0.0141514123  -0.0023013757   0.0129682484
        0.0057872368  -0.0012007337  -0.0158270541  -0.0048838197   0.0000133493
        0.0117921184   0.0029907161   0.0003672293  -0.0021830135  -0.0033723238
       -0.0000153465   0.0013218347   0.0008566406  -0.0004111272   0.0015001347
        0.0017177595   0.0021863452  -0.0091991700   0.0050695314  -0.0041330830
        0.0088123200  -0.0110284593   0.0038204591  -0.0002581268   0.0094168967
       -0.0015761546  -0.0023507109  -0.0030639621  -0.0016063142  -0.0014482653
        0.0015501620  -0.0001604813  -0.0002929484  -0.0018639397  -0.0004069088
       -0.0000161258   0.0001781065  -0.0000199377   0.0002432750   0.0001531699
        0.0000568954  -0.0002448510   0.0001070235   0.0000279975   0.0000389191
        0.0001097628   0.0000728514  -0.0000146245  -0.0000071160  -0.0000131670
        0.0001095793  -0.0000215135  -0.0000857009   0.0000341407  -0.0002541841
       -0.0000550716  -0.0002598978   0.0000710084  -0.0000815696   0.0001811705
        0.0001899196  -0.0000104720  -0.0000048304   0.0000598975  -0.0000594656
        0.0000307626  -0.0000150886  -0.0000153535  -0.0001151743  -0.0000529207
        0.0000958925   0.0000396434  -0.0002573741   0.0000572692   0.0009572163
        0.0029819027   0.0009962329   0.0031969245  -0.0031669916   0.0012830636
        0.0026325019  -0.0001299436   0.0001694576  -0.0047480723   0.0014614729
       -0.0006983989   0.0117443554  -0.0072471133   0.0035872767  -0.0433579565
       -0.0306818226   0.0029691426   0.1178391311  -0.1906637079   0.0314569927
       -0.0043674922  -0.0297097382   0.0044504378   0.0016882970   0.0003532746
        0.0004555814   0.0001216939  -0.0000507046   0.0001676552  -0.0000158837
        0.0000199954  -0.0000500625  -0.0000291032  -0.0000334124   0.0000047438
       -0.0000064004  -0.0000383219  -0.0000136727   0.0000173045  -0.0000495705
       -0.0000386860   0.0000246669  -0.0000351320   0.0000071574   0.0000028297
        0.0000588579  -0.0000141291  -0.0000059654   0.0000397319   0.0000239845
       -0.0000224689   0.0000218360   0.0000104321  -0.0000402363   0.0000047176
       -0.0000071874  -0.0000035128  -0.0000306851   0.0000416152  -0.0000293362
        0.0000400797  -0.0001828625   0.0002665016   0.0000516836  -0.0002219654
       -0.0004884812   0.0000812569   0.0002220698   0.0011890713   0.0001849195
        0.0000892908   0.0000382206   0.0000512091  -0.0000450785  -0.0000331032
        0.0001291139   0.0002311520   0.0001482349  -0.0009382439  -0.0022365796
       -0.0010508576  -0.0003015160   0.0023756950   0.0001333382  -0.0000641919
       -0.0001866359   0.0000155369   0.0000053665  -0.0000640467   0.0000211176
       -0.0000049732   0.0000085519   0.0000265562  -0.0000003615  -0.0000009797
        0.0000219992   0.0000132552   0.0000005166   0.0000035982   0.0000287660
        0.0000120716  -0.0000076311   0.0000079484  -0.0000171732  -0.0000202997
       -0.0000084303  -0.0000102347  -0.0000279367  -0.0000053309   0.0000109293
       -0.0000220999   0.0000127565  -0.0000040897  -0.0000074115   0.0000290867
       -0.0000112682   0.0000085973   0.0000087807   0.0000182307  -0.0000543757
        0.0000180864   0.0000887986  -0.0000098501  -0.0000019783  -0.0000465760
       -0.0000021373   0.0000016572  -0.0000322812  -0.0000724183  -0.0000390712
       -0.0000820810  -0.0013430794  -0.0006964144   0.0000067443  -0.0023752813
        0.0001941552  -0.0007015953
        0.0151750510  -0.1005294173   0.1261274213   0.0131991845   0.0556794416
       -0.0449329324   0.0075728408   0.0012428836  -0.0003640822  -0.0024251640
        0.0011514028  -0.0003382177   0.0008172669   0.0006121088  -0.0001800690
       -0.0005068717  -0.0002309469  -0.0000830798   0.0000022792   0.0000476475
        0.0000291987  -0.0000114598   0.0000501103   0.0000281808  -0.0000375907
       -0.0000203343   0.0000113509  -0.0000153986   0.0000075512   0.0000189803
       -0.0000034941  -0.0000073186   0.0000005892   0.0000160893   0.0000202927
       -0.0000097745   0.0000523564  -0.0000131202  -0.0000289653   0.0001062017
       -0.0001202349  -0.0000454416   0.0000148694   0.0000582191   0.0000110689
        0.0000236504  -0.0000057012   0.0000017709  -0.0000069182   0.0000147720
        0.0000095856   0.0000087042  -0.0000270327  -0.0000294310  -0.0000703514
       -0.0000091639  -0.0000081259   0.0008932003  -0.0001267452   0.0003825295
       -0.0012361191  -0.0010929830   0.0026841759  -0.0101283975   0.0006763638
       -0.0493148688  -0.0014869880  -0.0016008051   0.0003203913  -0.0018204174
        0.0002715356   0.0060271776   0.0019699190   0.0003328015  -0.0002269406
       -0.0013904729  -0.0005734842  -0.0012912140   0.0004579736   0.0005451491
        0.0000266985  -0.0002228761  -0.0000995556   0.0000823517  -0.0002529923
       -0.0002546452  -0.0003076131   0.0012730893  -0.0006809991   0.0005567498
       -0.0012076977   0.0014948460  -0.0005139210   0.0000412083  -0.0012937553
        0.0002106019   0.0003239717   0.0004181076   0.0002163045   0.0001997241
       -0.0002095125   0.0000258269   0.0000406441   0.0002612481   0.0000573627
        0.0000030189  -0.0000280181   0.0000040630  -0.0000227701  -0.0000159366
       -0.0000082208   0.0000321105  -0.0000158371  -0.0000017061  -0.0000010408
       -0.0000197510  -0.0000142221   0.0000045970   0.0000019002   0.0000027581
       -0.0000145560   0.0000082028   0.0000154348  -0.0000104691   0.0000316295
        0.0000078277   0.0000243350  -0.0000082203   0.0000091589  -0.0000232055
       -0.0000250512  -0.0000000930  -0.0000001219  -0.0000107019   0.0000115759
       -0.0000079949   0.0000038552   0.0000024506   0.0000153956   0.0000125229
       -0.0000164390   0.0000006301   0.0000351961  -0.0000077520  -0.0001388645
       -0.0004080403  -0.0001396321  -0.0004434614   0.0004309123  -0.0001806745
       -0.0002722865   0.0000995676  -0.0000071452   0.0003604237  -0.0001713846
        0.0000652558  -0.0016979110   0.0017093365   0.0057601129   0.0047489056
        0.0034736554   0.0012925115  -0.0253711181   0.0326120575  -0.0417901007
        0.0012404591   0.0067875818   0.0000561234  -0.0005205595  -0.0002299613
        0.0000647160  -0.0000097001   0.0000236977   0.0000212477  -0.0000010948
       -0.0000027122   0.0000107066   0.0000017336   0.0000038293  -0.0000003932
        0.0000000036   0.0000031118   0.0000030677  -0.0000025778   0.0000095389
        0.0000056191  -0.0000032381   0.0000063152  -0.0000003633   0.0000038004
       -0.0000177412   0.0000046865  -0.0000031521   0.0000006541   0.0000043596
        0.0000037107  -0.0000020002   0.0000008538   0.0000073190   0.0000016311
        0.0000023276   0.0000047724   0.0000067482  -0.0000020617   0.0000142527
       -0.0000791611  -0.0001775076  -0.0000295056  -0.0000696041  -0.0000491873
        0.0001863434  -0.0002551716  -0.0022335254  -0.0001738018  -0.0000168898
        0.0001222790   0.0000052220  -0.0000159565  -0.0000002167   0.0000193267
       -0.0000199766  -0.0000437983  -0.0000220272   0.0001304774   0.0003047602
        0.0001463096   0.0000419300  -0.0003193726  -0.0000184386   0.0000087432
        0.0000244809  -0.0000031115  -0.0000006479   0.0000073178  -0.0000019677
        0.0000015814  -0.0000019635  -0.0000063157   0.0000009302   0.0000005831
       -0.0000051637  -0.0000030077  -0.0000010521  -0.0000008990  -0.0000053692
       -0.0000029519   0.0000015938  -0.0000005459   0.0000021540   0.0000022689
        0.0000004091   0.0000017798   0.0000050671   0.0000015310  -0.0000026030
        0.0000057027  -0.0000030863   0.0000005674   0.0000016205  -0.0000065686
        0.0000029189  -0.0000027816  -0.0000018972  -0.0000022326   0.0000103014
       -0.0000040513  -0.0000102551   0.0000041077   0.0000027366   0.0000091197
       -0.0000011354  -0.0000017669   0.0000023157  -0.0000040865  -0.0000222128
        0.0000070932   0.0001574936   0.0000936501   0.0000002678   0.0004375161
       -0.0000713896  -0.0019706652
       -0.1024333251  -0.0999478324   0.0131991845   0.5663544759   0.0549029324
        0.0177126351  -0.2218459692  -0.0368599475  -0.0032865030  -0.0501640053
        0.0108693650  -0.0062277368   0.0065303229   0.0098135278  -0.0016904423
       -0.0083230577  -0.0020511210  -0.0000328008   0.0028118377   0.0008212723
        0.0000557842  -0.0000226112  -0.0001257061   0.0002635227  -0.0003276879
       -0.0000100666   0.0001348753  -0.0001420320   0.0000430564   0.0001942436
        0.0000045752  -0.0000553372  -0.0000358176   0.0001264324   0.0000388696
       -0.0001689091   0.0004376474   0.0000430785  -0.0000723408  -0.0000866785
        0.0000668808  -0.0002481949   0.0003971941   0.0001860347   0.0000609161
        0.0001210984   0.0000397536   0.0001611633  -0.0000146606   0.0000461418
        0.0000385138  -0.0000916040  -0.0001123380  -0.0001967322  -0.0002756948
       -0.0001644498  -0.0001305041   0.0113325177  -0.0030708345   0.0004145970
       -0.0284086959  -0.0315454111   0.0053654120  -0.0478464466  -0.0383046422
        0.0039873493   0.0106762931  -0.0051231776   0.0015096207  -0.0056581298
       -0.0057905691   0.0014902013   0.0110277873   0.0023955950   0.0000300670
       -0.0080954294  -0.0019937338  -0.0003305127   0.0013280129   0.0022574978
        0.0001243265  -0.0006912632  -0.0006901576   0.0003378458  -0.0016557668
       -0.0014358667  -0.0017004029   0.0075273686  -0.0038990643   0.0032373271
       -0.0069567614   0.0086453747  -0.0030066813   0.0001852033  -0.0073747659
        0.0012500813   0.0018553383   0.0023650848   0.0012420929   0.0010977386
       -0.0011948869   0.0001418478   0.0002344167   0.0014543797   0.0003136222
        0.0000546458  -0.0000856672   0.0000165651  -0.0002598910  -0.0001727445
       -0.0000557363   0.0001718008  -0.0000772695  -0.0000377948  -0.0000509399
       -0.0000880594  -0.0000171057   0.0000439229   0.0000289127   0.0000083938
       -0.0000936840  -0.0000011498   0.0000490683   0.0000013505   0.0001738222
        0.0000560899   0.0002226251  -0.0000532789   0.0000764871  -0.0001030952
       -0.0001387759   0.0000169554   0.0000187431  -0.0000613018   0.0000277441
       -0.0000502883   0.0000033901   0.0000115476   0.0000920620   0.0000226547
       -0.0000565056  -0.0000331626   0.0001526701  -0.0000491238  -0.0007058049
       -0.0022921622  -0.0008099875  -0.0024873381   0.0024573432  -0.0009980350
       -0.0018089646   0.0002744659  -0.0002057456   0.0032399510  -0.0010176420
        0.0005469970  -0.0097351009  -0.0000011427  -0.0015429506   0.0033786555
        0.0105158217  -0.0015607984   0.0067280089   0.0177989829  -0.0018298562
       -0.1367389948   0.1177771922  -0.0278623002   0.0006879177  -0.0012962449
        0.0002102071  -0.0007415496  -0.0001920921  -0.0002205775   0.0000289977
       -0.0000490510   0.0000496593   0.0000552437   0.0000481550  -0.0000223655
        0.0000193342   0.0000676563   0.0000251288  -0.0000362576   0.0000698928
        0.0000777113  -0.0000749547   0.0000118113  -0.0000028447  -0.0000555067
       -0.0000597735  -0.0000021955   0.0000052531  -0.0000786915  -0.0000754616
        0.0000509882  -0.0000503884  -0.0000235745   0.0000718053  -0.0000148422
        0.0000219360   0.0000003420   0.0000545404  -0.0000497990  -0.0002708202
       -0.0000306879   0.0001275458   0.0009703205   0.0022461140  -0.0001725781
       -0.0018475336  -0.0008806485  -0.0000145252   0.0000498072  -0.0000875013
       -0.0000191350   0.0000102103   0.0000208785  -0.0000253356   0.0000176681
       -0.0000964179  -0.0001627639  -0.0001141780   0.0007328074   0.0017679418
        0.0007995679   0.0002312519  -0.0018746983  -0.0000999767   0.0000402053
        0.0001483161  -0.0000098849   0.0000060940   0.0000571245  -0.0000214453
        0.0000023877  -0.0000035691  -0.0000064340  -0.0000046967  -0.0000171120
       -0.0000044200   0.0000096584   0.0000026270   0.0000002258  -0.0000130460
       -0.0000058173   0.0000098767  -0.0000051461   0.0000084827   0.0000196169
        0.0000076444   0.0000066834   0.0000161797   0.0000044251  -0.0000043355
        0.0000122496  -0.0000023397   0.0000021177   0.0000060373  -0.0000112850
        0.0000037895  -0.0000013581  -0.0000026762  -0.0000156784   0.0000401788
       -0.0000061268  -0.0000683594   0.0000048629   0.0000009499   0.0000324045
       -0.0000058454  -0.0000037670   0.0000025664   0.0000240617   0.0000424187
        0.0000265635  -0.0004142013  -0.0001082298   0.0000347777  -0.0000893214
       -0.0000582372   0.0002535838
       -0.0954473790  -0.3765999039   0.0556794416   0.0549029324   0.7003415870
       -0.1108396144  -0.0026519094  -0.0694107814   0.0040814664   0.0036026928
        0.0130260425  -0.0028223571   0.0081119529   0.0025549454   0.0024558688
       -0.0043493570  -0.0015144512   0.0002786328   0.0003587856   0.0000691280
       -0.0004419273   0.0000492511   0.0006363643   0.0001256213  -0.0003838106
       -0.0001833683   0.0000864277  -0.0000785391   0.0001157930   0.0001899213
       -0.0000046188  -0.0000630436  -0.0000334607   0.0001291084   0.0001278231
       -0.0000633423   0.0003982754  -0.0001304206  -0.0001614896   0.0004590236
       -0.0005069681  -0.0002038731   0.0002593072   0.0004073226   0.0001762711
        0.0001850137  -0.0000267602   0.0000905923  -0.0000562274   0.0000734883
        0.0000335566  -0.0000150382  -0.0001352164  -0.0001878205  -0.0004442534
       -0.0000860555  -0.0001147889   0.0061661196  -0.0056423732   0.0031964901
       -0.0390332051  -0.0269867350   0.0039564774  -0.0560718105  -0.0203023532
        0.0003133920   0.0169245691  -0.0066548291   0.0020787380  -0.0083125705
       -0.0078926834   0.0020328410   0.0140217057   0.0037207480  -0.0000515198
       -0.0105977821  -0.0026200431  -0.0004587615   0.0018610482   0.0030251352
        0.0001041396  -0.0010275421  -0.0008408273   0.0004149569  -0.0016959716
       -0.0017068607  -0.0020943750   0.0090834356  -0.0049223924   0.0040301609
       -0.0085973774   0.0106159087  -0.0037366083   0.0002362367  -0.0090210277
        0.0015277496   0.0022720482   0.0029496869   0.0015408357   0.0013850393
       -0.0014769895   0.0001413118   0.0002780240   0.0018450180   0.0003974675
       -0.0000289712  -0.0002370708   0.0000192864  -0.0001994161  -0.0001252355
       -0.0000477501   0.0002233774  -0.0000979198  -0.0000143180  -0.0000168536
       -0.0001089102  -0.0000866782   0.0000073219   0.0000038405   0.0000115912
       -0.0000958746   0.0000240975   0.0000813732  -0.0000421950   0.0002290888
        0.0000438007   0.0002833308  -0.0000870723   0.0000668894  -0.0001821563
       -0.0001766421   0.0000037088   0.0000109177  -0.0000542187   0.0000582930
       -0.0000239728   0.0000151041   0.0000152866   0.0001190102   0.0000502862
       -0.0000933996  -0.0000414558   0.0002559880  -0.0000526608  -0.0009214635
       -0.0028623794  -0.0009423540  -0.0030745571   0.0030554481  -0.0012345513
       -0.0023596192   0.0002893805  -0.0002261229   0.0042797752  -0.0012914031
        0.0006750004  -0.0118016579   0.0016903943  -0.0019879718   0.0095883562
        0.0145976153  -0.0014345892  -0.0045207708  -0.0294839719   0.0061669116
        0.1170596371  -0.1893456434   0.0388387311  -0.0003766994  -0.0003535362
       -0.0009714170   0.0010889329   0.0001920692  -0.0000669973   0.0000172772
       -0.0000275998   0.0000521052   0.0000223784   0.0000259587  -0.0000040923
       -0.0000030214   0.0000267792   0.0000121805  -0.0000230813   0.0000428530
        0.0000326251  -0.0000462413   0.0000402733   0.0000467812  -0.0000207651
       -0.0000721029   0.0000011061   0.0000035126  -0.0000412885  -0.0000297769
        0.0000212398  -0.0000191962  -0.0000128372   0.0000360680   0.0000009777
        0.0000045434   0.0000056775   0.0000308045  -0.0000453277  -0.0013623745
       -0.0005889278   0.0002593467  -0.0022578446   0.0001812707  -0.0006290692
        0.0017357432   0.0001786706  -0.0003967660   0.0000758684  -0.0000861309
       -0.0000098558  -0.0000021627   0.0000001542  -0.0000123267   0.0000192258
       -0.0001230145  -0.0002160866  -0.0001390616   0.0009202193   0.0021542956
        0.0010100099   0.0002979685  -0.0022887668  -0.0001346704   0.0000516560
        0.0001732789  -0.0000192116  -0.0000076660   0.0000572968  -0.0000201252
        0.0000018131  -0.0000108073  -0.0000325468   0.0000086293   0.0000123805
       -0.0000261311  -0.0000243245  -0.0000024328  -0.0000051384  -0.0000263165
       -0.0000102217   0.0000012279  -0.0000066817   0.0000208556   0.0000196779
        0.0000035566   0.0000115046   0.0000237414   0.0000037644  -0.0000091566
        0.0000179773  -0.0000119003   0.0000041059   0.0000056256  -0.0000277503
        0.0000104185  -0.0000093120  -0.0000100911  -0.0000159419   0.0000506142
       -0.0000181781  -0.0000851690   0.0000114237   0.0000005916   0.0000430177
       -0.0000074448  -0.0000101813   0.0000216106   0.0000293241   0.0000337678
        0.0000558598  -0.0000801528   0.0000524581  -0.0000321724   0.0001904992
        0.0002349675   0.0002930097
        0.0143081711   0.0571698610  -0.0449329324   0.0177126351  -0.1108396144
        0.1298986457  -0.0094673424   0.0032376311  -0.0497528949  -0.0055721222
       -0.0025827258   0.0000190618  -0.0021207281   0.0020207523   0.0050284806
        0.0003537460   0.0002123560   0.0002065614   0.0001627764  -0.0004047408
       -0.0010871505  -0.0001596476   0.0000013896  -0.0001727549   0.0000136363
       -0.0000178805   0.0000119975   0.0000186710   0.0000136386   0.0000312366
        0.0000421356   0.0000186649  -0.0000384606  -0.0000248482  -0.0000859396
        0.0000178804   0.0000404893   0.0000566482   0.0000963399  -0.0000204986
        0.0002672395  -0.0001302189  -0.0000994447  -0.0000735055   0.0000469806
        0.0000089673  -0.0000400516   0.0000080690  -0.0000255060  -0.0000233720
       -0.0000429280  -0.0000268370   0.0000348220   0.0000746972   0.0001098503
       -0.0000153978   0.0000290381  -0.0005451130   0.0030528728   0.0053697307
        0.0078182467   0.0040228708   0.0006571829   0.0067731905   0.0013022183
       -0.0005752307  -0.0019841890   0.0006818965  -0.0002091800   0.0010004443
        0.0010067282  -0.0004594938  -0.0017252565  -0.0004825816  -0.0001367825
        0.0012668830   0.0003408588   0.0000704333  -0.0002328824  -0.0003318329
        0.0000074983   0.0001151592   0.0001022468  -0.0000586339   0.0002250067
        0.0002226360   0.0002646069  -0.0011109978   0.0005951241  -0.0004876992
        0.0010400879  -0.0012990617   0.0004506562  -0.0000290048   0.0011108073
       -0.0001883606  -0.0002807611  -0.0003586950  -0.0001901332  -0.0001753342
        0.0001767984  -0.0000224901  -0.0000331526  -0.0002135816  -0.0000499756
        0.0000154779   0.0000225412   0.0000005885   0.0000051242   0.0000037749
        0.0000049780  -0.0000261456   0.0000082425  -0.0000015872   0.0000025794
        0.0000156869   0.0000168385  -0.0000054658  -0.0000045090   0.0000006429
        0.0000122956  -0.0000088884  -0.0000136998   0.0000110104  -0.0000256409
       -0.0000020989  -0.0000287092   0.0000122200  -0.0000099438   0.0000270513
        0.0000205035   0.0000017270  -0.0000023485   0.0000092625  -0.0000114210
        0.0000058395  -0.0000049505  -0.0000016700  -0.0000143173  -0.0000118528
        0.0000161831   0.0000011403  -0.0000338948   0.0000065484   0.0001185316
        0.0003433939   0.0001164807   0.0003774576  -0.0003673252   0.0001553181
        0.0002929697  -0.0000415513   0.0000328304  -0.0005192272   0.0001682016
       -0.0000586996   0.0015209117  -0.0002390976   0.0006189893  -0.0016927884
       -0.0016221656   0.0029983477   0.0009665645   0.0065198958  -0.0000390851
       -0.0289716256   0.0375181790  -0.0438335976   0.0002790933  -0.0007627517
       -0.0019379214  -0.0003788079   0.0000221049   0.0001667487  -0.0000085207
        0.0000048934  -0.0000056665  -0.0000042020  -0.0000019816   0.0000020414
       -0.0000061893   0.0000012504  -0.0000059310   0.0000056788  -0.0000012912
        0.0000059941   0.0000106355   0.0000142944  -0.0000120559  -0.0000193397
        0.0000260189  -0.0000083019  -0.0000031962   0.0000023286   0.0000066995
        0.0000035819   0.0000069020  -0.0000045286  -0.0000012127   0.0000000184
        0.0000015688   0.0000035344   0.0000029390   0.0000051896   0.0003280236
        0.0002279553   0.0000597987   0.0008532236  -0.0005821697  -0.0018774675
       -0.0003820596   0.0000424393   0.0002226929  -0.0000216472   0.0000180114
        0.0000665987   0.0000002129  -0.0000067123   0.0000018343  -0.0000029878
        0.0000029819   0.0000189629   0.0000170548  -0.0001116883  -0.0002625264
       -0.0001250483  -0.0000356627   0.0002819009   0.0000175596  -0.0000085520
       -0.0000199862   0.0000042292   0.0000049427  -0.0000039679   0.0000030010
        0.0000021406   0.0000014553   0.0000056867  -0.0000032218  -0.0000071953
        0.0000075617   0.0000095421  -0.0000009809  -0.0000002738   0.0000073249
        0.0000032570  -0.0000006234   0.0000012085  -0.0000026638  -0.0000018821
       -0.0000006992  -0.0000013070  -0.0000039865  -0.0000013838   0.0000020451
       -0.0000044147   0.0000026010  -0.0000005722  -0.0000005918   0.0000054790
       -0.0000027347   0.0000023261   0.0000011725   0.0000007873  -0.0000061779
        0.0000037250   0.0000089908  -0.0000012507  -0.0000009257  -0.0000068407
        0.0000024831  -0.0000012775  -0.0000074872  -0.0000002779  -0.0000027727
       -0.0000089073   0.0000056142  -0.0000253060  -0.0002935383  -0.0000495667
       -0.0000249839  -0.0001374324
       -0.0459702523  -0.0496451439   0.0075728408  -0.2218459692  -0.0026519094
       -0.0094673424   0.6191224026  -0.0000338031   0.0404798430  -0.1767530979
        0.1183611583  -0.0454163852  -0.0642237415  -0.0065992512  -0.0058576143
        0.0095603314   0.0181127878  -0.0045312881  -0.0039763553  -0.0015762825
        0.0005569599   0.0001681555   0.0003107916  -0.0005084571   0.0004402027
        0.0000185405  -0.0001812946   0.0001547712   0.0000100445  -0.0001989505
        0.0000579783   0.0000682031  -0.0000382237  -0.0001129291  -0.0001525341
        0.0001725114  -0.0005521805   0.0000117132   0.0002835833   0.0000069454
        0.0001284238   0.0005487768  -0.0008283369  -0.0002931775  -0.0001554714
       -0.0000511129  -0.0001344358  -0.0001128357  -0.0000515572  -0.0000847085
       -0.0001127001   0.0000750379   0.0002246926   0.0003267203   0.0006332979
        0.0001203139   0.0002274767  -0.0165803884  -0.0288597786   0.0082593795
       -0.0918053957  -0.0652862363   0.0164798972   0.0237689024   0.0054926389
       -0.0000829252  -0.0088210136   0.0033515008  -0.0010233779   0.0049751699
        0.0044383534  -0.0012258601  -0.0088856486  -0.0023188584   0.0000249912
        0.0067374658   0.0016039099   0.0003175560  -0.0010467917  -0.0018058727
       -0.0001598030   0.0004016266   0.0006913092  -0.0003577249   0.0018292179
        0.0013890482   0.0015475296  -0.0071353099   0.0035540531  -0.0029839250
        0.0064334718  -0.0079917759   0.0027861435  -0.0001776879   0.0067540212
       -0.0011528141  -0.0017060211  -0.0021718142  -0.0011401635  -0.0010387949
        0.0010996660  -0.0001472565  -0.0002045559  -0.0014134902  -0.0002898901
       -0.0000271993   0.0001766087  -0.0000145448   0.0001726104   0.0001151446
        0.0000298216  -0.0001314113   0.0000720382   0.0000293960   0.0000237371
        0.0000766611   0.0000257473  -0.0000427429  -0.0000316810  -0.0000052712
        0.0000729476  -0.0000058993  -0.0000424521   0.0000144906  -0.0001345886
       -0.0000501090  -0.0001758995   0.0000406086  -0.0000488549   0.0000786223
        0.0001314419  -0.0000144029  -0.0000094102   0.0000561475  -0.0000235437
        0.0000519011   0.0000023751  -0.0000128495  -0.0000813955  -0.0000221301
        0.0000496802   0.0000207753  -0.0001324076   0.0000462261   0.0006669003
        0.0021133705   0.0007495708   0.0022988066  -0.0022485775   0.0009208365