$hessian                                                                        
        0.6550309174  -0.0216454357   0.0281502877  -0.1332682492   0.1055127092
        0.0662043252  -0.0485531389   0.0169245751   0.0109851703   0.0239996751
       -0.0019408503   0.0028888399  -0.0098319658   0.0020908347  -0.0009256502
       -0.0037818262  -0.0018211828   0.0012906120   0.0051715667  -0.0055318300
        0.0019535262  -0.0133689203  -0.0012480226   0.0003775969   0.0126851913
        0.0006627508  -0.0001129869  -0.0052727721   0.0042522215  -0.0018194849
        0.0033454407   0.0021965378  -0.0007247284  -0.0026266780   0.0003009945
       -0.0003120168   0.0039493711  -0.0016192093   0.0017405735  -0.0048292664
       -0.0050755813   0.0010539127   0.0048692059   0.0072190889  -0.0006373436
        0.0012567904  -0.0022810699   0.0003408103   0.0002075952   0.0011864707
       -0.0005892958   0.0005133242  -0.0003716819  -0.0003361509  -0.0002967034
        0.0001683225   0.0002035248  -0.0001121331  -0.0003067521   0.0001278246
       -0.0012953912   0.0001642097   0.0004189816  -0.0012086748   0.0003088765
       -0.0026630329  -0.0004098556   0.0003206010   0.0000578592   0.0000709665
       -0.0000963017  -0.0001915471  -0.0001078228  -0.0001101740   0.0001163053
        0.0000786671   0.0000411277  -0.0000732709  -0.0000764440  -0.0000600575
        0.0000326070  -0.0000958803   0.0000192557   0.0001911743  -0.0499661536
       -0.0120263343  -0.0162294203  -0.1363092623  -0.1008106583  -0.0750454831
       -0.3018353941   0.0130601335  -0.0139036802   0.0068066941  -0.0100963193
       -0.0079586975  -0.0057319901   0.0010467468  -0.0007402548  -0.0001310685
        0.0000697538  -0.0002453327   0.0000345256   0.0001121886  -0.0000175493
        0.0000078208  -0.0001436457  -0.0002297637  -0.0000140325  -0.0000591224
       -0.0000922238   0.0000701944  -0.0000620273  -0.0001407104   0.0000555169
        0.0001625374   0.0001690186   0.0000010712   0.0000809986  -0.0000155057
       -0.0000900645   0.0000509289   0.0000431143  -0.0000032299  -0.0000545863
        0.0000396320   0.0000109070  -0.0000654753  -0.0000186886   0.0001204163
       -0.0000317383   0.0000171126   0.0000035518   0.0000529393  -0.0000453414
       -0.0000355915  -0.0000612027  -0.0000664733   0.0000124577   0.0000308951
        0.0000262938   0.0000117041   0.0000369796  -0.0000487131   0.0001173923
        0.0000996587  -0.0000370184  -0.0001216286  -0.0000316250  -0.0001070797
       -0.0058110547   0.0000781642  -0.0008520322   0.0067542285   0.0093003832
        0.0077503739
       -0.0216454357   0.4456175591   0.2269471054   0.0382981226  -0.1895769066
       -0.0968691402   0.0670859153  -0.0005346871   0.0050497177   0.0001656276
       -0.0189576016  -0.0062397438  -0.0006856378   0.0017826024   0.0014568174
       -0.0004061020  -0.0005877850  -0.0004548827  -0.0001587617   0.0000426968
        0.0005757263  -0.0012497495  -0.0016692673   0.0001620976   0.0011938283
        0.0000120627  -0.0001341424  -0.0003899354   0.0004932647  -0.0001603553
        0.0001894159   0.0002681043  -0.0000181051  -0.0002740102   0.0001010482
       -0.0000763263   0.0004189472  -0.0002392062   0.0002048206  -0.0004518350
       -0.0005212810   0.0001231213   0.0008948858   0.0017043024  -0.0002456949
        0.0004140968  -0.0005381204   0.0000054501   0.0000673835   0.0003269682
       -0.0001705968   0.0001723768  -0.0001488086  -0.0001506278  -0.0000853169
        0.0000850190   0.0000988516   0.0000085664  -0.0000989207   0.0000497438
       -0.0003917182   0.0000083453   0.0000950007   0.0001129550  -0.0012172840
       -0.0003442950   0.0010437393   0.0009783936  -0.0005127700   0.0000445485
       -0.0005880087  -0.0000500984   0.0006253453   0.0004266257  -0.0006131207
       -0.0004761796   0.0002946566   0.0008736787  -0.0002830797  -0.0007956423
       -0.0002659698  -0.0011358216   0.0009727032  -0.0002344846  -0.0632634171
        0.0083464251  -0.0005536822  -0.0329438933  -0.1775186173  -0.0909339931
        0.0129325249  -0.0402177198  -0.0056791098   0.0086200829  -0.0183774542
       -0.0108373456   0.0004930597   0.0044688174  -0.0042305972   0.0001033167
        0.0001614651  -0.0001316684  -0.0000050289  -0.0000009053  -0.0000198041
        0.0000123589  -0.0000137161  -0.0000490567   0.0000098069  -0.0000174475
       -0.0000003046   0.0000003062  -0.0000141810  -0.0000157921   0.0000141646
        0.0000190786   0.0000154862  -0.0000073216   0.0000071789  -0.0000061149
       -0.0000015163  -0.0000087130   0.0000196348  -0.0000201187  -0.0000206042
       -0.0000088447   0.0000048328   0.0000034905   0.0000121095  -0.0000045482
        0.0000112601   0.0000042241   0.0000125989   0.0000100909   0.0000408907
       -0.0000000771   0.0000169179   0.0000741174  -0.0000517346   0.0000321329
       -0.0000319330   0.0000133434  -0.0000101650   0.0000270688  -0.0000579173
       -0.0000123420  -0.0000215572   0.0000604761  -0.0000518659   0.0000067387
        0.0010301629   0.0040969543  -0.0040288192  -0.0100536328  -0.0185509130
       -0.0127534249
        0.0281502877   0.2269471054   0.2606659684   0.0158555564  -0.0893259603
       -0.1058902749   0.0436328457   0.0002206199   0.0057007121   0.0018747491
       -0.0077166689  -0.0099867303  -0.0008536205   0.0013685888   0.0004886137
       -0.0004886127  -0.0006963126  -0.0002196844   0.0000215729  -0.0000553188
        0.0004462111  -0.0014013757  -0.0013658520   0.0001008279   0.0012419030
        0.0000467094  -0.0000764769  -0.0004643518   0.0004849806  -0.0001476797
        0.0002374744   0.0002235452  -0.0000145315  -0.0002053827   0.0000863197
       -0.0000636612   0.0004212084  -0.0001887000   0.0001765408  -0.0004971480
       -0.0005306756   0.0001021261   0.0008244138   0.0015572338  -0.0001864440
        0.0003427530  -0.0004859056  -0.0000004787   0.0000525126   0.0002933471
       -0.0001544110   0.0001350185  -0.0001176004  -0.0001099017  -0.0000675838
        0.0000422455   0.0000839444   0.0000077048  -0.0000688216   0.0000273737
       -0.0003402073   0.0000118671   0.0000870073  -0.0000559584  -0.0009018403
       -0.0002639564   0.0009380479   0.0005044102  -0.0002648764   0.0000839752
       -0.0003254539   0.0001016688   0.0004212467   0.0003076285  -0.0004185326
       -0.0003323448   0.0001658911   0.0005801177  -0.0001484635  -0.0004973888
       -0.0001874219  -0.0006318818   0.0005168587  -0.0001329261  -0.0473242416
        0.0036024354  -0.0003091924  -0.0266339913  -0.0952712297  -0.1114812586
       -0.0136849329  -0.0055941022  -0.0353961642   0.0067017420  -0.0147062343
       -0.0072736159  -0.0007776737  -0.0029444549   0.0050726332   0.0000013013
        0.0001709200  -0.0000654579   0.0000068708   0.0000161451  -0.0000077048
        0.0000141945  -0.0000147754  -0.0000481324   0.0000041529  -0.0000089798
       -0.0000078229  -0.0000066070  -0.0000115964  -0.0000154611   0.0000091075
        0.0000160554   0.0000238767   0.0000018016   0.0000093213   0.0000020744
       -0.0000082960  -0.0000044905   0.0000159606  -0.0000126490  -0.0000195987
       -0.0000033787   0.0000014344   0.0000001386   0.0000073957   0.0000036484
        0.0000034764   0.0000064820   0.0000107332   0.0000067961   0.0000263732
       -0.0000010225   0.0000007168   0.0000519084  -0.0000430585   0.0000200864
       -0.0000169770   0.0000063898  -0.0000069789   0.0000174067  -0.0000521460
       -0.0000231699   0.0000110913   0.0000436209  -0.0000161608   0.0000489319
       -0.0005975446  -0.0031616588   0.0057655884  -0.0064171733  -0.0125635134
       -0.0068676810
       -0.1332682492   0.0382981226   0.0158555564   0.6460858027   0.0018197299
        0.0498620356  -0.3462867638   0.0435258694   0.0015911803  -0.0579936380
       -0.0365122676  -0.0306078643   0.0132509609  -0.0027791179   0.0010493811
        0.0027023938   0.0008267858  -0.0022418391  -0.0060648096   0.0065910277
       -0.0019420812   0.0149549242  -0.0000132643  -0.0003873773  -0.0143018413
       -0.0008121507   0.0000279323   0.0060387714  -0.0048127862   0.0021201386
       -0.0038966755  -0.0026837615   0.0008145738   0.0033337806  -0.0002026872
        0.0002727631  -0.0045081039   0.0019603190  -0.0018768260   0.0054292317
        0.0057109377  -0.0011548836  -0.0046694968  -0.0071801655   0.0006502652
       -0.0012307631   0.0023593807  -0.0005649748  -0.0002536185  -0.0011567627
        0.0003812699  -0.0005552158   0.0004881273   0.0003947679   0.0003098537
       -0.0002610164  -0.0002441982   0.0000703294   0.0004010398  -0.0001385405
        0.0012740677  -0.0001356847  -0.0003040697   0.0012413435  -0.0010168660
        0.0037014342   0.0011434686   0.0006536249  -0.0008759584  -0.0002098102
       -0.0002377401  -0.0000192054   0.0005846870   0.0002809653  -0.0006052788
       -0.0004976056   0.0001451424   0.0007689536  -0.0000998839  -0.0005469991
       -0.0001223068  -0.0011112399   0.0008036730   0.0000246447  -0.0275420210
        0.0024322555   0.0035548597   0.0511025240   0.0159879311   0.0158681442
       -0.0176459124   0.0220854322   0.0131201941  -0.1086772655  -0.0883660827
       -0.0664389032  -0.0181921332   0.0039775539  -0.0004349335   0.0001772205
        0.0002470986   0.0001921640   0.0000030427   0.0000375506   0.0000915879
       -0.0000197903   0.0001533843   0.0002833515   0.0000131080   0.0000672297
        0.0001469996   0.0000029757   0.0000848427   0.0001400364  -0.0000242237
       -0.0001156009  -0.0001955448   0.0000326482  -0.0000006987  -0.0000071743
       -0.0000244274  -0.0000040237   0.0000031201   0.0000539244   0.0000203634
        0.0000529172  -0.0000183971  -0.0000064879  -0.0000092194  -0.0000186853
       -0.0000312803  -0.0000174293  -0.0000243863  -0.0000400382   0.0000040314
        0.0000564480   0.0000009667  -0.0000418993  -0.0000245156  -0.0000287372
       -0.0000513595  -0.0000229110  -0.0000501014  -0.0000033341  -0.0000285957
        0.0000048642  -0.0000161824   0.0000322133  -0.0001405800  -0.0000929107
       -0.0000104384   0.0009165725  -0.0004404709  -0.0006723019  -0.0027458901
       -0.0021375373
        0.1055127092  -0.1895769066  -0.0893259603   0.0018197299   0.4599456592
        0.2488919489  -0.0234900423  -0.0746718665  -0.0242861330  -0.0030045892
        0.0081390644   0.0030260786  -0.0086232677  -0.0008010336  -0.0046057913
       -0.0038318588  -0.0011290485   0.0016560666   0.0045988988  -0.0055073490
        0.0012729752  -0.0111441008   0.0001821940   0.0002921135   0.0104800560
        0.0005896508   0.0001205364  -0.0043195273   0.0036002478  -0.0015475492
        0.0027019874   0.0019124732  -0.0005719662  -0.0021946080   0.0002845947
       -0.0002709036   0.0033267799  -0.0014422505   0.0014510465  -0.0040016820
       -0.0042818014   0.0008414588   0.0037496789   0.0054559761  -0.0006002067
        0.0008089835  -0.0016720223   0.0002565372   0.0002579794   0.0008455541
       -0.0003723726   0.0003782128  -0.0003037103  -0.0003185801  -0.0002259107
        0.0001280795   0.0001962808  -0.0000750877  -0.0002292620   0.0001098227
       -0.0010135093   0.0000078785   0.0002432731  -0.0016983031   0.0007904670
       -0.0018413314  -0.0005110901   0.0002635211   0.0003472447   0.0002027891
       -0.0001786159  -0.0000584650  -0.0002134875  -0.0000007357   0.0002335855
        0.0002081875  -0.0000752220  -0.0004276397   0.0001070906   0.0004599123
        0.0001574175   0.0004373564  -0.0005640455   0.0002586586   0.0149065730
        0.0020195579   0.0022318009  -0.0213370765  -0.0429979764  -0.0310506426
        0.0023125572  -0.0010468158  -0.0022114827  -0.0866708349  -0.1571880221
       -0.0981655086   0.0223163623  -0.0022543833  -0.0009595656  -0.0000654121
        0.0000869529  -0.0001952973  -0.0000634180   0.0000209933  -0.0000987010
        0.0000325044  -0.0001354682  -0.0002420485   0.0000180105  -0.0000753101
       -0.0000831625   0.0000203486  -0.0000708038  -0.0001193449   0.0000533776
        0.0001315970   0.0001418120  -0.0000307930   0.0000323626  -0.0000040913
       -0.0000315440   0.0000020021   0.0000279771  -0.0000320035  -0.0000538921
        0.0000012612   0.0000294283  -0.0000323796   0.0000052078   0.0000535653
        0.0000055593  -0.0000003203   0.0000267400   0.0000430441   0.0000245256
       -0.0000394335  -0.0000205578   0.0000672970   0.0000343408  -0.0000264544
        0.0000173129  -0.0000037019  -0.0000530562   0.0000092591   0.0000225976
       -0.0000044814   0.0000392754  -0.0000698856  -0.0000488560   0.0000031495
        0.0003847050   0.0001424148   0.0005105635  -0.0021103824  -0.0006474298
       -0.0050774223
        0.0662043252  -0.0968691402  -0.1058902749   0.0498620356   0.2488919489
        0.2910065635  -0.0417866046  -0.0199978136  -0.0606516109  -0.0113933314
        0.0030333224   0.0020313497  -0.0042527594  -0.0047163541   0.0001626215
       -0.0021078199  -0.0002792110   0.0003796191   0.0012384330  -0.0015862454
        0.0006963783  -0.0029802477   0.0000784967   0.0001956562   0.0030881698
        0.0001652868  -0.0001823240  -0.0012582980   0.0009612900  -0.0004746700
        0.0008165385   0.0005728060  -0.0002230177  -0.0007231283   0.0000277595
       -0.0000546138   0.0008945277  -0.0003749893   0.0004354867  -0.0010694292
       -0.0012177297   0.0002913925   0.0009547684   0.0012511540   0.0000161615
        0.0002815228  -0.0005163447   0.0002743820   0.0000773101   0.0002274789
       -0.0001227896   0.0001265974  -0.0000803277  -0.0001248233  -0.0001156031
        0.0000653772   0.0000657543  -0.0001024739  -0.0000696957   0.0000460875
       -0.0002150094   0.0000487600   0.0001150261   0.0002992491   0.0004479197
       -0.0015011321  -0.0005689298  -0.0005609890   0.0003297144   0.0001484200
        0.0001379314   0.0001552999  -0.0001583166  -0.0000524381   0.0002977815
        0.0001352451   0.0000071023  -0.0002472054   0.0000486955   0.0000672337
       -0.0000879665   0.0005502375  -0.0000334560  -0.0000544459   0.0095444684
        0.0026493620  -0.0023727443  -0.0124506432  -0.0286055841  -0.0192551910
       -0.0001245594   0.0002075606   0.0014504624  -0.0682431991  -0.0963040166
       -0.1110656113   0.0152850300  -0.0026698746   0.0013152101  -0.0000746237
        0.0000025120  -0.0001589459  -0.0000957009  -0.0000010001   0.0000248158
       -0.0000222298  -0.0000375802  -0.0000366810  -0.0000006178  -0.0000257012
       -0.0000024122   0.0000516429  -0.0000082953  -0.0000300276   0.0000249402
        0.0000625572   0.0000248168  -0.0000069472   0.0000298670  -0.0000318475
       -0.0000039818   0.0000308503  -0.0000044529  -0.0000017046  -0.0000239373
        0.0000180309   0.0000270447  -0.0000325447  -0.0000006232   0.0000426263
       -0.0000080643  -0.0000076580  -0.0000095252   0.0000187647  -0.0000200939
       -0.0000735754  -0.0000228492   0.0000410218   0.0000215959  -0.0000250118
        0.0000144581  -0.0000334436  -0.0000560304  -0.0000039118   0.0000055916
        0.0000146672   0.0000686988  -0.0000901333  -0.0000303812  -0.0000184684
        0.0002105068   0.0004015550   0.0000767383  -0.0019766862  -0.0051959582
        0.0030900156
       -0.0485531389   0.0670859153   0.0436328457  -0.3462867638  -0.0234900423
       -0.0417866046   0.6628083063  -0.0565723176   0.0065839419  -0.0897789362
       -0.0494944882  -0.0372878713  -0.0502699482  -0.0183538999  -0.0166809110
       -0.0073686653   0.0008992242   0.0012529514   0.0067348000  -0.0107838248
        0.0035168465  -0.0228619418  -0.0018104659   0.0005643164   0.0223665884
        0.0012197933   0.0001029240  -0.0095508084   0.0077651961  -0.0033745713
        0.0060636997   0.0042999324  -0.0012497705  -0.0052611682   0.0004133460
       -0.0004724519   0.0072075854  -0.0032497691   0.0030471269  -0.0087579918
       -0.0091577637   0.0018829102   0.0075025262   0.0120104803  -0.0012360209
        0.0021474985  -0.0040375914   0.0006555652   0.0005067730   0.0020556839
       -0.0007669250   0.0009325746  -0.0007745039  -0.0006403173  -0.0004937780
        0.0004573533   0.0004134164  -0.0001059553  -0.0006002725   0.0002693513
       -0.0023074970   0.0001866940   0.0005928959   0.0000435134  -0.0022842638
       -0.0050515119  -0.0028373289   0.0023531119  -0.0005156746   0.0000804190
       -0.0002554511  -0.0004186110  -0.0003397941  -0.0000710474   0.0004152171
        0.0004001735  -0.0000697648  -0.0004460540   0.0000132385   0.0004255718
       -0.0001890311  -0.0001201446   0.0005592736  -0.0007262971   0.0282960110
        0.0025252693  -0.0046658668  -0.0271069827  -0.0124369966  -0.0111395525
       -0.0007034042   0.0026987246   0.0011568347  -0.0192722677  -0.0006275105
       -0.0044094454  -0.1013285125   0.0879033697   0.0656127042  -0.0002378160
        0.0000256737  -0.0003606491  -0.0003754666  -0.0000403574   0.0001527420
        0.0000487527  -0.0002804596  -0.0004724900  -0.0000141002  -0.0001166045
       -0.0002391146  -0.0000010063  -0.0001522769  -0.0002848778   0.0000475482
        0.0001826222   0.0003126393  -0.0000210020   0.0000659347   0.0000009156
       -0.0000235951  -0.0000074617   0.0000317223  -0.0000702262  -0.0000640434
       -0.0000726761   0.0000201776   0.0000066701   0.0000112277   0.0000506250
        0.0000184026   0.0000200439   0.0000596117   0.0000702080  -0.0000154398
       -0.0000781650  -0.0000264756  -0.0000674393  -0.0000219131   0.0000472441
        0.0000013685   0.0000215533  -0.0000304213   0.0000074042  -0.0000122735
       -0.0000333237   0.0000766178  -0.0000339925   0.0001372980  -0.0001896080
       -0.0010183327   0.0025762095   0.0020562660  -0.0001390591  -0.0011678050
        0.0003889878
        0.0169245751  -0.0005346871   0.0002206199   0.0435258694  -0.0746718665
       -0.0199978136  -0.0565723176   0.4234260181   0.2341333062  -0.0448078705
       -0.1568662171  -0.0769594700  -0.0319774252   0.0060518322  -0.0023031266
       -0.0011888143   0.0002009275   0.0001091371   0.0046221867  -0.0064879229
        0.0027315597  -0.0181838974  -0.0031810959   0.0007746721   0.0182099279
        0.0008808885  -0.0000506864  -0.0077030513   0.0064516119  -0.0027550316
        0.0048033784   0.0035690873  -0.0009525020  -0.0042236935   0.0005135571
       -0.0005031272   0.0060055371  -0.0027571887   0.0026327276  -0.0072072714
       -0.0076703515   0.0015233298   0.0052604161   0.0105927580  -0.0011248391
        0.0023225604  -0.0039832980   0.0005656272   0.0004806127   0.0020951959
       -0.0009676208   0.0010109329  -0.0008381489  -0.0007891083  -0.0005759610
        0.0004167563   0.0005218643  -0.0001870707  -0.0005408189   0.0002699603
       -0.0023807451   0.0001231396   0.0007084900   0.0021354970  -0.0035673291
       -0.0046837045   0.0036637964  -0.0000389778   0.0006967342   0.0002647209
       -0.0003066751   0.0002482046   0.0004114216   0.0002015693  -0.0005290362
       -0.0005154616   0.0002076822   0.0007709246  -0.0003535409  -0.0011638348
       -0.0002350845  -0.0014766923   0.0009427052   0.0002857568  -0.0043782591
       -0.0242709211  -0.0227166234   0.0003441947   0.0032820290   0.0042945178
        0.0029371135  -0.0011480832  -0.0047215187  -0.0208031812  -0.0002351436
       -0.0022293394   0.0870272342  -0.1683776236  -0.1047709608  -0.0001828701
       -0.0001856441  -0.0003617481   0.0001479165   0.0000111764   0.0002131724
        0.0000641699  -0.0002476990  -0.0004304289   0.0000007347  -0.0001158437
       -0.0001585085   0.0000598402  -0.0001408581  -0.0002802954   0.0000739026
        0.0002097172   0.0002640128  -0.0000233992   0.0001008476   0.0000138945
       -0.0000623454   0.0000441707   0.0000747869  -0.0000539245  -0.0001092251
       -0.0000280119   0.0000447506  -0.0000197510   0.0000204600   0.0000935786
       -0.0000080929   0.0000058670   0.0000887202   0.0001096044   0.0000158548
        0.0001139365  -0.0000752969  -0.0000530201  -0.0000207410   0.0000359283
        0.0000056791   0.0000521884   0.0000356190  -0.0000037889   0.0000569944
        0.0000483526  -0.0000460036   0.0002266325  -0.0000639340  -0.0001248513
        0.0023917154  -0.0018251353  -0.0043290908  -0.0004865224  -0.0001195102
        0.0010041810
        0.0109851703   0.0050497177   0.0057007121   0.0015911803  -0.0242861330
       -0.0606516109   0.0065839419   0.2341333062   0.2861498900  -0.0553074373
       -0.0811807715  -0.1085344461  -0.0129147899  -0.0032910372  -0.0016487548
       -0.0015748087   0.0004419333   0.0052847301   0.0034852776  -0.0049242383
        0.0015027261  -0.0084868715   0.0006891126   0.0003272966   0.0080715504
        0.0003870170  -0.0001131136  -0.0033685561   0.0027754579  -0.0012999061
        0.0021265746   0.0015418682  -0.0004723375  -0.0018182751   0.0001723114
       -0.0001619179   0.0025387637  -0.0011320990   0.0012267460  -0.0030881565
       -0.0033045304   0.0007210998   0.0026072891   0.0034397475  -0.0004881654
        0.0006646427  -0.0011810331   0.0005377888   0.0002050140   0.0005703380
       -0.0003407337   0.0002524881  -0.0002683700  -0.0002014607  -0.0001864855
        0.0001071975   0.0001534464  -0.0001625605  -0.0001087788   0.0000532472
       -0.0006771142   0.0000818419   0.0001864872   0.0004731104   0.0021617008
       -0.0037994348  -0.0025336049   0.0005418435   0.0007060217  -0.0003621632
        0.0007101089  -0.0005966366  -0.0006329340  -0.0005652379   0.0003639853
        0.0003440867  -0.0001434351  -0.0004713331  -0.0004023702  -0.0000241218
       -0.0000241734   0.0003897828   0.0008224690  -0.0013588054   0.0059081741
       -0.0214896470  -0.0155508331  -0.0055231227   0.0022633927  -0.0030846771
        0.0016663492  -0.0051118740   0.0032383608  -0.0170074695  -0.0009626584
       -0.0011123265   0.0655956867  -0.1040004524  -0.1076145707  -0.0000393940
       -0.0001162217  -0.0004846654  -0.0000753764   0.0000992901  -0.0007253942
        0.0000059092  -0.0001039213  -0.0001367673  -0.0000027349  -0.0000426740
       -0.0000596732   0.0000442241  -0.0000695384  -0.0001449308   0.0000322762
        0.0000813061   0.0000999108  -0.0000137899   0.0000086435  -0.0000337430
       -0.0000112152   0.0000374677   0.0000694041   0.0000019879  -0.0000473733
        0.0000094685   0.0000253067  -0.0000102540   0.0000167257   0.0000533310
       -0.0000183325   0.0000089455   0.0000121742   0.0000488224  -0.0000036688
        0.0000361991  -0.0000059763  -0.0000745992   0.0000208369   0.0000346684
        0.0000405847   0.0000574493   0.0000412979  -0.0000058898   0.0000985757
        0.0000666006  -0.0000490552  -0.0003617694   0.0003561777  -0.0006118283
        0.0009912424  -0.0043001394   0.0029939434  -0.0003175957   0.0000252104
        0.0004639320
        0.0239996751   0.0001656276   0.0018747491  -0.0579936380  -0.0030045892
       -0.0113933314  -0.0897789362  -0.0448078705  -0.0553074373   0.5567053587
       -0.0143543740   0.0388409361  -0.2297007471   0.0001189940  -0.0198815037
       -0.0266251836  -0.0165103407  -0.0137723545  -0.0096665250   0.0159703439
       -0.0078375318   0.0485711820   0.0072818638  -0.0019394004  -0.0513132381
       -0.0027996599  -0.0003556355   0.0223145221  -0.0182958980   0.0080676759
       -0.0143385704  -0.0104329298   0.0030864555   0.0126756414  -0.0012528022
        0.0013169123  -0.0174982786   0.0080409698  -0.0075296160   0.0207524902
        0.0216766649  -0.0045576876  -0.0103195019  -0.0259412769   0.0033997053
       -0.0067980916   0.0112284236  -0.0017564753  -0.0014003610  -0.0058254826
        0.0023573670  -0.0027051499   0.0022999935   0.0020715358   0.0014759974
       -0.0013023743  -0.0012477913   0.0002934170   0.0018877229  -0.0007493690
        0.0065628677  -0.0005713952  -0.0018101590  -0.0312801642   0.0249340159
        0.0150108357  -0.0007073890  -0.0046666073  -0.0001473324  -0.0010025619
        0.0017654407   0.0005710135  -0.0006763611  -0.0007090504   0.0003257754
        0.0002599467  -0.0003825306  -0.0007660912   0.0003950232   0.0004693338
        0.0002636785   0.0022834978  -0.0010059263   0.0000641251  -0.0874736814
        0.0457550141   0.0452527355  -0.0602216879   0.0096349927   0.0025463670
        0.0009948512  -0.0001775456   0.0003762889  -0.0056795134  -0.0002987822
        0.0004415840   0.0062361099   0.0060696959   0.0098689143   0.0010481853
        0.0011914083   0.0010724466  -0.0003248283   0.0000172425   0.0010018063
       -0.0001743552   0.0006756153   0.0012105333  -0.0000286062   0.0003517305
        0.0004737906  -0.0000792100   0.0003703951   0.0006490817  -0.0001670639
       -0.0005301644  -0.0007225727   0.0001251462  -0.0001572533  -0.0000246083
        0.0000293107   0.0000179501  -0.0001171165   0.0002312297   0.0002134668
        0.0001701024  -0.0000919596   0.0000007446  -0.0000708543  -0.0001203191
       -0.0000892927  -0.0000554568  -0.0001925925  -0.0001888930  -0.0001280334
        0.0001570573  -0.0000477975  -0.0001463837   0.0000379687  -0.0002063126
        0.0000232576  -0.0000828439  -0.0000292744  -0.0000425348  -0.0001221747
       -0.0000626681   0.0000527144   0.0001918037   0.0003517462  -0.0003433192
        0.0068686007  -0.0084516482  -0.0077400946  -0.0056463494   0.0016133438
       -0.0019476976
       -0.0019408503  -0.0189576016  -0.0077166689  -0.0365122676   0.0081390644
        0.0030333224  -0.0494944882  -0.1568662171  -0.0811807715  -0.0143543740
        0.4466433347   0.1930360686   0.0074763744  -0.0686069485  -0.0077650197
       -0.0254948389   0.0006548405  -0.0015778097  -0.0015210257  -0.0059982423
        0.0002114773  -0.0028580456   0.0002717496   0.0002713857   0.0029530850
        0.0002826197   0.0001686082  -0.0012967725   0.0009439814  -0.0004089505
        0.0008492153   0.0006042213  -0.0001566856  -0.0006568243   0.0000169883
       -0.0000554938   0.0009434963  -0.0003842998   0.0003186118  -0.0011552835
       -0.0012487934   0.0002688699   0.0025094504  -0.0030749438   0.0001376574
        0.0013666427  -0.0005010982  -0.0003698343   0.0001798903   0.0002324095
       -0.0001768687   0.0000354081  -0.0000326792  -0.0000931982  -0.0000020517
        0.0000651112  -0.0000261002   0.0000560148  -0.0001660115   0.0000103035
       -0.0002215246  -0.0003237785   0.0001226734   0.0241601481  -0.0033825695
        0.0032209551   0.0014363281   0.0013053195  -0.0005402033   0.0000969548
       -0.0002491951  -0.0004704202  -0.0000832223  -0.0000686510   0.0001746620
        0.0001603296  -0.0004057816  -0.0006577894   0.0003098989   0.0009662234
        0.0004861766   0.0002276021  -0.0023077383   0.0012691488   0.0504558917
       -0.1743351526  -0.0765593709   0.0438498358   0.0024433558   0.0071524416
       -0.0000391132  -0.0002534827  -0.0003976027   0.0014477736   0.0043384218
       -0.0042093586  -0.0085707156  -0.0167060176  -0.0126954575  -0.0005409776
        0.0004180965  -0.0003400582  -0.0012996413  -0.0002297308   0.0003853992
       -0.0000102973  -0.0000204727  -0.0001472010  -0.0000067231  -0.0000083161
       -0.0000484637  -0.0000187554  -0.0000135401  -0.0000242577   0.0000101768
        0.0000299412   0.0000461438   0.0000412173   0.0000672469  -0.0000352873
       -0.0000021255   0.0000218365  -0.0000206501  -0.0000033271  -0.0000223471
        0.0000081984   0.0000060016  -0.0000126016  -0.0000002192   0.0000334512
       -0.0000208299  -0.0000094403   0.0000092812   0.0000052015   0.0000355692
       -0.0000627990   0.0000723741   0.0001382427   0.0000348771   0.0000297331
        0.0000499670  -0.0000140573   0.0000228026   0.0000203860   0.0000462762
        0.0000128267   0.0000542136   0.0001353767  -0.0004365199   0.0006498673
        0.0073876543  -0.0172743971  -0.0111830936  -0.0000585506   0.0043202573
       -0.0044040746
        0.0028888399  -0.0062397438  -0.0099867303  -0.0306078643   0.0030260786
        0.0020313497  -0.0372878713  -0.0769594700  -0.1085344461   0.0388409361
        0.1930360686   0.2464960730  -0.0202750716  -0.0064034064  -0.0434485002
       -0.0034100517   0.0006195627   0.0016814322  -0.0004404382  -0.0005816956
        0.0004605899   0.0005054170   0.0007066101  -0.0008526369  -0.0003853019
       -0.0001701508   0.0011118945   0.0001014126   0.0000491745  -0.0001140339
        0.0000138200  -0.0001373203  -0.0001696994  -0.0000820794   0.0001369580
       -0.0000745367   0.0001154445  -0.0002508469   0.0000766074  -0.0002343294
        0.0002002297   0.0000500060   0.0016939736  -0.0015681440   0.0014558092
       -0.0009814091   0.0015919907  -0.0003883041  -0.0002417915  -0.0007935181
        0.0004324365  -0.0003049236   0.0003806668   0.0002988590   0.0001864273
       -0.0001928510  -0.0001201558   0.0000896026   0.0003649264  -0.0001168280
        0.0006172188  -0.0002706719  -0.0004875852  -0.0010128873  -0.0000615501
        0.0039290364   0.0002784757   0.0001686197  -0.0009047985  -0.0001930436
       -0.0002841582  -0.0002121414  -0.0000301773  -0.0000035440  -0.0000585962
        0.0000866823  -0.0001189523  -0.0002054899   0.0000754958   0.0003486213
        0.0000155568   0.0001002805   0.0000851692   0.0004624733   0.0305946572
       -0.0746977792  -0.0917250666   0.0211634427  -0.0016883840   0.0047868503
        0.0001742672   0.0004560964  -0.0011452918  -0.0006870167  -0.0031966181
        0.0059367282  -0.0068873376  -0.0124925534  -0.0079002054   0.0002266499
        0.0001897163  -0.0005026642  -0.0002547385   0.0000041880   0.0001476637
       -0.0000009879   0.0000106679   0.0000658592   0.0000173379  -0.0000080757
       -0.0000014509  -0.0000058828   0.0000162950   0.0000319630  -0.0000129539
       -0.0000021727  -0.0000168089  -0.0000223417   0.0000084704  -0.0000163469
       -0.0000406721  -0.0000143860  -0.0000163850   0.0000211380   0.0000444450