92
 energy: -147.223860991599 gnorm: 0.000131847489 xtb: 6.7.1 (edcfbbe)
C           -0.44254951988977        2.97182670967062        1.44276708972120
C           -0.39404668143554        2.30310026653996        0.05555017056513
C           -0.58191726415633        3.36153009825744       -1.04825912657256
C            0.96048333041537        1.65482891711166       -0.13316277360876
C            2.09762590721760        2.42759795866410       -0.09227537741134
C            3.37810607787870        1.88542793485284       -0.26709915720042
N            4.49668512820271        2.70041066768047       -0.21352748172281
C            5.67504676583699        2.41993085672873        0.46030868928974
C            5.99933229717841        1.33491555088473        1.26036061931956
C            7.24903850047858        1.31923285172955        1.85460523305567
C            8.15363659956877        2.36237710797052        1.66981114889012
C            7.82405888439214        3.46248085453971        0.90145517125130
C            6.57509502477465        3.50051802675709        0.29611293239148
C            5.90601748306676        4.47245763446746       -0.52096860965264
C            6.28056879144651        5.70776761306127       -1.03248764211068
C            5.38980149940975        6.38755228627263       -1.84081313628836
C            4.14956070369772        5.83955062902566       -2.16068298966729
C            3.75412231473864        4.61133826449144       -1.66045196213422
C            4.62688302291088        3.94160003279451       -0.81622665628623
C            3.49963974553440        0.50425550886431       -0.51284303887345
C            2.38336913943082       -0.27952809621797       -0.56923934867188
C            1.09421023928147        0.26212174197187       -0.36476744244969
N           -0.00358239896697       -0.55167628783428       -0.41246407465305
C            0.18411337688217       -1.94877639072335       -0.64836840304969
C           -0.06117489927597       -2.45040985854684       -1.93630053748687
C            0.12193514068097       -3.80999663540571       -2.17389584357906
C            0.53338713685515       -4.61733623686589       -1.14910056563036
C            0.78788590136260       -4.12901295901504        0.15378789690311
C            0.60144450346347       -2.75956968444231        0.38666739420020
C            1.21438881084961       -5.13064476923961        1.08771220371441
C            1.54689993719260       -4.96080038400020        2.43911810156324
C            1.94353661029163       -6.04939069219580        3.18568189446495
C            2.02179817752572       -7.32270529712672        2.62456437235177
C            1.69612508365039       -7.50986288388274        1.28548715199734
C            1.30192853091717       -6.42563780682368        0.54521933703731
S            0.83536543490003       -6.38100462179509       -1.17922761777312
O            1.94926672548841       -6.69649678979271       -2.03957183834509
O           -0.38895013356684       -7.10507158498428       -1.41876241915557
C           -1.27723039264380       -0.07979977375607       -0.25433463465879
C           -2.36941744867238       -0.97576619693540       -0.28979965860683
C           -3.65365641381443       -0.53455603113470       -0.14721247861377
C           -3.90815569587782        0.83391306797936        0.06352800027466
N           -5.20256581585679        1.30165348415296        0.21950317164083
C           -6.29223193416908        0.95278371722861       -0.56297511178074
C           -6.35218970355296        0.13455019209304       -1.68077483626656
C           -7.57681912245645       -0.01686167987294       -2.30720664030836
C           -8.71530614181462        0.63810836728116       -1.84311076914598
C           -8.65538533675308        1.48163911835976       -0.75031865652060
C           -7.43687432374765        1.64972460223022       -0.10637460052078
C           -7.01382297430026        2.45009717699812        1.00750707714483
C           -7.67845386131952        3.31491440997503        1.86666546727111
C           -6.96524739277033        3.91031299646853        2.88934800142428
C           -5.61263842126006        3.63389916081549        3.07576249196620
C           -4.92930033870257        2.77725946208740        2.23058738810110
C           -5.62934070214561        2.20694951409869        1.17810606012741
C           -2.82304356482256        1.71836997723599        0.12790291371358
C           -1.52246143310955        1.29804249663675       -0.02810381943903
H            0.36356577812373        3.69102953811980        1.55438422312854
H           -0.34159752047031        2.21895706766509        2.22206577243869
H           -1.38372722016721        3.49482458478006        1.58602632657669
H           -0.51554964562953        2.89246269405053       -2.02797973954283
H           -1.55232244753848        3.84175370106300       -0.96312905787628
H            0.18245693396061        4.13022432685857       -0.97953473034777
H            2.02509826296648        3.48290902138117        0.11846801551598
H            5.29945437071316        0.53172166819823        1.43163323789465
H            7.52558648025986        0.48254141535216        2.47800724327541
H            9.12113664716626        2.31207542512196        2.14617968316370
H            8.51717303829968        4.28020675259663        0.77619316771015
H            7.25192480230705        6.12053425873927       -0.80714143908640
H            5.66111202416843        7.35063395492994       -2.24628409902573
H            3.48534553859764        6.38003038652522       -2.81817296987625
H            2.80454314908811        4.18350017510692       -1.94337504274618
H            4.47219705493617        0.08054656663952       -0.70569561963143
H            2.47958124849304       -1.32983865174810       -0.79239398393273
H           -0.38061247594443       -1.78153960678336       -2.71907813690775
H           -0.05674317142260       -4.22816314680711       -3.15197404983272
H            0.77822782304833       -2.33422930726909        1.36311900995660
H            1.49293752952343       -3.98200325333254        2.89200562130334
H            2.19955459795017       -5.91516763324219        4.22697970998895
H            2.33450261486372       -8.16036156613580        3.22806371914708
H            1.74863977742400       -8.48472178418317        0.82600245126562
H           -2.17812129473339       -2.02907727711897       -0.41615358901758
H           -4.47264790613912       -1.23586475658022       -0.14468379146247
H           -5.47341201868660       -0.35943591097451       -2.06542063829483
H           -7.64891344515298       -0.65251018992418       -3.17661113294808
H           -9.65402500849741        0.49131332505978       -2.35569949355198
H           -9.53319111339318        2.00567689381344       -0.40444694196698
H           -8.73246033990653        3.50856932004722        1.73918081577560
H           -7.46319100325814        4.58789508100749        3.56645871072617
H           -5.08732942325453        4.09136853142801        3.90062564629844
H           -3.88983419960159        2.54622004154482        2.40648424233213
H           -3.03833279614358        2.76624808608047        0.26554042554239
