$hessian                                                                        
        0.5164791403  -0.1581097883  -0.1958448938  -0.0851031047   0.0625795534
       -0.0180725291   0.0062564901   0.0193373773  -0.0194708316  -0.0040324954
       -0.0173216362   0.0117211875  -0.0015495957   0.0013297354  -0.0001100493
       -0.0000861484  -0.0007200727   0.0003344106   0.0000720847   0.0004002773
        0.0001744393  -0.0000050134  -0.0003007145  -0.0001046506  -0.0000650538
       -0.0000090043  -0.0000086195   0.0001099952  -0.0000937397  -0.0000477366
        0.0002051002   0.0001088744  -0.0000046393   0.0002955161  -0.0004984101
       -0.0001666098  -0.0000882673  -0.0000966647   0.0000390923   0.0003700354
       -0.0001454455   0.0000507694  -0.0003981840   0.0002137596  -0.0003504421
        0.0005488893  -0.0001407233   0.0000489540  -0.0006454586   0.0002617878
       -0.0003018665  -0.0000304887  -0.0003493758   0.0003743576   0.0000564415
       -0.0001504220  -0.0000425528  -0.0004874704  -0.0000196840   0.0001531862
        0.0005466261  -0.0005175896   0.0001834575  -0.0004082681   0.0004128802
       -0.0002113625   0.0003197127   0.0000054556  -0.0000993751  -0.0003810090
        0.0005581071  -0.0004122583   0.0009819887  -0.0006952583   0.0004427631
       -0.0012949427   0.0004058566  -0.0000907694   0.0010206370  -0.0001281986
       -0.0000597123  -0.0000572964   0.0003502438  -0.0000055795  -0.0002012724
        0.0000622445   0.0000204856  -0.0000566687   0.0004157915  -0.0003258095
       -0.0463005898   0.0265714670   0.0188828461  -0.1856451970  -0.0521540342
        0.1469356737  -0.2016343450   0.1238271129   0.0387880834   0.0017414271
       -0.0161067001   0.0116681904  -0.0012960539   0.0053829027   0.0033043934
       -0.0000115584   0.0000920927   0.0000087641   0.0000060094   0.0000129322
        0.0000001739   0.0000095691  -0.0000044776   0.0000077848   0.0000083401
       -0.0000006105   0.0000062458   0.0000011012  -0.0000161515  -0.0000017367
        0.0000032142   0.0000827671   0.0001056691   0.0000091191   0.0000291460
        0.0000492919  -0.0000127752  -0.0000096322   0.0000188072  -0.0000048323
        0.0000041420   0.0000597082  -0.0000213403   0.0000040375   0.0000606897
       -0.0000194313  -0.0000087434   0.0000126870  -0.0000073300   0.0000380498
        0.0000459561  -0.0011269562   0.0051266129   0.0034809849   0.0019297098
       -0.0000161303  -0.0012470285
       -0.1581097883   0.5215929737  -0.1796422629   0.0094589706  -0.2474295472
        0.1417970881   0.0597717754  -0.0423691291  -0.0129272792  -0.0171674883
       -0.0244136506   0.0281542398   0.0009227492  -0.0010087028  -0.0011975310
        0.0000682524   0.0003287193  -0.0002661492   0.0001154655  -0.0004119216
       -0.0000282436  -0.0000470496   0.0003275452  -0.0000002343   0.0001299263
        0.0000075223  -0.0000085175  -0.0000981549   0.0000000302   0.0000231411
       -0.0002558704  -0.0000222652  -0.0000307379  -0.0001223039   0.0003137621
        0.0000493633  -0.0000105175   0.0000542552  -0.0000240906  -0.0002848775
        0.0001637636  -0.0000026018   0.0003022629  -0.0001657539   0.0002686786
       -0.0004279362   0.0000834332  -0.0000310350   0.0005267580  -0.0001817011
        0.0002340302  -0.0000147537   0.0002754050  -0.0002947952  -0.0000129266
        0.0000991734   0.0000370011   0.0003799488   0.0000621797  -0.0001397453
       -0.0004524564   0.0003204575  -0.0001070377   0.0003163383  -0.0002737441
        0.0001446885  -0.0002477598   0.0000031265   0.0000741034   0.0002932959
       -0.0004064169   0.0003067920  -0.0007277912   0.0005009092  -0.0003241250
        0.0009581711  -0.0003038264   0.0000746498  -0.0007638615   0.0001044483
        0.0000406245   0.0001015328  -0.0002771497  -0.0000999748   0.0000602907
        0.0000626252   0.0001354094  -0.0001882472  -0.0003817887   0.0003008509
       -0.0136885851   0.0375759784  -0.0170440078   0.0009792819  -0.0972888093
        0.0357972743   0.1238381625  -0.1327908833  -0.0232740339  -0.0003179746
       -0.0074251510   0.0059381138   0.0050512474   0.0006468496   0.0016843779
        0.0000913104   0.0000279515   0.0000488433   0.0000055050  -0.0000157053
       -0.0000079160   0.0000001005   0.0000007186   0.0000145994  -0.0000028548
       -0.0000031475   0.0000014177  -0.0000028001   0.0000118585   0.0000108403
        0.0000003674  -0.0000561603  -0.0000801806  -0.0000063110  -0.0000250267
       -0.0000375055   0.0000124930   0.0000091568  -0.0000175687   0.0000038660
       -0.0000027597  -0.0000460450   0.0000085864  -0.0000069771  -0.0000495311
        0.0000065561   0.0000169909  -0.0000182907   0.0000869135   0.0000605326
        0.0000177238   0.0054200488   0.0004675860   0.0014505847  -0.0159598678
       -0.0078577353   0.0190950045
       -0.1958448938  -0.1796422629   0.4046787368   0.0226807812   0.0993230447
       -0.1404415061  -0.0494979270   0.0180270285   0.0265445761   0.0112093332
        0.0273740520  -0.0367234014   0.0003184783  -0.0005073204   0.0007842576
        0.0000623142   0.0003251361  -0.0000868324  -0.0001015291   0.0000548440
       -0.0000418492   0.0000130583  -0.0000180265   0.0001049698  -0.0000568578
        0.0000108758   0.0000062401  -0.0000033240   0.0000864545   0.0000269621
        0.0000442296  -0.0001022753   0.0000270111  -0.0001677214   0.0001653669
        0.0001120572   0.0000825977   0.0000426609  -0.0000063684  -0.0000734564
       -0.0000075193  -0.0000550162   0.0000907666  -0.0000347181   0.0000608362
       -0.0001295725   0.0000337101  -0.0000068664   0.0001281673  -0.0000494608
        0.0000507903   0.0000275776   0.0000539686  -0.0000654290  -0.0000348035
        0.0000481730   0.0000045827   0.0001058321  -0.0000256349  -0.0000216160
       -0.0001002713   0.0001462748  -0.0000511719   0.0000827558  -0.0001075834
        0.0000517860  -0.0000698514  -0.0000025509   0.0000229234   0.0000895350
       -0.0001331849   0.0000952757  -0.0002278432   0.0001640652  -0.0001042136
        0.0003195759  -0.0000820174   0.0000133101  -0.0002443160   0.0000144176
        0.0000260670  -0.0000215898  -0.0000992886   0.0000922650   0.0001805992
       -0.0000530083  -0.0000484016   0.0001731065  -0.0000015548   0.0000298408
        0.0483706289  -0.0487225335  -0.0008411618   0.1061738094   0.0782362839
       -0.1901490818   0.0387160080  -0.0233632483  -0.0470630601  -0.0003823867
        0.0190879391  -0.0126896340   0.0035978727   0.0015100542   0.0041332661
       -0.0001361286  -0.0000311366  -0.0000370935  -0.0000099983   0.0000055023
        0.0000082027  -0.0000119694   0.0000061560  -0.0000206045  -0.0000030041
        0.0000018094  -0.0000054012  -0.0000004883   0.0000049498  -0.0000077323
       -0.0000031755  -0.0000222859  -0.0000229567  -0.0000018035  -0.0000056874
       -0.0000112058   0.0000016989   0.0000012338  -0.0000019474   0.0000004177
       -0.0000018462  -0.0000137544   0.0000115437   0.0000024168  -0.0000098223
        0.0000140365  -0.0000075436   0.0000070197   0.0000160512  -0.0001290861
       -0.0000769649   0.0032865106   0.0017591990   0.0041430341   0.0113256256
        0.0066641571  -0.0124209179
       -0.0851031047   0.0094589706   0.0226807812   0.5119312291  -0.1421262106
       -0.2046925479  -0.2302170596   0.1531790226   0.0301911725  -0.0470621368
       -0.0128731876   0.0468195136   0.0008590603  -0.0004630504   0.0036906503
       -0.0002656683   0.0006876621  -0.0000039751   0.0000196205  -0.0007774457
       -0.0001613718   0.0000222765   0.0004360913   0.0000008999   0.0002277618
       -0.0000165222  -0.0000070937  -0.0001702198   0.0000097147  -0.0000021037
       -0.0002747617   0.0000642127  -0.0001642031  -0.0001278349   0.0003772412
       -0.0001232052  -0.0000171004   0.0000794200  -0.0000954541  -0.0003342393
        0.0001849687   0.0000134450   0.0003774613  -0.0001608021   0.0002768811
       -0.0005746196   0.0000204041  -0.0000031275   0.0006795054  -0.0001147082
        0.0001924701  -0.0000939489   0.0002213771  -0.0002783500   0.0000301313
        0.0001131968   0.0000354910   0.0004808589   0.0000813179  -0.0001551175
       -0.0005725504   0.0002929691  -0.0000953348   0.0003396731  -0.0002746037
        0.0001445756  -0.0002925218   0.0000206693   0.0000665575   0.0003589456
       -0.0004562642   0.0003530390  -0.0008536394   0.0005769557  -0.0003794026
        0.0011793580  -0.0002972758   0.0000828254  -0.0009057156   0.0001144256
        0.0000556235   0.0000408778  -0.0003261111  -0.0001474266   0.0001476087
        0.0001287566   0.0000638984  -0.0004578360  -0.0005375278   0.0009423381
       -0.0176690202   0.0263274104  -0.0101303352   0.0307030646  -0.0211251147
       -0.0075153387  -0.0042729061   0.0207820116  -0.0116501236  -0.1544025055
       -0.0393188721   0.1243982414  -0.0037965472   0.0045423001   0.0002629750
        0.0000943526   0.0003938277   0.0001938889  -0.0000069497  -0.0000127429
       -0.0000090984   0.0000153690  -0.0000194883   0.0000170810   0.0000144562
        0.0000015188   0.0000101713   0.0000015652   0.0000076735   0.0000216716
       -0.0000036118  -0.0000513106  -0.0000863546   0.0000009599  -0.0000333283
       -0.0000381685   0.0000243683   0.0000043200  -0.0000132098   0.0000005248
       -0.0000106169  -0.0000483102   0.0000040407  -0.0000182708  -0.0000476883
        0.0000046114   0.0000241151  -0.0000224002  -0.0000426144   0.0001063885
        0.0001134108   0.0000959897   0.0003384959  -0.0005772418  -0.0001365588
        0.0004380166   0.0058193808
        0.0625795534  -0.2474295472   0.0993230447  -0.1421262106   0.5132088590
       -0.1870688800   0.0997729048  -0.1673909271   0.0129021722   0.0272595888
        0.0348985246  -0.0501364351  -0.0023942103   0.0042850265   0.0055360202
       -0.0007103994  -0.0007080165   0.0006906711  -0.0000483866   0.0007175284
       -0.0000207300   0.0000046497  -0.0005278229  -0.0000722578  -0.0001873348
       -0.0000058023   0.0000190053   0.0001536944  -0.0000851437  -0.0000810697
        0.0001144277   0.0003184131   0.0000683103   0.0002304941  -0.0003465386
       -0.0002894033  -0.0000058261  -0.0001307546  -0.0000030725   0.0004777735
       -0.0002630348   0.0000266299  -0.0005525724   0.0003357876  -0.0005313239
        0.0007953724  -0.0001935951   0.0000700580  -0.0009547306   0.0003582546
       -0.0004197508   0.0000113890  -0.0005042635   0.0005414454   0.0000393127
       -0.0001988399  -0.0000632451  -0.0007094839  -0.0000691186   0.0002276626
        0.0008216430  -0.0006291340   0.0002182366  -0.0005544495   0.0005341348
       -0.0002748662   0.0004374967  -0.0000093933  -0.0001282934  -0.0005311409
        0.0007599320  -0.0005739556   0.0013623643  -0.0009517121   0.0006076826
       -0.0017984323   0.0005755247  -0.0001277808   0.0014232219  -0.0001962630
       -0.0000758961  -0.0000665318   0.0005360880   0.0001467866  -0.0000956030
       -0.0002839742  -0.0001592281   0.0006808097   0.0006099408  -0.0000957943
        0.0274269535  -0.0435471485   0.0080922058  -0.0600647050  -0.0048243167
        0.0526972942   0.0045504767  -0.0171723637   0.0096310901  -0.0388000964
       -0.0565075231   0.0481252735   0.0203127132  -0.0170131686  -0.0024208746
        0.0001056871  -0.0002806301  -0.0001139516   0.0000199334   0.0000106697
       -0.0000102265   0.0000071628   0.0000007275  -0.0000108024  -0.0000029889
        0.0000040759  -0.0000029151   0.0000249192  -0.0000135561   0.0000027932
        0.0000062232   0.0001035046   0.0001524545   0.0000099797   0.0000457571
        0.0000670339  -0.0000241267  -0.0000150343   0.0000259449  -0.0000075047
        0.0000091783   0.0000829932  -0.0000274879   0.0000095099   0.0000805403
        0.0000137655  -0.0000283767   0.0000448446  -0.0000591586  -0.0001035785
       -0.0000500325   0.0002938596  -0.0003758560  -0.0001811634   0.0007850101
        0.0024839965   0.0035317550
       -0.0180725291   0.1417970881  -0.1404415061  -0.2046925479  -0.1870688800
        0.4205599422   0.0701865961  -0.0283402639  -0.0803333403   0.0161306416
       -0.0186549952  -0.0001310107   0.0053080777   0.0046680681   0.0003414264
       -0.0003874302  -0.0001606387   0.0002165626   0.0001636830  -0.0001148403
        0.0000264560   0.0000032972   0.0000710020  -0.0000461837   0.0000414128
        0.0000178273  -0.0000016457  -0.0001086500  -0.0000076533  -0.0000054378
       -0.0002252289   0.0001727083  -0.0000412060   0.0003400650   0.0003732472
        0.0000822418   0.0000860618  -0.0000525072  -0.0000047099  -0.0002483438
        0.0000694640  -0.0000153514   0.0002195468  -0.0001393510   0.0002053158
       -0.0001846735   0.0001378823  -0.0000678548   0.0002293822  -0.0002455040
        0.0002281033   0.0000588619   0.0002669982  -0.0002578408  -0.0000274168
        0.0000404132   0.0000461103   0.0002227616   0.0000787991  -0.0001238870
       -0.0002903944   0.0001841742  -0.0000475436   0.0002181688  -0.0001716296
        0.0000892385  -0.0001514455  -0.0000005215   0.0000644318   0.0001748442
       -0.0002535807   0.0002007033  -0.0004569320   0.0003005434  -0.0001966423
        0.0005407538  -0.0002403606   0.0000642000  -0.0004565656   0.0001091157
        0.0000176376   0.0001160688  -0.0001648043  -0.0000401312  -0.0000957109
       -0.0001410657   0.0000892897   0.0016237738  -0.0009873995  -0.0004822458
       -0.0108712989   0.0091176352  -0.0030144842   0.0228137259   0.0212220253
       -0.0324904115   0.0004324715  -0.0030577694   0.0025964419   0.1244712843
        0.0477042993  -0.1701178276  -0.0122312256   0.0099384471   0.0023892802
       -0.0000764875  -0.0000748254   0.0000520163   0.0000012414   0.0000287054
        0.0000130415  -0.0000090372   0.0000127479   0.0000156908  -0.0000112663
        0.0000253121   0.0000093730   0.0000277226   0.0000063342  -0.0000071753
       -0.0000029007  -0.0000459392  -0.0000509326  -0.0000113095  -0.0000177960
       -0.0000301650   0.0000058469   0.0000163085  -0.0000170678   0.0000075367
        0.0000015547  -0.0000388289   0.0000141309  -0.0000043146  -0.0000432999
       -0.0000008393   0.0000119772  -0.0000225047   0.0000523905   0.0000210330
       -0.0000280771  -0.0005114402  -0.0001980933   0.0003120698   0.0056333263
        0.0037490223   0.0004777393
        0.0062564901   0.0597717754  -0.0494979270  -0.2302170596   0.0997729048
        0.0701865961   0.5010164597  -0.1623685814  -0.1826863739  -0.1599655275
       -0.0098382530   0.0935243186  -0.0396203210   0.0079783063   0.0245436892
       -0.0009865720  -0.0043675713   0.0017850020  -0.0001575889   0.0011099558
        0.0003035712   0.0000972034  -0.0010320101  -0.0002612165  -0.0003612858
       -0.0000135159   0.0000413054   0.0003166057  -0.0001761315  -0.0002393523
        0.0000144710   0.0002049326  -0.0001210642  -0.0011892941  -0.0001569773
       -0.0004928389   0.0000254168   0.0001278933  -0.0000067632   0.0005875083
       -0.0002851521   0.0000968258  -0.0006514480   0.0005653817  -0.0009459260
        0.0011935508  -0.0003733941   0.0000968177  -0.0014605214   0.0004694603
       -0.0005711076  -0.0000487215  -0.0006967094   0.0007932989   0.0000990815
       -0.0003430383  -0.0001028603  -0.0011676863  -0.0000893972   0.0003431746
        0.0013070049  -0.0008765049   0.0002854898  -0.0008496610   0.0007443225
       -0.0003653990   0.0006984409  -0.0000107069  -0.0001951715  -0.0008318721
        0.0011253231  -0.0008545418   0.0020742993  -0.0014394445   0.0009080611
       -0.0027670857   0.0008904979  -0.0001452476   0.0021378978  -0.0002727874
       -0.0001275133   0.0003037543   0.0006240577   0.0000896841  -0.0003614198
       -0.0002974927  -0.0001424539   0.0010691080   0.0047537644   0.0016297591
        0.0274293094  -0.0522457594   0.0208283850  -0.0452294419   0.0088806136
        0.0259211267   0.0027143801   0.0024466925   0.0018132979  -0.0182179144
        0.0119590137   0.0063443361  -0.0456817911   0.0308849704  -0.0153943560
        0.0003734521   0.0002091826   0.0001408441   0.0000457104   0.0000346548
       -0.0000091819   0.0000380076   0.0000036522   0.0000189756   0.0000008024
        0.0000393280  -0.0000088764  -0.0000939804  -0.0000352182   0.0000260701
       -0.0000010338   0.0001779717   0.0002516693   0.0000053252   0.0000725022
        0.0001022076  -0.0000400551  -0.0000207668   0.0000337565  -0.0000067634
        0.0000167702   0.0001311210  -0.0000310527  -0.0000064481   0.0001281662
       -0.0000263752  -0.0000679980   0.0000537139  -0.0000242447  -0.0003278645
       -0.0000561469   0.0026985795   0.0026289297   0.0016158702  -0.0005141419
       -0.0001511346   0.0001871845
        0.0193373773  -0.0423691291   0.0180270285   0.1531790226  -0.1673909271
       -0.0283402639  -0.1623685814   0.5263118710  -0.1919870445  -0.0518579849
       -0.0962652535   0.0760406302   0.0164607812   0.0062125830  -0.0123231323
        0.0003579641   0.0000185407  -0.0009268850   0.0008046451  -0.0005166058
        0.0001165217  -0.0000340123  -0.0000938363  -0.0002151048  -0.0000222628
       -0.0000606904   0.0000155179   0.0000670103  -0.0000399250   0.0000827819
        0.0002422651   0.0000452781   0.0000356223   0.0013443424  -0.0004119306
        0.0002091587  -0.0001246150  -0.0004215685   0.0000870250   0.0003898603
        0.0000861741   0.0000461890  -0.0003287901   0.0001800240  -0.0002984975
        0.0000960414  -0.0002316823   0.0001355428  -0.0001321143   0.0004236168
       -0.0003460726  -0.0001502928  -0.0003879851   0.0003756590   0.0000197685
        0.0000174410  -0.0001087596  -0.0003347365  -0.0002755264   0.0002668196
        0.0004983105   0.0000406344  -0.0000879055  -0.0003232342   0.0000478032
       -0.0000200326   0.0002341485  -0.0000020587  -0.0001075073  -0.0002339083
        0.0002547148  -0.0002328719   0.0005489597  -0.0002783734   0.0002048338
       -0.0005747287   0.0003182567  -0.0000974512   0.0005002568  -0.0001804925
       -0.0000130196  -0.0001018348   0.0001464053   0.0000922535   0.0000706151
        0.0003336664  -0.0000868894  -0.0001119746  -0.0020203339  -0.0018013629
       -0.0195736313  -0.0044787224   0.0199291840   0.0100320750  -0.0014915757
       -0.0104821067   0.0026957504  -0.0021635131   0.0053345942  -0.0040290293
        0.0036305908   0.0007295304   0.0313449757  -0.2168058007   0.1211957281
       -0.0001871175  -0.0003986113  -0.0004864683  -0.0000258634  -0.0000050980
       -0.0000326536  -0.0000033984  -0.0000150243   0.0000357631  -0.0000168980
        0.0000133641   0.0000071942   0.0000698221   0.0000060011  -0.0000445695
        0.0000013851   0.0000632938   0.0000603744   0.0000172466   0.0000334154
        0.0000477314  -0.0000151868  -0.0000397025   0.0000317865  -0.0000162602
       -0.0000084954   0.0000664806  -0.0000156252   0.0000112396   0.0000753025
        0.0000209820  -0.0000065399   0.0000121124   0.0000169662  -0.0000339391
        0.0000822742   0.0022191991  -0.0023560738   0.0052963261   0.0000123098
        0.0005545004  -0.0006013674
       -0.0194708316  -0.0129272792   0.0265445761   0.0301911725   0.0129021722
       -0.0803333403  -0.1826863739  -0.1919870445   0.4082045729   0.1326674530
        0.0395437872  -0.1814328335   0.0151879535  -0.0052811547  -0.0061032260
       -0.0003501591   0.0008984464  -0.0003999077  -0.0003426142  -0.0006707058
       -0.0007017736   0.0001527214   0.0005200744  -0.0000337524   0.0002049312
       -0.0000489778   0.0000426238  -0.0001507442   0.0000185167   0.0000342659
       -0.0003845096   0.0002000478   0.0001285462   0.0002798059   0.0003272109
        0.0002055713  -0.0000574256   0.0000241538  -0.0000511981  -0.0004745044
        0.0002865098  -0.0000075079   0.0004721449  -0.0002144630   0.0004090644
       -0.0006743313   0.0000932186  -0.0000145194   0.0007743567  -0.0002196664
        0.0002996460  -0.0000129074   0.0003280074  -0.0003820777  -0.0000334080
        0.0001682571   0.0000464049   0.0005815198   0.0000554589  -0.0001925269
       -0.0006584018   0.0004944373  -0.0001657921   0.0004624743  -0.0004081189
        0.0002059953  -0.0003779304   0.0000013903   0.0001097333   0.0004499992
       -0.0006070660   0.0004520309  -0.0011004075   0.0007580707  -0.0004942553
        0.0014925622  -0.0004063624   0.0000931662  -0.0011694737   0.0001374326
        0.0000791287   0.0001686701  -0.0003735084  -0.0000915028  -0.0000399331
        0.0000996368   0.0001815933  -0.0012573733  -0.0011949193   0.0003348259
       -0.0066909011   0.0478846570  -0.0313960457   0.0249522577  -0.0097387841
       -0.0174698197   0.0018306414   0.0054850944   0.0021877960   0.0184033201
       -0.0118190575  -0.0048942020  -0.0153192411   0.1214768595  -0.1169099585
        0.0004281188  -0.0006854794  -0.0001724650   0.0000188803   0.0000032934
       -0.0000049491   0.0000422006  -0.0000283515   0.0000164563   0.0000104083
        0.0000045985  -0.0000125710   0.0000014361   0.0000315939  -0.0000075267
       -0.0000003211  -0.0000766082  -0.0001236683  -0.0000016632  -0.0000372599
       -0.0000546286   0.0000177471   0.0000059650  -0.0000211139   0.0000026315
       -0.0000092312  -0.0000662571   0.0000202003  -0.0000123542  -0.0000696513
       -0.0000075398   0.0000248400  -0.0000337356   0.0001545548   0.0002727224
       -0.0000081874   0.0019767961   0.0051519977   0.0019024917   0.0003160375
       -0.0004520582   0.0001705046
       -0.0040324954  -0.0171674883   0.0112093332  -0.0470621368   0.0272595888
        0.0161306416  -0.1599655275  -0.0518579849   0.1326674530   0.4931512395
       -0.1139937481  -0.1802252958  -0.1776750626   0.0782004857   0.0296874793
        0.0026427061   0.0152011280  -0.0029785673  -0.0001421407  -0.0036563871
       -0.0006555409  -0.0002154357   0.0017580910   0.0009419847   0.0003556269
       -0.0001850404  -0.0001087827  -0.0003479084   0.0007617738   0.0005393767
        0.0011019845  -0.0031150202  -0.0004871245  -0.0037027062  -0.0014371209
        0.0003628932  -0.0012991347   0.0012259266   0.0000556701   0.0002538737
        0.0000490625  -0.0002799169   0.0002083224  -0.0010727068   0.0015827631
       -0.0014376809   0.0008006977  -0.0001497593   0.0019496395  -0.0004223748
        0.0005275106   0.0000669525   0.0007793966  -0.0009616634  -0.0001770283
        0.0006762597   0.0000449301   0.0013860672  -0.0003991714  -0.0001034993
       -0.0013269764   0.0015507748  -0.0005987428   0.0008169499  -0.0011863151
        0.0005648912  -0.0007165296   0.0000184958   0.0001423986   0.0009126734
       -0.0014140500   0.0010484752  -0.0024581432   0.0019508187  -0.0010995071
        0.0033169040  -0.0012809242   0.0000611924  -0.0024650671   0.0003184821
        0.0000828269  -0.0015902490  -0.0003302154  -0.0001544040   0.0026783019
        0.0018599600   0.0000821691  -0.0324340440   0.0114577836   0.0095938794
       -0.0776762466   0.0426533897  -0.0147625723   0.0031730670   0.0190051917
       -0.0194101385   0.0007087616  -0.0004791952   0.0002635188  -0.0006904635
        0.0046798181   0.0030474745   0.0023975856   0.0004614999  -0.0010507129
       -0.0002040354  -0.0010157617  -0.0006468699  -0.0001523742  -0.0003187759
       -0.0000470074  -0.0000266274  -0.0001333363  -0.0001682729   0.0001664168
       -0.0002742115  -0.0000253480  -0.0002243519  -0.0000530709  -0.0000467157
       -0.0000046511  -0.0002645616  -0.0003659427   0.0000029993  -0.0000664592
       -0.0000992831   0.0000398181   0.0000012300  -0.0000008264  -0.0000038231
       -0.0000387464  -0.0001326166   0.0000269342   0.0000456496  -0.0001027066
        0.0002457166   0.0002178543  -0.0000699232   0.0000797371  -0.0002116473
        0.0001211668   0.0009642961  -0.0157831954   0.0121427297  -0.0006157344
        0.0052241501   0.0038309818
       -0.0173216362  -0.0244136506   0.0273740520  -0.0128731876   0.0348985246
       -0.0186549952  -0.0098382530  -0.0962652535   0.0395437872  -0.1139937481
        0.5176962353  -0.1751821977   0.0778335128  -0.1354346691  -0.0174158807
        0.0221316282  -0.0241736771  -0.0013261605   0.0007497883   0.0020102195
        0.0003710377   0.0001871929  -0.0013273373  -0.0004608025  -0.0005056167
        0.0001544235   0.0001414904   0.0017723469  -0.0005797967  -0.0005873814
        0.0000661115  -0.0047191577  -0.0014397564  -0.0042434350   0.0003051687
       -0.0003507873   0.0003429372   0.0004237616   0.0002189556  -0.0000872308
       -0.0001261237   0.0002754381  -0.0000844931   0.0007491737  -0.0012349544
        0.0011476720  -0.0005261090   0.0000466770  -0.0014999835   0.0001413300
       -0.0002516379  -0.0000386903  -0.0004113930   0.0006010918   0.0001356745
       -0.0005025560  -0.0000336870  -0.0011294939   0.0002253630   0.0000942818
        0.0010990427  -0.0009277548   0.0003342894  -0.0005995588   0.0007243735
       -0.0003305269   0.0005571914  -0.0000298012  -0.0001067056  -0.0007052623
        0.0009991322  -0.0007464940   0.0018065693  -0.0013614871   0.0008018142
       -0.0025379655   0.0008847433   0.0000139484   0.0018319676  -0.0001964799
       -0.0001363305   0.0011445015   0.0001708217   0.0003348527  -0.0027100008
       -0.0008835888   0.0001272127   0.0050323245   0.0109250430  -0.0013912848
        0.0010205278  -0.2225022085   0.1347416442   0.0591169427  -0.0417766341
       -0.0159632543  -0.0004827993   0.0001766802   0.0006664214   0.0054679625
        0.0008266889   0.0020227508  -0.0152771075  -0.0086746209   0.0195043534
       -0.0002064892  -0.0003591652   0.0000029262   0.0001160045   0.0002377985
        0.0000310183  -0.0000075959   0.0001393687   0.0000705576  -0.0000416565
       -0.0002612466  -0.0000665044  -0.0002740144  -0.0000125700   0.0001036853
        0.0000011296   0.0001931664   0.0002662256  -0.0000075004   0.0000541998
        0.0000726742  -0.0000400871  -0.0000038789  -0.0000041787   0.0000042644
        0.0000269261   0.0001031320  -0.0000131699  -0.0000682647   0.0000695089
       -0.0001731099  -0.0001583569   0.0000538826  -0.0011360986  -0.0003860591
       -0.0004071166  -0.0002759912  -0.0069453631   0.0064767641   0.0045388825
        0.0010640614   0.0016261631
        0.0117211875   0.0281542398  -0.0367234014   0.0468195136  -0.0501364351
       -0.0001310107   0.0935243186   0.0760406302  -0.1814328335  -0.1802252958
       -0.1751821977   0.3986453600   0.0306371978  -0.0161256190  -0.0461773809
        0.0022855984  -0.0049225079  -0.0049079871   0.0001520631   0.0008278096
       -0.0006478867   0.0002300699  -0.0005060820   0.0003071210  -0.0001717676
        0.0000558457  -0.0000709601   0.0003721857  -0.0003434339   0.0006314708
       -0.0003087479  -0.0005496780   0.0025698175   0.0005584858  -0.0006204002
        0.0030885138   0.0001547859  -0.0002214684   0.0008347429   0.0001344278
       -0.0001082717  -0.0000199547  -0.0001789047   0.0001430699  -0.0003773105
        0.0004017017  -0.0000608515  -0.0000530247  -0.0003910239   0.0000995318
       -0.0001114059  -0.0000602376  -0.0000168836   0.0001327988   0.0000413854
       -0.0001035041  -0.0000266252  -0.0004022200  -0.0000080758   0.0000770778
        0.0003913458  -0.0002040029   0.0000720050  -0.0002471827   0.0001450858
       -0.0000789458   0.0002677228   0.0000106588  -0.0000309412  -0.0002913300
        0.0003418199  -0.0002640922   0.0006194464  -0.0004853428   0.0002834542
       -0.0009289828   0.0001677096   0.0000205049   0.0006107393  -0.0000952363
       -0.0000284478   0.0002967450   0.0002017826   0.0005303760  -0.0007802357
       -0.0001283086  -0.0008999758   0.0035691673   0.0009115915  -0.0062565650
        0.0222595692   0.0956138080  -0.1374186189  -0.0494741181   0.0160744844
        0.0263263521   0.0002196422   0.0006382234  -0.0001925168   0.0029968922
        0.0019461872   0.0044346819   0.0113198022   0.0073068262  -0.0128753619
       -0.0000110097   0.0002549228   0.0000069749   0.0000296045   0.0000423637
        0.0000475728   0.0000077216   0.0000443793  -0.0000823071  -0.0000231884
       -0.0000036698  -0.0000227659  -0.0000543473   0.0000202129  -0.0001209868
        0.0000082257   0.0000733961   0.0000761233  -0.0000008042   0.0000189241
        0.0000203487  -0.0000169465  -0.0000009487   0.0000047348   0.0000022296
        0.0000076587   0.0000305812   0.0000247915   0.0000179984   0.0000574231
       -0.0000732643  -0.0000817596   0.0001024094   0.0000013184   0.0000295906
       -0.0001693733   0.0003612414   0.0193851672  -0.0132930306   0.0036204806
        0.0013307595   0.0041132656
       -0.0015495957   0.0009227492   0.0003184783   0.0008590603  -0.0023942103
        0.0053080777  -0.0396203210   0.0164607812   0.0151879535  -0.1776750626
        0.0778335128   0.0306371978   0.6568268638  -0.0663973651  -0.0751452782
       -0.0814295046  -0.0082876367   0.0076265480   0.0015014241  -0.0283378629
       -0.0049183581  -0.0031543843  -0.0022018897  -0.0003713420  -0.0030131857
       -0.0023151312  -0.0000959169  -0.0039492019   0.0068745395   0.0015795036
       -0.0156017310   0.0179796344   0.0052822441  -0.0557686293   0.0297371159
        0.0112803024   0.0004525439   0.0063272457   0.0018966788  -0.0087468073
        0.0029145245   0.0015636259   0.0062116285   0.0013378104  -0.0022784935
       -0.0008500042  -0.0017372854  -0.0004731602   0.0007121841  -0.0021660791
        0.0021541582  -0.0010122896   0.0017740852  -0.0018159405   0.0016548333
       -0.0012718157   0.0007033458   0.0007537598   0.0031993909  -0.0024736846
       -0.0027927713  -0.0011386467   0.0008600103   0.0021235515  -0.0000508443
        0.0002539920  -0.0013922389   0.0001328862   0.0007378880   0.0014415323
       -0.0012655459   0.0013947279  -0.0029081873   0.0007706366  -0.0012541957
        0.0027294343  -0.0003031884   0.0017745066  -0.0028773779   0.0015855118