      -----------------------------------------------------------      
     |                   =====================                   |     
     |                           x T B                           |     
     |                   =====================                   |     
     |                         S. Grimme                         |     
     |          Mulliken Center for Theoretical Chemistry        |     
     |                    University of Bonn                     |     
      -----------------------------------------------------------      

   * xtb version 6.7.1 (edcfbbe) compiled by 'albert@albert-system' on 2024-07-22

   xtb is free software: you can redistribute it and/or modify it under
   the terms of the GNU Lesser General Public License as published by
   the Free Software Foundation, either version 3 of the License, or
   (at your option) any later version.
   
   xtb is distributed in the hope that it will be useful,
   but WITHOUT ANY WARRANTY; without even the implied warranty of
   MERCHANTABILITY or FITNESS FOR A PARTICULAR PURPOSE.  See the
   GNU Lesser General Public License for more details.
   
   Cite this work as:
   * C. Bannwarth, E. Caldeweyher, S. Ehlert, A. Hansen, P. Pracht,
     J. Seibert, S. Spicher, S. Grimme, WIREs Comput. Mol. Sci., 2020, 11,
     e01493. DOI: 10.1002/wcms.1493
   
   for GFN2-xTB:
   * C. Bannwarth, S. Ehlert and S. Grimme., J. Chem. Theory Comput., 2019,
     15, 1652-1671. DOI: 10.1021/acs.jctc.8b01176
   for GFN1-xTB:
   * S. Grimme, C. Bannwarth, P. Shushkov, J. Chem. Theory Comput., 2017,
     13, 1989-2009. DOI: 10.1021/acs.jctc.7b00118
   for GFN0-xTB:
   * P. Pracht, E. Caldeweyher, S. Ehlert, S. Grimme, ChemRxiv, 2019, preprint.
     DOI: 10.26434/chemrxiv.8326202.v1
   for GFN-FF:
   * S. Spicher and S. Grimme, Angew. Chem. Int. Ed., 2020, 59, 15665-15673.
     DOI: 10.1002/anie.202004239
   
   for ALPB and GBSA implicit solvation:
   * S. Ehlert, M. Stahn, S. Spicher, S. Grimme, J. Chem. Theory Comput.,
     2021, 17, 4250-4261. DOI: 10.1021/acs.jctc.1c00471
   
   for ddCOSMO and CPCM-X implicit solvation:
   * M. Stahn, S. Ehlert, S. Grimme, J. Phys. Chem. A,
     2023, XX, XXXX-XXXX. DOI: 10.1021/acs.jpca.3c04382
   
   for DFT-D4:
   * E. Caldeweyher, C. Bannwarth and S. Grimme, J. Chem. Phys., 2017,
     147, 034112. DOI: 10.1063/1.4993215
   * E. Caldeweyher, S. Ehlert, A. Hansen, H. Neugebauer, S. Spicher,
     C. Bannwarth and S. Grimme, J. Chem. Phys., 2019, 150, 154122.
     DOI: 10.1063/1.5090222
   * E. Caldeweyher, J.-M. Mewes, S. Ehlert and S. Grimme, Phys. Chem. Chem. Phys.
     2020, 22, 8499-8512. DOI: 10.1039/D0CP00502A
   
   for sTDA-xTB:
   * S. Grimme and C. Bannwarth, J. Chem. Phys., 2016, 145, 054103.
     DOI: 10.1063/1.4959605
   
   in the mass-spec context:
   * V. Asgeirsson, C. Bauer and S. Grimme, Chem. Sci., 2017, 8, 4879.
     DOI: 10.1039/c7sc00601b
   * J. Koopman and S. Grimme, ACS Omega 2019, 4, 12, 15120-15133.
     DOI: 10.1021/acsomega.9b02011
   
   for metadynamics refer to:
   * S. Grimme, J. Chem. Theory Comput., 2019, 155, 2847-2862
     DOI: 10.1021/acs.jctc.9b00143
   
   for SPH calculations refer to:
   * S. Spicher and S. Grimme, J. Chem. Theory Comput., 2021, 17, 1701-1714
     DOI: 10.1021/acs.jctc.0c01306
   
   for ONIOM refer to:
   * C. Plett, A. Katbashev, S. Ehlert, S. Grimme, M. Bursch,
     Phys. Chem. Chem. Phys., 2023, 25, 17860-17868. DOI: 10.1039/D3CP02178E
   
   for DIPRO refer to:
   * J. Kohn, N. Gildemeister, S. Grimme, D. Fazzi, A. Hansen,
     J. Chem. Phys., 2023, just accepted.
   
   for PTB refer to:
   * S. Grimme, M. Mueller, A. Hansen, J. Chem. Phys., 2023, 158, 124111.
     DOI: 10.1063/5.0137838
   
   with help from (in alphabetical order)
   P. Atkinson, C. Bannwarth, F. Bohle, G. Brandenburg, E. Caldeweyher
   M. Checinski, S. Dohm, S. Ehlert, S. Ehrlich, I. Gerasimov, C. Hölzer
   A. Katbashev, J. Kohn, J. Koopman, C. Lavigne, S. Lehtola, F. März, M. Müller,
   F. Musil, H. Neugebauer, J. Pisarek, C. Plett, P. Pracht, F. Pultar,
   J. Seibert, P. Shushkov, S. Spicher, M. Stahn, M. Steiner, T. Strunk,
   J. Stückrath, T. Rose, and J. Unsleber
   
 * started run on 2025/09/13 at 15:59:38.005     
   ID    Z sym.   atoms
    1    6 C      1-9, 11-14, 16-19, 21-45
    2    7 N      10, 15, 20
    3    1 H      46-80

           -------------------------------------------------
          |                Calculation Setup                |
           -------------------------------------------------

          program call               : xtb data2507/gas/DMAC-Cz/DMAC-Cz.xyz --gfn 2 --ohess vtight --parallel 40 --molden --ceasefiles --namespace data2507/gas/DMAC-Cz/DMAC-Cz_gas_S0_preOpt
          calculation namespace      : data2507/gas/DMAC-Cz/DMAC-Cz_gas_S0_preOpt
          coordinate file            : data2507/gas/DMAC-Cz/DMAC-Cz.xyz
          omp threads                :                    40


           -------------------------------------------------
          |                 G F N 2 - x T B                 |
           -------------------------------------------------

        Reference                      10.1021/acs.jctc.8b01176
      * Hamiltonian:
        H0-scaling (s, p, d)           1.850000    2.230000    2.230000
        zeta-weighting                 0.500000
      * Dispersion:
        s8                             2.700000
        a1                             0.520000
        a2                             5.000000
        s9                             5.000000
      * Repulsion:
        kExp                           1.500000    1.000000
        rExp                           1.000000
      * Coulomb:
        alpha                          2.000000
        third order                    shell-resolved
        anisotropic                    true
        a3                             3.000000
        a5                             4.000000
        cn-shift                       1.200000
        cn-exp                         4.000000
        max-rad                        5.000000


          ...................................................
          :                      SETUP                      :
          :.................................................:
          :  # basis functions                 215          :
          :  # atomic orbitals                 215          :
          :  # shells                          125          :
          :  # electrons                       218          :
          :  max. iterations                   250          :
          :  Hamiltonian                  GFN2-xTB          :
          :  restarted?                      false          :
          :  GBSA solvation                  false          :
          :  PC potential                    false          :
          :  electronic temp.          300.0000000     K    :
          :  accuracy                    1.0000000          :
          :  -> integral cutoff          0.2500000E+02      :
          :  -> integral neglect         0.1000000E-07      :
          :  -> SCF convergence          0.1000000E-05 Eh   :
          :  -> wf. convergence          0.1000000E-03 e    :
          :  Broyden damping             0.4000000          :
          :  net charge                          0          :
          :  unpaired electrons                  0          :
          ...................................................

 iter      E             dE          RMSdq      gap      omega  full diag
   1   -118.4798798 -0.118480E+03  0.384E+00    2.31       0.0  T
   2   -118.5697044 -0.898247E-01  0.236E+00    2.51       1.0  T
   3   -118.5429321  0.267724E-01  0.996E-01    2.15       1.0  T
   4   -118.5780383 -0.351062E-01  0.345E-01    2.17       1.0  T
   5   -118.5860896 -0.805131E-02  0.962E-02    2.21       1.0  T
   6   -118.5864211 -0.331504E-03  0.419E-02    2.21       1.0  T
   7   -118.5864925 -0.713767E-04  0.200E-02    2.21       1.0  T
   8   -118.5864947 -0.222454E-05  0.727E-03    2.22       1.5  T
   9   -118.5864987 -0.400379E-05  0.172E-03    2.22       6.5  T
  10   -118.5864988 -0.948559E-07  0.819E-04    2.22      13.7  T
  11   -118.5864988 -0.346560E-07  0.348E-04    2.22      32.1  T

   *** convergence criteria satisfied after 11 iterations ***

         #    Occupation            Energy/Eh            Energy/eV
      -------------------------------------------------------------
         1        2.0000           -0.6881503             -18.7255
       ...           ...                  ...                  ...
       103        2.0000           -0.3882216             -10.5640
       104        2.0000           -0.3879127             -10.5556
       105        2.0000           -0.3834019             -10.4329
       106        2.0000           -0.3833955             -10.4327
       107        2.0000           -0.3748447             -10.2000
       108        2.0000           -0.3412137              -9.2849
       109        2.0000           -0.3406331              -9.2691 (HOMO)
       110                         -0.2591692              -7.0524 (LUMO)
       111                         -0.2373204              -6.4578
       112                         -0.2189066              -5.9568
       113                         -0.2189065              -5.9567
       114                         -0.2178371              -5.9276
       ...                                ...                  ...
       215                          0.7139714              19.4282
      -------------------------------------------------------------
                  HL-Gap            0.0814639 Eh            2.2167 eV
             Fermi-level           -0.2999012 Eh           -8.1607 eV

 SCC (total)                   0 d,  0 h,  0 min,  0.142 sec
 SCC setup                      ...        0 min,  0.001 sec (  0.490%)
 Dispersion                     ...        0 min,  0.004 sec (  2.525%)
 classical contributions        ...        0 min,  0.000 sec (  0.268%)
 integral evaluation            ...        0 min,  0.007 sec (  5.080%)
 iterations                     ...        0 min,  0.118 sec ( 83.205%)
 molecular gradient             ...        0 min,  0.011 sec (  7.992%)
 printout                       ...        0 min,  0.001 sec (  0.375%)

         :::::::::::::::::::::::::::::::::::::::::::::::::::::
         ::                     SUMMARY                     ::
         :::::::::::::::::::::::::::::::::::::::::::::::::::::
         :: total energy            -116.632718482964 Eh    ::
         :: gradient norm              0.097767487708 Eh/a0 ::
         :: HOMO-LUMO gap              2.216746615313 eV    ::
         ::.................................................::
         :: SCC energy              -118.585353382413 Eh    ::
         :: -> isotropic ES            0.016616890779 Eh    ::
         :: -> anisotropic ES          0.021555502176 Eh    ::
         :: -> anisotropic XC          0.065859727924 Eh    ::
         :: -> dispersion             -0.108397536580 Eh    ::
         :: repulsion energy           1.952634899449 Eh    ::
         :: add. restraining           0.000000000000 Eh    ::
         :: total charge              -0.000000000000 e     ::
         :::::::::::::::::::::::::::::::::::::::::::::::::::::

      ----------------------------------------------------------- 
     |                   =====================                   |
     |                        A N C O P T                        |
     |                   =====================                   |
     |               Approximate Normal Coordinate               |
     |                Rational Function Optimizer                |
      ----------------------------------------------------------- 

Optimization log is written to '/dev/null'
      ----------------------------------------------------------- 
     |                   =====================                   |
     |                        A N C O P T                        |
     |                   =====================                   |
     |               Approximate Normal Coordinate               |
     |                Rational Function Optimizer                |
      ----------------------------------------------------------- 

          ...................................................
          :                      SETUP                      :
          :.................................................:
          :   optimization level         verytight          :
          :   max. optcycles                  1600          :
          :   ANC micro-cycles                  20          :
          :   degrees of freedom               234          :
          :.................................................:
          :   RF solver                   davidson          :
          :   write xtbopt.log                true          :
          :   linear?                        false          :
          :   energy convergence         0.1000000E-06 Eh   :
          :   grad. convergence          0.2000000E-03 Eh/α :
          :   maxmium RF displ.          1.0000000          :
          :   Hlow (freq-cutoff)         0.1000000E-01      :
          :   Hmax (freq-cutoff)         5.0000000          :
          :   S6 in model hess.         20.0000000          :
          ...................................................

generating ANC from exact Hessian ...
Using Lindh-Hessian (1995)
 Shifting diagonal of input Hessian by   9.934117795622950E-003
 Lowest  eigenvalues of input Hessian
    0.000000    0.000000    0.000000    0.000000    0.000000    0.000000
    0.010000    0.010007    0.010069    0.010274    0.010274    0.010636
    0.010990    0.011523    0.012131    0.012143    0.012555    0.012559
 Highest eigenvalues
    1.982560    1.982561    2.033135    2.066296    2.117184    2.201041
 

........................................................................
.............................. CYCLE    1 ..............................
........................................................................

 iter      E             dE          RMSdq      gap      omega  full diag
   1   -118.5864988 -0.118586E+03  0.127E-04    2.22       0.0  T
   2   -118.5864988 -0.310507E-09  0.813E-05    2.22     137.6  T
   3   -118.5864988 -0.281659E-09  0.494E-05    2.22     226.5  T
     SCC iter.                  ...        0 min,  0.030 sec
     gradient                   ...        0 min,  0.010 sec
 * total energy  :  -116.6327185 Eh     change       -0.3271111E-08 Eh
   gradient norm :     0.0977696 Eh/α   predicted     0.0000000E+00 (-100.00%)
   displ. norm   :     0.5089460 α      lambda       -0.2608184E-01
   maximum displ.:     0.3900721 α      in ANC's #50, #54, #21, ...

........................................................................
.............................. CYCLE    2 ..............................
........................................................................

 iter      E             dE          RMSdq      gap      omega  full diag
   1   -118.6865819 -0.118687E+03  0.187E-01    2.21       0.0  T
   2   -118.6868873 -0.305333E-03  0.127E-01    2.24       1.0  T
   3   -118.6868843  0.296893E-05  0.679E-02    2.22       1.0  T
   4   -118.6871069 -0.222649E-03  0.176E-02    2.22       1.0  T
   5   -118.6871295 -0.225358E-04  0.485E-03    2.22       2.3  T
   6   -118.6871310 -0.151932E-05  0.197E-03    2.22       5.7  T
   7   -118.6871310 -0.490194E-07  0.544E-04    2.22      20.6  T
   8   -118.6871310 -0.829881E-08  0.232E-04    2.22      48.1  T
     SCC iter.                  ...        0 min,  0.072 sec
     gradient                   ...        0 min,  0.010 sec
 * total energy  :  -116.6520668 Eh     change       -0.1934835E-01 Eh
   gradient norm :     0.0430825 Eh/α   predicted    -0.1642871E-01 ( -15.09%)
   displ. norm   :     0.4822123 α      lambda       -0.1098255E-01
   maximum displ.:     0.3522008 α      in ANC's #50, #21, #54, ...

........................................................................
.............................. CYCLE    3 ..............................
........................................................................

 iter      E             dE          RMSdq      gap      omega  full diag
   1   -118.7573162 -0.118757E+03  0.146E-01    2.20       0.0  T
   2   -118.7576602 -0.344039E-03  0.106E-01    2.22       1.0  T
   3   -118.7578200 -0.159755E-03  0.550E-02    2.20       1.0  T
   4   -118.7578734 -0.534278E-04  0.202E-02    2.21       1.0  T
   5   -118.7578994 -0.260020E-04  0.465E-03    2.20       2.4  T
   6   -118.7579011 -0.167044E-05  0.151E-03    2.20       7.4  T
   7   -118.7579011 -0.286993E-07  0.478E-04    2.20      23.4  T
   8   -118.7579011 -0.419131E-08  0.219E-04    2.20      51.1  T
     SCC iter.                  ...        0 min,  0.071 sec
     gradient                   ...        0 min,  0.010 sec
 * total energy  :  -116.6588469 Eh     change       -0.6780107E-02 Eh
   gradient norm :     0.0108128 Eh/α   predicted    -0.6768478E-02 (  -0.17%)
   displ. norm   :     0.3048674 α      lambda       -0.1777394E-02
   maximum displ.:     0.2374720 α      in ANC's #21, #50, #14, ...

........................................................................
.............................. CYCLE    4 ..............................
........................................................................

 iter      E             dE          RMSdq      gap      omega  full diag
   1   -118.7747881 -0.118775E+03  0.615E-02    2.19       0.0  T
   2   -118.7748318 -0.436919E-04  0.433E-02    2.19       1.0  T
   3   -118.7748391 -0.739221E-05  0.226E-02    2.18       1.0  T
   4   -118.7748572 -0.180875E-04  0.693E-03    2.19       1.6  T
   5   -118.7748608 -0.359427E-05  0.155E-03    2.19       7.2  T
   6   -118.7748610 -0.190912E-06  0.443E-04    2.19      25.2  T
   7   -118.7748610 -0.304794E-08  0.172E-04    2.19      64.9  T
     SCC iter.                  ...        0 min,  0.062 sec
     gradient                   ...        0 min,  0.010 sec
 * total energy  :  -116.6600890 Eh     change       -0.1242071E-02 Eh
   gradient norm :     0.0089170 Eh/α   predicted    -0.9715534E-03 ( -21.78%)
   displ. norm   :     0.2939567 α      lambda       -0.8595992E-03
   maximum displ.:     0.2402867 α      in ANC's #21, #14, #50, ...

........................................................................
.............................. CYCLE    5 ..............................
........................................................................

 iter      E             dE          RMSdq      gap      omega  full diag
   1   -118.7798245 -0.118780E+03  0.530E-02    2.17       0.0  T
   2   -118.7798319 -0.743571E-05  0.331E-02    2.18       1.0  T
   3   -118.7798125  0.194269E-04  0.153E-02    2.17       1.0  T
   4   -118.7798360 -0.235251E-04  0.256E-03    2.17       4.4  T
   5   -118.7798366 -0.633354E-06  0.745E-04    2.17      15.0  T
   6   -118.7798367 -0.263171E-07  0.338E-04    2.17      33.1  T
     SCC iter.                  ...        0 min,  0.054 sec
     gradient                   ...        0 min,  0.010 sec
 * total energy  :  -116.6606433 Eh     change       -0.5542894E-03 Eh
   gradient norm :     0.0048390 Eh/α   predicted    -0.4669639E-03 ( -15.75%)
   displ. norm   :     0.1497097 α      lambda       -0.1888234E-03
   maximum displ.:     0.1054825 α      in ANC's #21, #14, #6, ...

........................................................................
.............................. CYCLE    6 ..............................
........................................................................

 iter      E             dE          RMSdq      gap      omega  full diag
   1   -118.7796799 -0.118780E+03  0.286E-02    2.17       0.0  T
   2   -118.7796803 -0.361621E-06  0.170E-02    2.17       1.0  T
   3   -118.7796790  0.123948E-05  0.380E-03    2.17       2.9  T
   4   -118.7796805 -0.144883E-05  0.596E-04    2.17      18.8  T
   5   -118.7796805 -0.109082E-07  0.305E-04    2.17      36.7  T
   6   -118.7796805 -0.233312E-08  0.971E-05    2.17     115.2  T
     SCC iter.                  ...        0 min,  0.054 sec
     gradient                   ...        0 min,  0.010 sec
 * total energy  :  -116.6607606 Eh     change       -0.1172804E-03 Eh
   gradient norm :     0.0023281 Eh/α   predicted    -0.9658514E-04 ( -17.65%)
   displ. norm   :     0.0621585 α      lambda       -0.3757535E-04
   maximum displ.:     0.0526371 α      in ANC's #14, #21, #6, ...

........................................................................
.............................. CYCLE    7 ..............................
........................................................................

 iter      E             dE          RMSdq      gap      omega  full diag
   1   -118.7793575 -0.118779E+03  0.148E-02    2.17       0.0  T
   2   -118.7793577 -0.207970E-06  0.869E-03    2.17       1.3  T
   3   -118.7793574  0.289813E-06  0.204E-03    2.17       5.5  T
   4   -118.7793578 -0.342280E-06  0.347E-04    2.17      32.2  T
   5   -118.7793578 -0.865415E-08  0.161E-04    2.17      69.6  T
     SCC iter.                  ...        0 min,  0.046 sec
     gradient                   ...        0 min,  0.010 sec
 * total energy  :  -116.6607868 Eh     change       -0.2624753E-04 Eh
   gradient norm :     0.0012853 Eh/α   predicted    -0.1905879E-04 ( -27.39%)
   displ. norm   :     0.0622617 α      lambda       -0.1613183E-04
   maximum displ.:     0.0473505 α      in ANC's #14, #6, #11, ...

........................................................................
.............................. CYCLE    8 ..............................
........................................................................

 iter      E             dE          RMSdq      gap      omega  full diag
   1   -118.7792683 -0.118779E+03  0.170E-02    2.18       0.0  T
   2   -118.7792685 -0.198567E-06  0.999E-03    2.17       1.1  T
   3   -118.7792682  0.228782E-06  0.188E-03    2.18       5.9  T
   4   -118.7792685 -0.276505E-06  0.308E-04    2.18      36.3  T
   5   -118.7792685 -0.559943E-08  0.137E-04    2.18      81.3  T
     SCC iter.                  ...        0 min,  0.048 sec
     gradient                   ...        0 min,  0.010 sec
 * total energy  :  -116.6608016 Eh     change       -0.1478470E-04 Eh
   gradient norm :     0.0010870 Eh/α   predicted    -0.8104449E-05 ( -45.18%)
   displ. norm   :     0.0611707 α      lambda        0.7387254E-05
   maximum displ.:     0.0466164 α      in ANC's #14, #6, #11, ...

........................................................................
.............................. CYCLE    9 ..............................
........................................................................

 iter      E             dE          RMSdq      gap      omega  full diag
   1   -118.7791071 -0.118779E+03  0.167E-02    2.18       0.0  T
   2   -118.7791073 -0.196462E-06  0.982E-03    2.18       1.1  T
   3   -118.7791071  0.211702E-06  0.183E-03    2.18       6.1  T
   4   -118.7791074 -0.257487E-06  0.300E-04    2.18      37.2  T
   5   -118.7791074 -0.512949E-08  0.134E-04    2.18      83.1  T
     SCC iter.                  ...        0 min,  0.045 sec
     gradient                   ...        0 min,  0.010 sec
 * total energy  :  -116.6607974 Eh     change        0.4234393E-05 Eh
   gradient norm :     0.0026065 Eh/α   predicted     0.3698052E-05 ( -12.67%)
   displ. norm   :     0.0141126 α      lambda       -0.1211187E-04
   maximum displ.:     0.0092762 α      in ANC's #14, #50, #91, ...

........................................................................
.............................. CYCLE   10 ..............................
........................................................................

 iter      E             dE          RMSdq      gap      omega  full diag
   1   -118.7795262 -0.118780E+03  0.484E-03    2.18       0.0  T
   2   -118.7795263 -0.108827E-06  0.292E-03    2.18       3.8  T
   3   -118.7795262  0.934232E-07  0.136E-03    2.18       8.2  T
   4   -118.7795263 -0.122961E-06  0.299E-04    2.18      37.3  T
   5   -118.7795263 -0.900972E-08  0.890E-05    2.18     125.6  T
     SCC iter.                  ...        0 min,  0.045 sec
     gradient                   ...        0 min,  0.010 sec
 * total energy  :  -116.6608066 Eh     change       -0.9196446E-05 Eh
   gradient norm :     0.0014434 Eh/α   predicted    -0.6057609E-05 ( -34.13%)
   displ. norm   :     0.0295629 α      lambda       -0.9055088E-05
   maximum displ.:     0.0173958 α      in ANC's #11, #6, #50, ...

........................................................................
.............................. CYCLE   11 ..............................
........................................................................

 iter      E             dE          RMSdq      gap      omega  full diag
   1   -118.7801198 -0.118780E+03  0.937E-03    2.17       0.0  T
   2   -118.7801200 -0.240041E-06  0.555E-03    2.18       2.0  T
   3   -118.7801197  0.288896E-06  0.216E-03    2.17       5.2  T
   4   -118.7801201 -0.348104E-06  0.425E-04    2.17      26.3  T
   5   -118.7801201 -0.183314E-07  0.139E-04    2.17      80.2  T
     SCC iter.                  ...        0 min,  0.046 sec
     gradient                   ...        0 min,  0.010 sec
 * total energy  :  -116.6608120 Eh     change       -0.5382638E-05 Eh
   gradient norm :     0.0007200 Eh/α   predicted    -0.4529800E-05 ( -15.84%)
   displ. norm   :     0.0219066 α      lambda       -0.1912967E-05
   maximum displ.:     0.0129326 α      in ANC's #6, #11, #14, ...

........................................................................
.............................. CYCLE   12 ..............................
........................................................................

 iter      E             dE          RMSdq      gap      omega  full diag
   1   -118.7799808 -0.118780E+03  0.580E-03    2.18       0.0  T
   2   -118.7799808 -0.201893E-07  0.342E-03    2.18       3.3  T
   3   -118.7799808  0.475090E-07  0.706E-04    2.18      15.8  T
   4   -118.7799808 -0.529386E-07  0.133E-04    2.18      84.3  T
     SCC iter.                  ...        0 min,  0.041 sec
     gradient                   ...        0 min,  0.011 sec
 * total energy  :  -116.6608142 Eh     change       -0.2234656E-05 Eh
   gradient norm :     0.0002996 Eh/α   predicted    -0.9638042E-06 ( -56.87%)
   displ. norm   :     0.0290263 α      lambda       -0.1421343E-05
   maximum displ.:     0.0194429 α      in ANC's #6, #11, #14, ...

........................................................................
.............................. CYCLE   13 ..............................
........................................................................

 iter      E             dE          RMSdq      gap      omega  full diag
   1   -118.7799112 -0.118780E+03  0.754E-03    2.18       0.0  T
   2   -118.7799112 -0.120569E-07  0.443E-03    2.18       2.5  T
   3   -118.7799112  0.253124E-07  0.505E-04    2.18      22.1  T
   4   -118.7799112 -0.291339E-07  0.112E-04    2.18      99.8  T
     SCC iter.                  ...        0 min,  0.036 sec
     gradient                   ...        0 min,  0.010 sec
 * total energy  :  -116.6608158 Eh     change       -0.1577490E-05 Eh
   gradient norm :     0.0000868 Eh/α   predicted    -0.7128567E-06 ( -54.81%)
   displ. norm   :     0.0213084 α      lambda       -0.6723523E-06
   maximum displ.:     0.0154358 α      in ANC's #6, #11, #3, ...

........................................................................
.............................. CYCLE   14 ..............................
........................................................................

 iter      E             dE          RMSdq      gap      omega  full diag
   1   -118.7799324 -0.118780E+03  0.531E-03    2.18       0.0  T
   2   -118.7799324 -0.260977E-08  0.311E-03    2.18       3.6  T
   3   -118.7799324  0.762611E-09  0.144E-04    2.18      77.8  T
   4   -118.7799324 -0.184038E-08  0.587E-05    2.18     190.5  T
     SCC iter.                  ...        0 min,  0.037 sec
     gradient                   ...        0 min,  0.010 sec
 * total energy  :  -116.6608166 Eh     change       -0.8449890E-06 Eh
   gradient norm :     0.0001297 Eh/α   predicted    -0.3403134E-06 ( -59.73%)
   displ. norm   :     0.0189784 α      lambda       -0.5441294E-06
   maximum displ.:     0.0138065 α      in ANC's #6, #11, #3, ...

........................................................................
.............................. CYCLE   15 ..............................
........................................................................

 iter      E             dE          RMSdq      gap      omega  full diag
   1   -118.7799511 -0.118780E+03  0.438E-03    2.18       0.0  T
   2   -118.7799511 -0.182190E-08  0.257E-03    2.18       4.4  T
   3   -118.7799511 -0.275207E-09  0.967E-05    2.18     115.6  T
   4   -118.7799511 -0.494666E-09  0.441E-05    2.18     253.6  T
     SCC iter.                  ...        0 min,  0.036 sec
     gradient                   ...        0 min,  0.010 sec
 * total energy  :  -116.6608173 Eh     change       -0.6809678E-06 Eh
   gradient norm :     0.0001119 Eh/α   predicted    -0.2725681E-06 ( -59.97%)
   displ. norm   :     0.0179382 α      lambda       -0.4447267E-06
   maximum displ.:     0.0129059 α      in ANC's #6, #3, #11, ...

........................................................................
.............................. CYCLE   16 ..............................
........................................................................

 iter      E             dE          RMSdq      gap      omega  full diag
   1   -118.7799711 -0.118780E+03  0.355E-03    2.18       0.0  T
   2   -118.7799711 -0.151482E-08  0.208E-03    2.18       5.4  T
   3   -118.7799711  0.324377E-09  0.112E-04    2.18      99.8  T
   4   -118.7799711 -0.965727E-09  0.416E-05    2.18     268.9  T
     SCC iter.                  ...        0 min,  0.035 sec
     gradient                   ...        0 min,  0.010 sec
 * total energy  :  -116.6608179 Eh     change       -0.5493855E-06 Eh
   gradient norm :     0.0000765 Eh/α   predicted    -0.2228724E-06 ( -59.43%)
   displ. norm   :     0.0169432 α      lambda       -0.3742628E-06
   maximum displ.:     0.0119765 α      in ANC's #6, #3, #14, ...

........................................................................
.............................. CYCLE   17 ..............................
........................................................................

 iter      E             dE          RMSdq      gap      omega  full diag
   1   -118.7799799 -0.118780E+03  0.269E-03    2.18       0.0  T
   2   -118.7799799 -0.952326E-09  0.158E-03    2.18       7.1  T
   3   -118.7799799  0.139609E-08  0.126E-04    2.18      88.8  T
   4   -118.7799799 -0.183729E-08  0.312E-05    2.18     358.7  T
     SCC iter.                  ...        0 min,  0.038 sec
     gradient                   ...        0 min,  0.010 sec
 * total energy  :  -116.6608183 Eh     change       -0.4847092E-06 Eh
   gradient norm :     0.0000641 Eh/α   predicted    -0.1881384E-06 ( -61.19%)
   displ. norm   :     0.0189803 α      lambda       -0.4106485E-06
   maximum displ.:     0.0133081 α      in ANC's #3, #6, #14, ...

........................................................................
.............................. CYCLE   18 ..............................
........................................................................

 iter      E             dE          RMSdq      gap      omega  full diag
   1   -118.7799833 -0.118780E+03  0.219E-03    2.18       0.0  T
   2   -118.7799833 -0.623558E-09  0.129E-03    2.18       8.7  T
   3   -118.7799833  0.407738E-09  0.829E-05    2.18     134.9  T
   4   -118.7799833 -0.685830E-09  0.273E-05    2.18     409.8  T
     SCC iter.                  ...        0 min,  0.036 sec
     gradient                   ...        0 min,  0.010 sec
 * total energy  :  -116.6608189 Eh     change       -0.5769099E-06 Eh
   gradient norm :     0.0000850 Eh/α   predicted    -0.2060467E-06 ( -64.28%)
   displ. norm   :     0.0302367 α      lambda       -0.6821066E-06
   maximum displ.:     0.0213113 α      in ANC's #3, #6, #11, ...

........................................................................
.............................. CYCLE   19 ..............................
........................................................................

 iter      E             dE          RMSdq      gap      omega  full diag
   1   -118.7799838 -0.118780E+03  0.273E-03    2.18       0.0  T
   2   -118.7799838 -0.822908E-09  0.160E-03    2.18       7.0  T
   3   -118.7799838  0.154230E-09  0.813E-05    2.18     137.5  T
   4   -118.7799838 -0.549264E-09  0.333E-05    2.18     335.8  T
     SCC iter.                  ...        0 min,  0.035 sec
     gradient                   ...        0 min,  0.010 sec
 * total energy  :  -116.6608199 Eh     change       -0.9555170E-06 Eh
   gradient norm :     0.0001099 Eh/α   predicted    -0.3424695E-06 ( -64.16%)
   displ. norm   :     0.0554415 α      lambda       -0.1178787E-05
   maximum displ.:     0.0391836 α      in ANC's #3, #6, #11, ...

........................................................................
.............................. CYCLE   20 ..............................
........................................................................

 iter      E             dE          RMSdq      gap      omega  full diag
   1   -118.7799809 -0.118780E+03  0.491E-03    2.18       0.0  T
   2   -118.7799809 -0.272455E-08  0.289E-03    2.18       3.9  T
   3   -118.7799809  0.450569E-09  0.145E-04    2.18      77.3  T
   4   -118.7799809 -0.166885E-08  0.643E-05    2.18     174.0  T
     SCC iter.                  ...        0 min,  0.036 sec
     gradient                   ...        0 min,  0.010 sec
 * total energy  :  -116.6608214 Eh     change       -0.1560584E-05 Eh
   gradient norm :     0.0001282 Eh/α   predicted    -0.5937375E-06 ( -61.95%)
   displ. norm   :     0.0870315 α      lambda       -0.1513012E-05
   maximum displ.:     0.0614988 α      in ANC's #3, #6, #11, ...
 * RMSD in coord.:     0.1801289 α      energy gain  -0.2810295E-01 Eh

generating ANC from exact Hessian ...
Using Lindh-Hessian (1995)
 Shifting diagonal of input Hessian by   9.921903773654907E-003
 Lowest  eigenvalues of input Hessian
    0.000000    0.000000    0.000000    0.000000    0.000000    0.000000
    0.010000    0.010005    0.010079    0.010327    0.010336    0.010808
    0.011140    0.011854    0.012557    0.012579    0.013032    0.013037
 Highest eigenvalues
    2.107589    2.145836    2.162702    2.162703    2.200302    2.237316
 

........................................................................
.............................. CYCLE   21 ..............................
........................................................................

 iter      E             dE          RMSdq      gap      omega  full diag
   1   -118.7799993 -0.118780E+03  0.804E-03    2.18       0.0  T
   2   -118.7799993 -0.641724E-08  0.473E-03    2.18       2.4  T
   3   -118.7799993  0.680359E-09  0.223E-04    2.18      50.2  T
   4   -118.7799993 -0.385396E-08  0.980E-05    2.18     114.1  T
     SCC iter.                  ...        0 min,  0.035 sec
     gradient                   ...        0 min,  0.010 sec
 * total energy  :  -116.6608231 Eh     change       -0.1711574E-05 Eh
   gradient norm :     0.0001285 Eh/α   predicted     0.0000000E+00 (-100.00%)
   displ. norm   :     0.0035291 α      lambda       -0.1653420E-07
   maximum displ.:     0.0025604 α      in ANC's #3, #14, #66, ...

........................................................................
.............................. CYCLE   22 ..............................
........................................................................

 iter      E             dE          RMSdq      gap      omega  full diag
   1   -118.7800180 -0.118780E+03  0.122E-03    2.18       0.0  T
   2   -118.7800180 -0.388823E-09  0.721E-04    2.18      15.5  T
   3   -118.7800180  0.812392E-09  0.951E-05    2.18     117.5  T
     SCC iter.                  ...        0 min,  0.026 sec
     gradient                   ...        0 min,  0.010 sec
 * total energy  :  -116.6608232 Eh     change       -0.1007298E-06 Eh
   gradient norm :     0.0000657 Eh/α   predicted    -0.6301556E-07 ( -37.44%)
   displ. norm   :     0.0041258 α      lambda       -0.6523810E-07
   maximum displ.:     0.0031450 α      in ANC's #3, #14, #22, ...

........................................................................
.............................. CYCLE   23 ..............................
........................................................................

 iter      E             dE          RMSdq      gap      omega  full diag
   1   -118.7800249 -0.118780E+03  0.969E-04    2.18       0.0  T
   2   -118.7800249 -0.225441E-09  0.569E-04    2.18      19.6  T
   3   -118.7800249  0.151687E-09  0.519E-05    2.18     215.2  T
     SCC iter.                  ...        0 min,  0.028 sec
     gradient                   ...        0 min,  0.010 sec
 * total energy  :  -116.6608233 Eh     change       -0.8735611E-07 Eh
   gradient norm :     0.0000583 Eh/α   predicted    -0.3412258E-07 ( -60.94%)
   displ. norm   :     0.0059371 α      lambda       -0.7772041E-07
   maximum displ.:     0.0047444 α      in ANC's #3, #14, #6, ...

   *** GEOMETRY OPTIMIZATION CONVERGED AFTER 23 ITERATIONS ***

------------------------------------------------------------------------
 total energy gain   :        -0.0281048 Eh      -17.6361 kcal/mol
 total RMSD          :         0.1803265 a0        0.0954 Å
 total power (kW/mol):        -3.2082291 (step)  -49.5439 (real)
------------------------------------------------------------------------

 ANCopt (total)                0 d,  0 h,  0 min,  1.489 sec
 optimizer setup                ...        0 min,  0.000 sec (  0.018%)
 model hessian                  ...        0 min,  0.100 sec (  6.727%)
 ANC generation                 ...        0 min,  0.013 sec (  0.885%)
 coordinate transformation      ...        0 min,  0.002 sec (  0.124%)
 single point calculation       ...        0 min,  1.359 sec ( 91.240%)
 optimization log               ...        0 min,  0.006 sec (  0.421%)
 hessian update                 ...        0 min,  0.003 sec (  0.198%)
 rational function              ...        0 min,  0.003 sec (  0.219%)

================
 final structure:
================
80
 xtb: 6.7.1 (edcfbbe)
C           -5.87633255056415       -0.00021124642744        3.06587169894582
C           -6.12342086415729       -0.00010478452287        1.54620229980240
C           -7.63469500928109       -0.00008419266408        1.25235568970693
C           -5.51325735556024        1.25708521003643        0.95540738829984
C           -5.95967797613387        2.50009876257134        1.38168162257366
C           -5.44053338099633        3.67908421043593        0.87918735672300
C           -4.44378086193845        3.62515460520673       -0.07813073167366
C           -3.98108466205224        2.40368729588661       -0.51960292292989
C           -4.50518621199056        1.21038937742997       -0.01359848922318
N           -4.01949113246740        0.00003748633331       -0.47681179051207
C           -3.01129317876727        0.00010695086898       -1.48253824296081
C           -3.39561594191090        0.00018330335621       -2.82754317842340
C           -2.45831653870706        0.00024897804492       -3.84055269145140
C           -1.11836523172339        0.00023715968055       -3.48175694917214
N           -0.00000708175048        0.00028487219421       -4.27506761252029
C            1.11835289283407        0.00024283290191       -3.48175951886342
C            2.45830336515832        0.00026289612374       -3.84055836939416
C            3.39560507481217        0.00020044460381       -2.82755100972529
C            3.01128545868075        0.00012050570977       -1.48254516742813
N            4.01948607553678        0.00004425681443       -0.47682137305515
C            4.50514811721366       -1.21037746950833       -0.01375589322405
C            3.98101006787711       -2.40360009276715       -0.51989986164253
C            4.44367580711648       -3.62513330871810       -0.07857783913071
C            5.44043365721190       -3.67920579210848        0.87872653086534
C            5.95961425217125       -2.50029514119048        1.38135899944305
C            5.51322552234135       -1.25721800017574        0.95523700900135
C            6.12342848147250       -0.00011643304688        1.54617960552571
C            7.63469978320615       -0.00013775214959        1.25231762228360
C            5.87635561698422       -0.00019201802641        3.06585151559230
C            5.51329059507348        1.25707871891659        0.95536912593011
C            5.95974729322500        2.50008840537211        1.38161688694650
C            5.44062804629316        3.67907820677739        0.87910667394301
C            4.44386332444786        3.62515715347432       -0.07819925933119
C            3.98113227661690        2.40369376995113       -0.51964612868960
C            4.50521118836475        1.21039159511234       -0.01362847835535
C            1.67530907182249        0.00010590703728       -1.11857153320871
C            0.71811147618981        0.00016616479775       -2.12371000660240
C           -0.71812065836430        0.00016094534913       -2.12370836429095
C           -1.67531594243666        0.00009644884903       -1.11856772028484
C           -4.50517862005205       -1.21037967781834       -0.01376194473916
C           -3.98106922964258       -2.40360652408597       -0.51992537437943
C           -4.44376576443769       -3.62513582298512       -0.07862443542443
C           -5.44052597101119       -3.67919977263136        0.87867801935957
C           -5.95967510601748       -2.50028479101157        1.38133276047076
C           -5.51325398838189       -1.25721150484947        0.95523339796826
H           -4.80645278896315       -0.00022729227088        3.26603203982244
H           -6.31187032085060       -0.88080756982409        3.53005735970856
H           -6.31186684783096        0.88032216182138        3.53017993596691
H           -8.11240012650583        0.88022226425169        1.67351554906606
H           -7.80204406516670       -0.00001157485669        0.17678309771664
H           -8.11239981165882       -0.88044776923107        1.67339635077747
H           -6.73668217727174        2.55743546302161        2.12917653021126
H           -5.81135965910714        4.62897337100924        1.23328381395981
H           -4.02348679588280        4.53376738103597       -0.48338168965515
H           -3.20244033479605        2.36707680467666       -1.26621369342194
H           -4.44934093330794        0.00017037764030       -3.06262152693882
H           -2.75943421545213        0.00029844979621       -4.87723782215293
H           -0.00000822392050        0.00033812901015       -5.28044569161367
H            2.75941866395185        0.00032166669399       -4.87724418787663
H            4.44932953294971        0.00020825295085       -3.06263175721925
H            3.20236116816200       -2.36687910084384       -1.26650044466173
H            4.02335205274939       -4.53368560846880       -0.48393366358257
H            5.81123430991465       -4.62914772654647        1.23270790438291
H            6.73662172390132       -2.55774322840726        2.12884191538957
H            8.11243513488765        0.88014876338694        1.67348495417009
H            7.80203779978833       -0.00005502231478        0.17674324943202
H            8.11238276399020       -0.88052150833369        1.67334092412771
H            6.31190104095096       -0.88077738999402        3.53005074004126
H            4.80647787006834       -0.00020713445182        3.26602283422036
H            6.31189190678454        0.88035211529748        3.53013759531199
H            6.73676018210290        2.55741847634325        2.12910321076672
H            5.81148054338807        4.62896406070372        1.23318423553543
H            4.02358518048635        4.53377360795645       -0.48345859069045
H            3.20247802819339        2.36708942638078       -1.26624706402334
H            1.39445007513675        0.00004462460131       -0.07668776320160
H           -1.39445457917843        0.00004251720407       -0.07668458771198
H           -3.20241803851471       -2.36689164665334       -1.26652406509361
H           -4.02346222752476       -4.53369179155157       -0.48399309463137
H           -5.81134937239704       -4.62913839672760        1.23264408752215
H           -6.73668264538306       -2.55772629245526        2.12881599760055
 
 Bond Distances (Angstroems)
 ---------------------------
C1-C2=1.5396         C1-H46=1.0884        C1-H47=1.0866        C1-H48=1.0866        C2-C1=1.5396         C2-C3=1.5396         
C2-C4=1.5172         C2-C45=1.5172        C3-C2=1.5396         C3-H49=1.0865        C3-H50=1.0885        C3-H51=1.0865        
C4-C2=1.5172         C4-C5=1.3878         C4-C9=1.3991         C5-C4=1.3878         C5-C6=1.3828         C5-H52=1.0797        
C6-C5=1.3828         C6-C7=1.3831         C6-H53=1.0794        C7-C6=1.3831         C7-C8=1.3788         C7-H54=1.0800        
C8-C7=1.3788         C8-C9=1.3981         C8-H55=1.0794        C9-C4=1.3991         C9-C8=1.3981         C9-N10=1.3840        
N10-C9=1.3840        N10-C11=1.4241       N10-C40=1.3840       C11-N10=1.4241       C11-C12=1.3988       C11-C39=1.3847       
C12-C11=1.3988       C12-C13=1.3801       C12-H56=1.0796       C13-C12=1.3801       C13-C14=1.3872       C13-H57=1.0795       
C14-C13=1.3872       C14-N15=1.3712       C14-C38=1.4158       N15-C14=1.3712       N15-C16=1.3712       N15-H58=1.0054       
C16-N15=1.3712       C16-C17=1.3872       C16-C37=1.4158       C17-C16=1.3872       C17-C18=1.3801       C17-H59=1.0795       
C18-C17=1.3801       C18-C19=1.3988       C18-H60=1.0796       C19-C18=1.3988       C19-N20=1.4241       C19-C36=1.3847       
N20-C19=1.4241       N20-C21=1.3840       N20-C35=1.3840       C21-N20=1.3840       C21-C22=1.3981       C21-C26=1.3991       
C22-C21=1.3981       C22-C23=1.3788       C22-H61=1.0794       C23-C22=1.3788       C23-C24=1.3831       C23-H62=1.0800       
C24-C23=1.3831       C24-C25=1.3828       C24-H63=1.0794       C25-C24=1.3828       C25-C26=1.3878       C25-H64=1.0797       
C26-C21=1.3991       C26-C25=1.3878       C26-C27=1.5172       C27-C26=1.5172       C27-C28=1.5396       C27-C29=1.5396       
C27-C30=1.5172       C28-C27=1.5396       C28-H65=1.0865       C28-H66=1.0885       C28-H67=1.0865       C29-C27=1.5396       
C29-H68=1.0866       C29-H69=1.0884       C29-H70=1.0866       C30-C27=1.5172       C30-C31=1.3878       C30-C35=1.3991       
C31-C30=1.3878       C31-C32=1.3828       C31-H71=1.0797       C32-C31=1.3828       C32-C33=1.3831       C32-H72=1.0794       
C33-C32=1.3831       C33-C34=1.3788       C33-H73=1.0800       C34-C33=1.3788       C34-C35=1.3981       C34-H74=1.0794       
C35-N20=1.3840       C35-C30=1.3991       C35-C34=1.3981       C36-C19=1.3847       C36-C37=1.3880       C36-H75=1.0791       
C37-C16=1.4158       C37-C36=1.3880       C37-C38=1.4362       C38-C14=1.4158       C38-C37=1.4362       C38-C39=1.3880       
C39-C11=1.3847       C39-C38=1.3880       C39-H76=1.0791       C40-N10=1.3840       C40-C41=1.3981       C40-C45=1.3991       
C41-C40=1.3981       C41-C42=1.3788       C41-H77=1.0794       C42-C41=1.3788       C42-C43=1.3831       C42-H78=1.0800       
C43-C42=1.3831       C43-C44=1.3828       C43-H79=1.0794       C44-C43=1.3828       C44-C45=1.3878       C44-H80=1.0797       
C45-C2=1.5172        C45-C40=1.3991       C45-C44=1.3878       H46-C1=1.0884        H47-C1=1.0866        H48-C1=1.0866        
H49-C3=1.0865        H50-C3=1.0885        H51-C3=1.0865        H52-C5=1.0797        H53-C6=1.0794        H54-C7=1.0800        
H55-C8=1.0794        H56-C12=1.0796       H57-C13=1.0795       H58-N15=1.0054       H59-C17=1.0795       H60-C18=1.0796       
H61-C22=1.0794       H62-C23=1.0800       H63-C24=1.0794       H64-C25=1.0797       H65-C28=1.0865       H66-C28=1.0885       
H67-C28=1.0865       H68-C29=1.0866       H69-C29=1.0884       H70-C29=1.0866       H71-C31=1.0797       H72-C32=1.0794       
H73-C33=1.0800       H74-C34=1.0794       H75-C36=1.0791       H76-C39=1.0791       H77-C41=1.0794       H78-C42=1.0800       
H79-C43=1.0794       H80-C44=1.0797       
 C  H  Rav=1.0823 sigma=0.0037  Rmin=1.0791  Rmax=1.0885    34
 C  C  Rav=1.4154 sigma=0.0539  Rmin=1.3788  Rmax=1.5396    45
 N  H  Rav=1.0054 sigma=0.0000  Rmin=1.0054  Rmax=1.0054     1
 N  C  Rav=1.3908 sigma=0.0199  Rmin=1.3712  Rmax=1.4241     8
 
 selected bond angles (degree)
 --------------------
H46-C1-C2=109.83               H47-C1-C2=110.94               H47-C1-H46=108.39              H48-C1-C2=110.94               
H48-C1-H46=108.39              H48-C1-H47=108.27              C3-C2-C1=110.24                C4-C2-C1=108.65                
C4-C2-C3=108.69                C45-C2-C1=108.65               C45-C2-C3=108.69               C45-C2-C4=111.91               
H49-C3-C2=110.95               H50-C3-C2=109.85               H50-C3-H49=108.38              H51-C3-C2=110.95               
H51-C3-H49=108.24              H51-C3-H50=108.38              C5-C4-C2=119.55                C9-C4-C2=122.13                
C9-C4-C5=118.32                C6-C5-C4=122.09                H52-C5-C4=119.45               H52-C5-C6=118.46               
C7-C6-C5=119.27                H53-C6-C5=120.14               H53-C6-C7=120.59               C8-C7-C6=119.87                
H54-C7-C6=120.49               H54-C7-C8=119.64               C9-C8-C7=120.96                H55-C8-C7=119.58               
H55-C8-C9=119.46               C8-C9-C4=119.49                N10-C9-C4=120.92               N10-C9-C8=119.59               
C11-N10-C9=119.00              C40-N10-C9=121.99              C40-N10-C11=119.00             
 
 selected dihedral angles (degree)
 ---------------------------------
C3-C2-C1-H46=180.00           C3-C2-C1-H47= 60.20           C3-C2-C1-H48=299.80           C4-C2-C1-H46=299.01           
C4-C2-C1-H47=179.20           C4-C2-C1-H48= 58.81           C45-C2-C1-H46= 60.99          C45-C2-C1-H47=301.19          
C45-C2-C1-H48=180.80          H49-C3-C2-C1= 60.18           H49-C3-C2-C4=301.20           H49-C3-C2-C45=179.17          
H50-C3-C2-C1=180.00           H50-C3-C2-C4= 61.01           H50-C3-C2-C45=298.99          H51-C3-C2-C1=299.82           
H51-C3-C2-C4=180.83           H51-C3-C2-C45= 58.80          C5-C4-C2-C1=299.77            C5-C4-C2-C3= 59.75            
C5-C4-C2-C45=179.79           C9-C4-C2-C1=119.73            C9-C4-C2-C3=239.70            C9-C4-C2-C45=359.75           
C6-C5-C4-C2=179.98            C6-C5-C4-C9=  0.02            H52-C5-C4-C2=  0.00           H52-C5-C4-C9=180.03           
C7-C6-C5-C4=359.95            C7-C6-C5-H52=179.94           H53-C6-C5-C4=179.99           H53-C6-C5-H52=  0.00          
C8-C7-C6-C5=  0.03            C8-C7-C6-H53=179.99           H54-C7-C6-C5=180.06           H54-C7-C6-H53=  0.00          
C9-C8-C7-C6=  0.00            C9-C8-C7-H54=179.98           H55-C8-C7-C6=180.05           H55-C8-C7-H54=  0.02          
C8-C9-C4-C2=180.06            C8-C9-C4-C5=  0.00            N10-C9-C4-C2=  0.00           N10-C9-C4-C5=179.97           
C4-C9-C8-C7=359.96            C4-C9-C8-H55=179.92           N10-C9-C8-C7=180.01           N10-C9-C8-H55=359.97          
C11-N10-C9-C4=178.79          C11-N10-C9-C8=358.74          C40-N10-C9-C4=  0.27          C40-N10-C9-C8=180.22          
           -------------------------------------------------
          |                Final Singlepoint                |
           -------------------------------------------------

          ...................................................
          :                      SETUP                      :
          :.................................................:
          :  # basis functions                 215          :
          :  # atomic orbitals                 215          :
          :  # shells                          125          :
          :  # electrons                       218          :
          :  max. iterations                   250          :
          :  Hamiltonian                  GFN2-xTB          :
          :  restarted?                      false          :
          :  GBSA solvation                  false          :
          :  PC potential                    false          :
          :  electronic temp.          300.0000000     K    :
          :  accuracy                    1.0000000          :
          :  -> integral cutoff          0.2500000E+02      :
          :  -> integral neglect         0.1000000E-07      :
          :  -> SCF convergence          0.1000000E-05 Eh   :
          :  -> wf. convergence          0.1000000E-03 e    :
          :  Broyden damping             0.4000000          :
          :  net charge                          0          :
          :  unpaired electrons                  0          :
          ...................................................

 iter      E             dE          RMSdq      gap      omega  full diag
   1   -118.7800249 -0.118780E+03  0.138E-05    2.18       0.0  T
   2   -118.7800249 -0.444800E-11  0.900E-06    2.18    1242.3  T
   3   -118.7800249 -0.535749E-11  0.433E-06    2.18    2580.0  T

   *** convergence criteria satisfied after 3 iterations ***

         #    Occupation            Energy/Eh            Energy/eV
      -------------------------------------------------------------
         1        2.0000           -0.6906478             -18.7935
       ...           ...                  ...                  ...
       103        2.0000           -0.3910910             -10.6421
       104        2.0000           -0.3903981             -10.6233
       105        2.0000           -0.3858678             -10.5000
       106        2.0000           -0.3858617             -10.4998
       107        2.0000           -0.3780306             -10.2867
       108        2.0000           -0.3391682              -9.2292
       109        2.0000           -0.3386477              -9.2151 (HOMO)
       110                         -0.2587163              -7.0400 (LUMO)
       111                         -0.2364566              -6.4343
       112                         -0.2169531              -5.9036
       113                         -0.2169453              -5.9034
       114                         -0.2120785              -5.7709
       ...                                ...                  ...
       215                          0.7325702              19.9343
      -------------------------------------------------------------
                  HL-Gap            0.0799314 Eh            2.1750 eV
             Fermi-level           -0.2986820 Eh           -8.1276 eV

 SCC (total)                   0 d,  0 h,  0 min,  0.042 sec
 SCC setup                      ...        0 min,  0.000 sec (  0.439%)
 Dispersion                     ...        0 min,  0.001 sec (  2.396%)
 classical contributions        ...        0 min,  0.000 sec (  0.076%)
 integral evaluation            ...        0 min,  0.004 sec (  8.587%)
 iterations                     ...        0 min,  0.026 sec ( 63.034%)
 molecular gradient             ...        0 min,  0.010 sec ( 24.088%)
 printout                       ...        0 min,  0.001 sec (  1.219%)

         :::::::::::::::::::::::::::::::::::::::::::::::::::::
         ::                     SUMMARY                     ::
         :::::::::::::::::::::::::::::::::::::::::::::::::::::
         :: total energy            -116.660823331154 Eh    ::
         :: gradient norm              0.000059019601 Eh/a0 ::
         :: HOMO-LUMO gap              2.175045124330 eV    ::
         ::.................................................::
         :: SCC energy              -118.778797198669 Eh    ::
         :: -> isotropic ES            0.016840632544 Eh    ::
         :: -> anisotropic ES          0.019604800770 Eh    ::
         :: -> anisotropic XC          0.061789382251 Eh    ::
         :: -> dispersion             -0.111288090045 Eh    ::
         :: repulsion energy           2.117973867515 Eh    ::
         :: add. restraining           0.000000000000 Eh    ::
         :: total charge               0.000000000000 e     ::
         :::::::::::::::::::::::::::::::::::::::::::::::::::::

           ------------------------------------------------- 
          |                Numerical Hessian                |
           ------------------------------------------------- 
step length          :   0.00500
SCC accuracy         :   0.30000
Hessian scale factor :   1.00000
frozen atoms in %    :   0.00000    0
RMS gradient         :   0.00006
estimated CPU  time     28.54 min
estimated wall time      0.72 min

writing file <hessian>.

 projected vibrational frequencies (cm⁻¹)
eigval :       -0.00    -0.00    -0.00     0.00     0.00     0.00
eigval :        4.49     6.80    13.69    21.81    27.28    35.55
eigval :       46.71    52.19    92.82    93.49    95.32   101.46
eigval :      103.67   119.22   123.53   129.50   129.54   165.84
eigval :      175.22   190.54   190.70   197.21   215.43   220.31
eigval :      220.61   234.09   236.18   237.99   253.63   304.14
eigval :      305.12   330.84   331.04   339.50   344.82   345.46
eigval :      352.08   360.30   369.13   380.83   382.71   395.52
eigval :      396.01   398.41   411.51   418.07   432.05   451.51
eigval :      452.23   466.17   475.70   482.97   499.99   515.57
eigval :      515.65   516.44   536.00   543.65   547.46   547.47
eigval :      550.36   556.67   586.18   587.23   598.47   615.38
eigval :      621.19   632.99   656.71   664.34   669.26   682.64
eigval :      682.86   693.32   693.33   694.37   711.97   717.49
eigval :      732.89   775.69   776.03   777.20   777.42   803.50
eigval :      813.14   814.73   826.68   826.71   854.28   859.30
eigval :      863.74   863.99   864.26   864.49   872.23   874.59
eigval :      904.04   904.41   912.17   912.21   913.05   913.08
eigval :      917.23   917.36   920.18   920.18   920.21   920.21
eigval :      934.00   938.41   940.05   956.91   956.91   989.10
eigval :     1014.24  1014.24  1023.20  1077.55  1077.57  1083.13
eigval :     1084.47  1112.33  1112.52  1119.35  1119.37  1135.03
eigval :     1140.70  1140.73  1144.19  1158.35  1159.24  1160.52
eigval :     1160.55  1170.65  1184.30  1187.06  1187.46  1187.66
eigval :     1187.81  1190.68  1203.69  1226.31  1235.66  1246.99
eigval :     1249.53  1249.68  1251.99  1268.32  1268.34  1287.18
eigval :     1295.01  1295.03  1296.13  1326.82  1326.86  1327.14
eigval :     1329.89  1336.11  1336.58  1346.97  1347.72  1348.27
eigval :     1378.56  1402.36  1402.38  1419.66  1420.54  1420.94
eigval :     1429.62  1437.64  1438.20  1445.47  1445.96  1480.41
eigval :     1482.03  1482.83  1483.26  1490.51  1490.55  1491.27
eigval :     1491.27  1497.44  1499.37  1500.91  1500.94  1505.82
eigval :     1505.95  1568.03  1575.28  1575.35  1579.55  1590.56
eigval :     1590.67  1593.45  1593.75  1602.80  1603.69  1604.42
eigval :     1618.53  3026.08  3026.13  3028.52  3028.53  3038.19
eigval :     3038.20  3040.97  3041.01  3047.13  3047.13  3050.91
eigval :     3051.00  3075.50  3075.54  3075.62  3075.68  3080.39
eigval :     3080.45  3080.56  3080.61  3083.11  3083.50  3091.42
eigval :     3091.50  3091.59  3092.02  3097.20  3097.51  3097.75
eigval :     3097.81  3098.08  3098.57  3099.17  3101.11  3490.03
           -------------------------------------------------
          |                Property Printout                |
           -------------------------------------------------

    * Orbital Energies and Occupations

         #    Occupation            Energy/Eh            Energy/eV
      -------------------------------------------------------------
         1        2.0000           -0.6906478             -18.7935
       ...           ...                  ...                  ...
        97        2.0000           -0.4028473             -10.9620
        98        2.0000           -0.4006707             -10.9028
        99        2.0000           -0.4006357             -10.9019
       100        2.0000           -0.3964702             -10.7885
       101        2.0000           -0.3961714             -10.7804
       102        2.0000           -0.3918444             -10.6626
       103        2.0000           -0.3910910             -10.6421
       104        2.0000           -0.3903981             -10.6233
       105        2.0000           -0.3858678             -10.5000
       106        2.0000           -0.3858617             -10.4998
       107        2.0000           -0.3780306             -10.2867
       108        2.0000           -0.3391683              -9.2292
       109        2.0000           -0.3386478              -9.2151 (HOMO)
       110                         -0.2587163              -7.0400 (LUMO)
       111                         -0.2364566              -6.4343
       112                         -0.2169531              -5.9036
       113                         -0.2169454              -5.9034
       114                         -0.2120785              -5.7709
       115                         -0.2120768              -5.7709
       116                         -0.2112257              -5.7477
       117                         -0.2110741              -5.7436
       118                         -0.2087298              -5.6798
       119                         -0.2004002              -5.4532
       120                         -0.1824249              -4.9640
       ...                                ...                  ...
       215                          0.7325702              19.9342
      -------------------------------------------------------------
                  HL-Gap            0.0799315 Eh            2.1750 eV
             Fermi-level           -0.2986821 Eh           -8.1276 eV

     #   Z          covCN         q      C6AA      α(0)
     1   6 C        3.761    -0.102    22.501     6.762
     2   6 C        3.909     0.021    20.159     6.382
     3   6 C        3.761    -0.102    22.501     6.762
     4   6 C        2.979    -0.015    28.385     8.739
     5   6 C        2.928    -0.037    28.910     8.818
     6   6 C        2.917    -0.046    29.140     8.852
     7   6 C        2.920    -0.034    28.836     8.806
     8   6 C        2.924    -0.060    29.480     8.904
     9   6 C        2.928     0.058    26.697     8.473
    10   7 N        2.755    -0.071    22.616     7.063
    11   6 C        2.928     0.059    26.676     8.470
    12   6 C        2.926    -0.040    28.996     8.831
    13   6 C        2.909    -0.053    29.328     8.880
    14   6 C        3.073     0.054    26.714     8.474
    15   7 N        2.755    -0.117    23.544     7.207
    16   6 C        3.073     0.054    26.714     8.474
    17   6 C        2.909    -0.053    29.328     8.880
    18   6 C        2.926    -0.040    28.996     8.831
    19   6 C        2.928     0.059    26.676     8.470
    20   7 N        2.755    -0.071    22.616     7.063
    21   6 C        2.928     0.058    26.697     8.473
    22   6 C        2.924    -0.060    29.480     8.904
    23   6 C        2.920    -0.034    28.836     8.806
    24   6 C        2.917    -0.046    29.140     8.852
    25   6 C        2.928    -0.037    28.910     8.818
    26   6 C        2.979    -0.015    28.385     8.739
    27   6 C        3.909     0.021    20.159     6.382
    28   6 C        3.761    -0.102    22.501     6.762
    29   6 C        3.761    -0.102    22.501     6.762
    30   6 C        2.979    -0.015    28.385     8.739
    31   6 C        2.928    -0.037    28.910     8.818
    32   6 C        2.917    -0.046    29.140     8.852
    33   6 C        2.920    -0.034    28.836     8.806
    34   6 C        2.924    -0.060    29.480     8.904
    35   6 C        2.928     0.058    26.697     8.473
    36   6 C        2.914    -0.040    29.005     8.831
    37   6 C        3.072    -0.014    28.278     8.719
    38   6 C        3.072    -0.014    28.278     8.719
    39   6 C        2.914    -0.040    29.005     8.831
    40   6 C        2.928     0.058    26.697     8.473
    41   6 C        2.924    -0.060    29.480     8.904
    42   6 C        2.920    -0.034    28.836     8.806
    43   6 C        2.917    -0.046    29.140     8.852
    44   6 C        2.928    -0.037    28.910     8.818
    45   6 C        2.979    -0.015    28.385     8.739
    46   1 H        0.925     0.031     2.575     2.509
    47   1 H        0.925     0.038     2.474     2.460
    48   1 H        0.925     0.038     2.474     2.460
    49   1 H        0.925     0.038     2.474     2.460
    50   1 H        0.925     0.030     2.584     2.514
    51   1 H        0.925     0.038     2.474     2.460
    52   1 H        0.926     0.028     2.617     2.530
    53   1 H        0.926     0.024     2.677     2.558
    54   1 H        0.926     0.025     2.662     2.552
    55   1 H        0.926     0.022     2.700     2.569
    56   1 H        0.926     0.043     2.412     2.429
    57   1 H        0.926     0.034     2.535     2.490
    58   1 H        0.860     0.161     1.326     1.804
    59   1 H        0.926     0.034     2.535     2.490
    60   1 H        0.926     0.043     2.412     2.429
    61   1 H        0.926     0.022     2.700     2.569
    62   1 H        0.926     0.025     2.662     2.552
    63   1 H        0.926     0.024     2.677     2.558
    64   1 H        0.926     0.028     2.617     2.530
    65   1 H        0.925     0.038     2.474     2.460
    66   1 H        0.925     0.030     2.584     2.514
    67   1 H        0.925     0.038     2.474     2.460
    68   1 H        0.925     0.038     2.474     2.460
    69   1 H        0.925     0.031     2.575     2.509
    70   1 H        0.925     0.038     2.474     2.460
    71   1 H        0.926     0.028     2.617     2.530
    72   1 H        0.926     0.024     2.677     2.558
    73   1 H        0.926     0.025     2.662     2.552
    74   1 H        0.926     0.022     2.700     2.569
    75   1 H        0.926     0.045     2.383     2.414
    76   1 H        0.926     0.045     2.383     2.414
    77   1 H        0.926     0.022     2.700     2.569
    78   1 H        0.926     0.025     2.662     2.552
    79   1 H        0.926     0.024     2.677     2.558
    80   1 H        0.926     0.028     2.617     2.530

 Mol. C6AA /au·bohr⁶  :      83911.367395
 Mol. C8AA /au·bohr⁸  :    2080537.641882
 Mol. α(0) /au        :        462.956227


MOs/occ written to file <molden.input>


molecular dipole:
                 x           y           z       tot (Debye)
 q only:       -0.000       0.000      -1.050
   full:       -0.000       0.000      -1.368       3.478
molecular quadrupole (traceless):
                xx          xy          yy          xz          yz          zz
 q only:       -7.944      -0.000     -11.387       0.000      -0.002      19.331
  q+dip:      -11.436       0.000     -12.561       0.000      -0.002      23.997
   full:      -11.644      -0.000     -12.493       0.000      -0.002      24.137

           -------------------------------------------------
          |                Geometry Summary                 |
           -------------------------------------------------

      molecular mass/u    :      581.7489437
   center of mass at/Å    :       -0.0000018       0.0000196      -0.2606673
  moments of inertia/u·Å² :        0.4198659E+04   0.1465526E+05   0.1491730E+05
rotational constants/cm⁻¹ :        0.4015004E-02   0.1150279E-02   0.1130072E-02

 * 84 selected distances

     #   Z          #   Z                                           value/Å
     1   6 C        2   6 C                                       1.5396260 (max)
     2   6 C        3   6 C                                       1.5395765
     4   6 C        5   6 C                                       1.3878343
     5   6 C        6   6 C                                       1.3827576
     6   6 C        7   6 C                                       1.3830699
     7   6 C        8   6 C                                       1.3787560
     4   6 C        9   6 C                                       1.3990571
     8   6 C        9   6 C                                       1.3980999
     9   6 C       10   7 N                                       1.3839864
    10   7 N       11   6 C                                       1.4240608
    11   6 C       12   6 C                                       1.3988362
    12   6 C       13   6 C                                       1.3801155
    13   6 C       14   6 C                                       1.3871569
    14   6 C       15   7 N                                       1.3711554
    15   7 N       16   6 C                                       1.3711554
    16   6 C       17   6 C                                       1.3871569
    17   6 C       18   6 C                                       1.3801155
    18   6 C       19   6 C                                       1.3988362
    19   6 C       20   7 N                                       1.4240608
    20   7 N       21   6 C                                       1.3839864
    21   6 C       22   6 C                                       1.3980998
    22   6 C       23   6 C                                       1.3787561
    23   6 C       24   6 C                                       1.3830698
    24   6 C       25   6 C                                       1.3827576
    21   6 C       26   6 C                                       1.3990574
    25   6 C       26   6 C                                       1.3878343
    27   6 C       28   6 C                                       1.5395766
    27   6 C       29   6 C                                       1.5396260
    30   6 C       31   6 C                                       1.3878343
    31   6 C       32   6 C                                       1.3827576
    32   6 C       33   6 C                                       1.3830699
    33   6 C       34   6 C                                       1.3787561
    20   7 N       35   6 C                                       1.3839861
    30   6 C       35   6 C                                       1.3990570
    34   6 C       35   6 C                                       1.3980998
    19   6 C       36   6 C                                       1.3846697
    16   6 C       37   6 C                                       1.4158009
    36   6 C       37   6 C                                       1.3879953
    14   6 C       38   6 C                                       1.4158009
    37   6 C       38   6 C                                       1.4362323
    11   6 C       39   6 C                                       1.3846697
    38   6 C       39   6 C                                       1.3879953
    10   7 N       40   6 C                                       1.3839861
    40   6 C       41   6 C                                       1.3980997
    41   6 C       42   6 C                                       1.3787562
    42   6 C       43   6 C                                       1.3830698
    43   6 C       44   6 C                                       1.3827576
    40   6 C       45   6 C                                       1.3990574
    44   6 C       45   6 C                                       1.3878343
     1   6 C       46   1 H                                       1.0884425
     1   6 C       47   1 H                                       1.0865595
     1   6 C       48   1 H                                       1.0865595
     3   6 C       49   1 H                                       1.0865162
     3   6 C       50   1 H                                       1.0885138
     3   6 C       51   1 H                                       1.0865162
     5   6 C       52   1 H                                       1.0797092
     6   6 C       53   1 H                                       1.0794378
     7   6 C       54   1 H                                       1.0800245
     8   6 C       55   1 H                                       1.0793772
    12   6 C       56   1 H                                       1.0796288
    13   6 C       57   1 H                                       1.0795314
    15   7 N       58   1 H                                       1.0053782 (min)
    17   6 C       59   1 H                                       1.0795314
    18   6 C       60   1 H                                       1.0796288
    22   6 C       61   1 H                                       1.0793772
    23   6 C       62   1 H                                       1.0800245
    24   6 C       63   1 H                                       1.0794377
    25   6 C       64   1 H                                       1.0797091
    28   6 C       65   1 H                                       1.0865162
    28   6 C       66   1 H                                       1.0885139
    28   6 C       67   1 H                                       1.0865162
    29   6 C       68   1 H                                       1.0865595
    29   6 C       69   1 H                                       1.0884425
    29   6 C       70   1 H                                       1.0865595
    31   6 C       71   1 H                                       1.0797091
    32   6 C       72   1 H                                       1.0794377
    33   6 C       73   1 H                                       1.0800245
    34   6 C       74   1 H                                       1.0793774
    36   6 C       75   1 H                                       1.0790754
    39   6 C       76   1 H                                       1.0790754
    41   6 C       77   1 H                                       1.0793774
    42   6 C       78   1 H                                       1.0800245
    43   6 C       79   1 H                                       1.0794376
    44   6 C       80   1 H                                       1.0797091

 * 4 distinct bonds (by element types)

   Z      Z             #   av. dist./Å        max./Å        min./Å
   1 H    6 C          34     1.0822612     1.0885139     1.0790754
   6 C    6 C          41     1.4054167     1.5396260     1.3787560
   1 H    7 N           1     1.0053782     1.0053782     1.0053782
   6 C    7 N           8     1.3907972     1.4240608     1.3711554

           -------------------------------------------------
          |               Frequency Printout                |
           -------------------------------------------------
 projected vibrational frequencies (cm⁻¹)
eigval :       -0.00    -0.00    -0.00     0.00     0.00     0.00
eigval :        4.49     6.80    13.69    21.81    27.28    35.55
eigval :       46.71    52.19    92.82    93.49    95.32   101.46
eigval :      103.67   119.22   123.53   129.50   129.54   165.84
eigval :      175.22   190.54   190.70   197.21   215.43   220.31
eigval :      220.61   234.09   236.18   237.99   253.63   304.14
eigval :      305.12   330.84   331.04   339.50   344.82   345.46
eigval :      352.08   360.30   369.13   380.83   382.71   395.52
eigval :      396.01   398.41   411.51   418.07   432.05   451.51
eigval :      452.23   466.17   475.70   482.97   499.99   515.57
eigval :      515.65   516.44   536.00   543.65   547.46   547.47
eigval :      550.36   556.67   586.18   587.23   598.47   615.38
eigval :      621.19   632.99   656.71   664.34   669.26   682.64
eigval :      682.86   693.32   693.33   694.37   711.97   717.49
eigval :      732.89   775.69   776.03   777.20   777.42   803.50
eigval :      813.14   814.73   826.68   826.71   854.28   859.30
eigval :      863.74   863.99   864.26   864.49   872.23   874.59
eigval :      904.04   904.41   912.17   912.21   913.05   913.08
eigval :      917.23   917.36   920.18   920.18   920.21   920.21
eigval :      934.00   938.41   940.05   956.91   956.91   989.10
eigval :     1014.24  1014.24  1023.20  1077.55  1077.57  1083.13
eigval :     1084.47  1112.33  1112.52  1119.35  1119.37  1135.03
eigval :     1140.70  1140.73  1144.19  1158.35  1159.24  1160.52
eigval :     1160.55  1170.65  1184.30  1187.06  1187.46  1187.66
eigval :     1187.81  1190.68  1203.69  1226.31  1235.66  1246.99
eigval :     1249.53  1249.68  1251.99  1268.32  1268.34  1287.18
eigval :     1295.01  1295.03  1296.13  1326.82  1326.86  1327.14
eigval :     1329.89  1336.11  1336.58  1346.97  1347.72  1348.27
eigval :     1378.56  1402.36  1402.38  1419.66  1420.54  1420.94
eigval :     1429.62  1437.64  1438.20  1445.47  1445.96  1480.41
eigval :     1482.03  1482.83  1483.26  1490.51  1490.55  1491.27
eigval :     1491.27  1497.44  1499.37  1500.91  1500.94  1505.82
eigval :     1505.95  1568.03  1575.28  1575.35  1579.55  1590.56
eigval :     1590.67  1593.45  1593.75  1602.80  1603.69  1604.42
eigval :     1618.53  3026.08  3026.13  3028.52  3028.53  3038.19
eigval :     3038.20  3040.97  3041.01  3047.13  3047.13  3050.91
eigval :     3051.00  3075.50  3075.54  3075.62  3075.68  3080.39
eigval :     3080.45  3080.56  3080.61  3083.11  3083.50  3091.42
eigval :     3091.50  3091.59  3092.02  3097.20  3097.51  3097.75
eigval :     3097.81  3098.08  3098.57  3099.17  3101.11  3490.03
 reduced masses (amu)
   1: 11.18   2: 11.01   3: 11.41   4: 11.40   5: 11.31   6: 11.34   7: 10.85   8: 10.84
   9: 10.29  10: 10.06  11: 10.96  12: 10.40  13: 10.67  14: 10.84  15: 10.24  16:  9.71
  17:  9.60  18:  9.77  19: 10.50  20: 10.45  21: 10.96  22:  2.55  23:  2.55  24: 11.27
  25: 11.05  26:  1.24  27:  1.18  28: 10.59  29: 11.36  30:  8.54  31:  8.54  32: 10.87
  33:  9.76  34:  9.46  35: 10.45  36:  9.20  37:  9.17  38:  8.98  39:  8.98  40: 10.40
  41:  9.72  42:  9.86  43: 10.10  44: 10.55  45: 10.83  46: 10.95  47: 11.24  48: 11.33
  49:  9.19  50: 11.44  51: 10.80  52: 11.11  53:  9.53  54:  9.57  55:  9.57  56:  3.92
  57: 10.65  58: 10.42  59: 11.01  60: 10.08  61: 10.08  62: 10.55  63: 10.78  64:  9.74
  65:  9.95  66:  9.95  67: 10.89  68: 10.53  69: 10.87  70: 11.11  71: 11.23  72: 10.12
  73: 11.45  74: 11.35  75: 10.68  76: 10.94  77: 11.13  78: 11.54  79: 11.54  80: 11.53
  81: 11.54  82: 11.30  83: 11.75  84: 11.20  85: 11.05  86:  3.43  87:  3.42  88:  3.31
  89:  3.30  90: 11.28  91:  5.24  92:  5.27  93:  8.19  94:  8.12  95: 10.95  96: 11.61
  97:  3.52  98:  3.54  99:  3.54 100:  3.54 101:  3.40 102:  3.35 103:  3.83 104:  3.99
 105:  3.80 106:  3.80 107:  3.83 108:  3.83 109: 10.81 110: 10.86 111:  2.98 112:  3.00
 113:  3.00 114:  2.98 115: 11.11 116:  8.43 117:  8.77 118:  4.58 119:  4.58 120:  9.58
 121:  3.29 122:  3.29 123:  7.15 124:  8.82 125:  8.82 126:  7.57 127:  7.83 128:  6.87
 129:  6.86 130:  5.89 131:  5.89 132:  5.66 133:  5.21 134:  5.21 135:  3.46 136:  6.53
 137:  3.66 138: 10.02 139: 10.07 140:  5.64 141:  4.34 142:  1.81 143:  1.35 144:  1.35
 145:  1.60 146:  5.04 147:  6.00 148:  6.83 149:  8.67 150:  7.99 151:  4.10 152:  4.09
 153:  6.90 154:  4.51 155:  4.66 156:  8.81 157:  7.82 158:  7.82 159:  9.34 160: 11.83
 161: 11.83 162: 11.06 163: 11.55 164: 11.90 165: 11.85 166:  9.82 167:  9.79 168: 11.66
 169: 11.15 170:  2.96 171:  2.96 172:  8.17 173:  3.03 174:  4.92 175: 10.31 176:  9.30
 177:  9.36 178:  9.92 179:  9.91 180: 11.25 181:  9.28 182:  9.26 183: 11.06 184:  1.61
 185:  1.61 186:  1.59 187:  1.60 188:  9.89 189:  9.86 190:  1.60 191:  1.77 192:  2.74
 193:  2.79 194: 11.59 195: 11.59 196: 11.59 197: 11.68 198: 11.73 199: 11.73 200: 11.42
 201: 11.42 202: 11.53 203: 11.51 204: 11.73 205: 11.75 206:  1.87 207:  1.87 208:  1.78
 209:  1.78 210:  1.95 211:  1.95 212:  1.94 213:  1.94 214:  1.32 215:  1.32 216:  1.41
 217:  1.41 218:  1.75 219:  1.75 220:  1.75 221:  1.75 222:  1.81 223:  1.81 224:  1.80
 225:  1.80 226:  1.80 227:  1.80 228:  1.86 229:  1.86 230:  1.85 231:  1.85 232:  1.86
 233:  1.89 234:  1.89 235:  1.88 236:  1.88 237:  1.89 238:  1.87 239:  1.84 240:  1.86
 IR intensities (km·mol⁻¹)
   1:  0.03   2:  0.06   3:  0.02   4:  0.01   5:  0.00   6:  0.00   7:  0.01   8:  0.01
   9:  0.00  10:  0.12  11:  0.00  12:  0.04  13:  0.97  14:  0.01  15:  0.03  16:  0.04
  17:  0.00  18:  0.22  19:  0.18  20:  0.00  21:  0.07  22:  0.00  23:  0.00  24:  0.15
  25:  0.19  26:  0.00  27:  0.00  28:  0.28  29:  0.01  30:  0.00  31:  0.00  32:  0.00
  33:  0.50  34:  1.27  35:  0.00  36:  0.00  37:  0.50  38:  0.00  39:  0.00  40:  0.22
  41:  0.02  42:  0.02  43:  0.49  44:  0.00  45:  0.00  46:  1.17  47:  3.21  48:  2.13
  49:  2.30  50:  1.90  51:  0.00  52: 20.01  53:  0.00  54:  0.00  55:  0.00  56: 59.67
  57:  1.08  58:  0.06  59:  2.78  60:  0.00  61:  0.00  62:  0.75  63:  1.83  64:  4.36
  65:  0.64  66:  0.76  67:  0.00  68:  1.28  69:  0.38  70:  0.00  71: 10.50  72: 21.60
  73: 13.47  74:  1.20  75:  0.00  76:  0.44  77:  0.01  78:  0.00  79:  0.00  80:  6.67
  81:  6.92  82:  5.76  83:  0.00  84:  0.61  85:  0.17  86: 40.12  87: 40.94  88:  0.00
  89:  0.02  90:  0.19  91:  8.46  92:  0.00  93:  2.76  94:  0.57  95:  0.85  96:  0.08
  97:  0.00  98:  0.01  99:  0.00 100:  0.01 101:  0.00 102:  0.10 103:  2.58 104:  0.00
 105:  0.80 106:  0.79 107:  0.00 108:  0.00 109:  0.53 110: 24.10 111:  0.14 112:  0.00
 113:  0.04 114:  0.19 115:  0.25 116:  0.14 117:  0.05 118:  0.32 119:  0.44 120:  0.05
 121:  0.00 122:  0.00 123:  1.87 124:  0.01 125:  0.65 126:  9.28 127: 14.74 128:  1.53
 129:  0.05 130:  2.54 131:  3.19 132:  3.36 133:  1.61 134: 11.06 135: 19.06 136: 15.76
 137:  0.25 138:  8.41 139:  6.07 140: 12.94 141:  0.26 142:  0.01 143:  0.00 144:  1.31
 145:  0.42 146:  3.45 147:  0.42 148: 18.53 149:  0.46 150:  1.68 151:  0.01 152:  0.96
 153:  0.02 154: 17.92 155: 13.33 156: 65.27 157:  0.01 158:  6.04 159:270.67 160:  0.11
 161:  0.18 162:  3.39 163: 10.55 164:  9.32 165: 13.07 166:  0.27 167:496.97 168:  1.41
 169:  0.05 170:  3.35 171:  3.78 172:  4.43 173:  1.65 174:  0.60 175:106.95 176: 28.04
 177:  0.96 178:  0.01 179:344.04 180:237.23 181:  0.90 182:608.85 183:  0.15 184:  0.00
 185:  0.00 186:  1.23 187:  0.98 188:147.30 189: 51.12 190:  6.17 191:  6.68 192:  0.33
 193: 89.96 194: 13.57 195:  7.76 196: 12.48 197: 15.78 198: 16.12 199: 10.04 200:  0.00
 201:219.29 202: 50.80 203: 39.76 204: 58.34 205:  5.46 206: 26.84 207: 50.06 208: 11.11
 209: 27.08 210:  0.00 211:  0.27 212:  0.00 213:107.08 214: 14.13 215:  7.41 216: 57.30
 217: 37.04 218:  0.00 219:  9.27 220:  0.17 221:  0.01 222:  0.00 223: 47.31 224: 33.36
 225: 28.39 226:  1.91 227: 58.60 228:  0.00 229:117.76 230:213.13 231:127.38 232: 29.74
 233:  0.00 234:174.47 235: 11.84 236: 23.67 237: 39.06 238:  0.55 239:  2.55 240: 14.98
 Raman intensities (Ä⁴*amu⁻¹)
   1:  0.00   2:  0.00   3:  0.00   4:  0.00   5:  0.00   6:  0.00   7:  0.00   8:  0.00
   9:  0.00  10:  0.00  11:  0.00  12:  0.00  13:  0.00  14:  0.00  15:  0.00  16:  0.00
  17:  0.00  18:  0.00  19:  0.00  20:  0.00  21:  0.00  22:  0.00  23:  0.00  24:  0.00
  25:  0.00  26:  0.00  27:  0.00  28:  0.00  29:  0.00  30:  0.00  31:  0.00  32:  0.00
  33:  0.00  34:  0.00  35:  0.00  36:  0.00  37:  0.00  38:  0.00  39:  0.00  40:  0.00
  41:  0.00  42:  0.00  43:  0.00  44:  0.00  45:  0.00  46:  0.00  47:  0.00  48:  0.00
  49:  0.00  50:  0.00  51:  0.00  52:  0.00  53:  0.00  54:  0.00  55:  0.00  56:  0.00
  57:  0.00  58:  0.00  59:  0.00  60:  0.00  61:  0.00  62:  0.00  63:  0.00  64:  0.00
  65:  0.00  66:  0.00  67:  0.00  68:  0.00  69:  0.00  70:  0.00  71:  0.00  72:  0.00
  73:  0.00  74:  0.00  75:  0.00  76:  0.00  77:  0.00  78:  0.00  79:  0.00  80:  0.00
  81:  0.00  82:  0.00  83:  0.00  84:  0.00  85:  0.00  86:  0.00  87:  0.00  88:  0.00
  89:  0.00  90:  0.00  91:  0.00  92:  0.00  93:  0.00  94:  0.00  95:  0.00  96:  0.00
  97:  0.00  98:  0.00  99:  0.00 100:  0.00 101:  0.00 102:  0.00 103:  0.00 104:  0.00
 105:  0.00 106:  0.00 107:  0.00 108:  0.00 109:  0.00 110:  0.00 111:  0.00 112:  0.00
 113:  0.00 114:  0.00 115:  0.00 116:  0.00 117:  0.00 118:  0.00 119:  0.00 120:  0.00
 121:  0.00 122:  0.00 123:  0.00 124:  0.00 125:  0.00 126:  0.00 127:  0.00 128:  0.00
 129:  0.00 130:  0.00 131:  0.00 132:  0.00 133:  0.00 134:  0.00 135:  0.00 136:  0.00
 137:  0.00 138:  0.00 139:  0.00 140:  0.00 141:  0.00 142:  0.00 143:  0.00 144:  0.00
 145:  0.00 146:  0.00 147:  0.00 148:  0.00 149:  0.00 150:  0.00 151:  0.00 152:  0.00
 153:  0.00 154:  0.00 155:  0.00 156:  0.00 157:  0.00 158:  0.00 159:  0.00 160:  0.00
 161:  0.00 162:  0.00 163:  0.00 164:  0.00 165:  0.00 166:  0.00 167:  0.00 168:  0.00
 169:  0.00 170:  0.00 171:  0.00 172:  0.00 173:  0.00 174:  0.00 175:  0.00 176:  0.00
 177:  0.00 178:  0.00 179:  0.00 180:  0.00 181:  0.00 182:  0.00 183:  0.00 184:  0.00
 185:  0.00 186:  0.00 187:  0.00 188:  0.00 189:  0.00 190:  0.00 191:  0.00 192:  0.00
 193:  0.00 194:  0.00 195:  0.00 196:  0.00 197:  0.00 198:  0.00 199:  0.00 200:  0.00
 201:  0.00 202:  0.00 203:  0.00 204:  0.00 205:  0.00 206:  0.00 207:  0.00 208:  0.00
 209:  0.00 210:  0.00 211:  0.00 212:  0.00 213:  0.00 214:  0.00 215:  0.00 216:  0.00
 217:  0.00 218:  0.00 219:  0.00 220:  0.00 221:  0.00 222:  0.00 223:  0.00 224:  0.00
 225:  0.00 226:  0.00 227:  0.00 228:  0.00 229:  0.00 230:  0.00 231:  0.00 232:  0.00
 233:  0.00 234:  0.00 235:  0.00 236:  0.00 237:  0.00 238:  0.00 239:  0.00 240:  0.00
 output can be read by thermo (or use thermo option).
 writing <g98.out> molden fake output.
 recommended (thermochemical) frequency scaling factor: 1.0
           -------------------------------------------------
          |             Thermodynamic Functions             |
           -------------------------------------------------

Molecule has the following symmetry elements: (C2) 2*(sigma) 
It seems to be the C2v point group
c2v symmetry found (for desy threshold:  0.10E+00) used in thermo

          ...................................................
          :                      SETUP                      :
          :.................................................:
          :  # frequencies                         234      :
          :  # imaginary freq.                       0      :
          :  linear?                             false      :
          :  only rotor calc.                    false      :
          :  symmetry                              c2v      :
          :  rotational number                       2      :
          :  scaling factor                  1.0000000      :
          :  rotor cutoff                   50.0000000 cm⁻¹ :
          :  imag. cutoff                  -20.0000000 cm⁻¹ :
          :.................................................:

    mode    ω/cm⁻¹     T·S(HO)/kcal·mol⁻¹    T·S(FR)/kcal·mol⁻¹   T·S(vib)
   ------------------------------------------------------------------------
       1      4.49    -2.86253 (  0.01%)    -1.77028 ( 99.99%)    -1.77035
       2      6.80    -2.61688 (  0.03%)    -1.64748 ( 99.97%)    -1.64781
       3     13.69    -2.20258 (  0.56%)    -1.44032 ( 99.44%)    -1.44458
       4     21.81    -1.92664 (  3.50%)    -1.30228 ( 96.50%)    -1.32410
       5     27.28    -1.79437 (  8.13%)    -1.23607 ( 91.87%)    -1.28149
       6     35.55    -1.63767 ( 20.35%)    -1.15758 ( 79.65%)    -1.25530
       7     46.71    -1.47650 ( 43.23%)    -1.07673 ( 56.77%)    -1.24954
       8     52.19    -1.41104 ( 54.27%)    -1.04385 ( 45.73%)    -1.24314
       9     92.82    -1.07327 ( 92.23%)    -0.87328 (  7.77%)    -1.05774
      10     93.49    -1.06909 ( 92.44%)    -0.87116 (  7.56%)    -1.05412
      11     95.32    -1.05776 ( 92.96%)    -0.86540 (  7.04%)    -1.04423
      12    101.46    -1.02151 ( 94.43%)    -0.84692 (  5.57%)    -1.01178
      13    103.67    -1.00898 ( 94.87%)    -0.84053 (  5.13%)    -1.00033
      14    119.22    -0.92812 ( 97.00%)    -0.79912 (  3.00%)    -0.92425
      15    123.53    -0.90767 ( 97.39%)    -0.78860 (  2.61%)    -0.90456
      16    129.50    -0.88058 ( 97.83%)    -0.77463 (  2.17%)    -0.87828
      17    129.54    -0.88040 ( 97.83%)    -0.77454 (  2.17%)    -0.87810
      18    165.84    -0.74003 ( 99.18%)    -0.70135 (  0.82%)    -0.73972
      19    175.22    -0.70922 ( 99.34%)    -0.68506 (  0.66%)    -0.70907
      20    190.54    -0.66264 ( 99.53%)    -0.66022 (  0.47%)    -0.66263
      21    190.70    -0.66220 ( 99.53%)    -0.65998 (  0.47%)    -0.66219
      22    197.21    -0.64371 ( 99.59%)    -0.65004 (  0.41%)    -0.64373
      23    215.43    -0.59547 ( 99.71%)    -0.62386 (  0.29%)    -0.59555
      24    220.31    -0.58335 ( 99.74%)    -0.61722 (  0.26%)    -0.58344
      25    220.61    -0.58260 ( 99.74%)    -0.61681 (  0.26%)    -0.58269
      26    234.09    -0.55080 ( 99.79%)    -0.59925 (  0.21%)    -0.55090
      27    236.18    -0.54605 ( 99.80%)    -0.59661 (  0.20%)    -0.54615
      28    237.99    -0.54199 ( 99.81%)    -0.59435 (  0.19%)    -0.54210
      29    253.63    -0.50841 ( 99.85%)    -0.57550 (  0.15%)    -0.50851
   ------------------------------------------------------------------------

   temp. (K)  partition function   enthalpy   heat capacity  entropy
                                   cal/mol     cal/K/mol   cal/K/mol   J/K/mol
 298.15  VIB  0.991E+17            21896.451    141.245    135.165
         ROT  0.366E+08              888.752      2.981     37.590
         INT  0.363E+25            22785.203    144.226    172.754
         TR   0.136E+29             1481.254      4.968     44.946
         TOT                       24266.4568   149.1939   217.7009   910.8604

       T/K    H(0)-H(T)+PV         H(T)/Eh          T*S/Eh         G(T)/Eh
   ------------------------------------------------------------------------
    298.15    0.386711E-01    0.679520E+00    0.103437E+00    0.576083E+00
   ------------------------------------------------------------------------

         :::::::::::::::::::::::::::::::::::::::::::::::::::::
         ::                  THERMODYNAMIC                  ::
         :::::::::::::::::::::::::::::::::::::::::::::::::::::
         :: total free energy        -116.084740182942 Eh   ::
         ::.................................................::
         :: total energy             -116.660823331153 Eh   ::
         :: zero point energy           0.640848793241 Eh   ::
         :: G(RRHO) w/o ZPVE           -0.064765645030 Eh   ::
         :: G(RRHO) contrib.            0.576083148211 Eh   ::
         :::::::::::::::::::::::::::::::::::::::::::::::::::::

optimized geometry written to: xtbopt.xyz


           -------------------------------------------------
          | TOTAL ENERGY             -116.660823331153 Eh   |
          | TOTAL ENTHALPY           -115.981303477442 Eh   |
          | TOTAL FREE ENERGY        -116.084740182942 Eh   |
          | GRADIENT NORM               0.000058974281 Eh/α |
          | HOMO-LUMO GAP               2.175045857245 eV   |
           -------------------------------------------------

------------------------------------------------------------------------
 * finished run on 2025/09/13 at 15:59:43.289     
------------------------------------------------------------------------
 total:
 * wall-time:     0 d,  0 h,  0 min,  5.283 sec
 *  cpu-time:     0 d,  0 h,  3 min, 21.199 sec
 * ratio c/w:    38.087 speedup
 SCF:
 * wall-time:     0 d,  0 h,  0 min,  0.143 sec
 *  cpu-time:     0 d,  0 h,  0 min,  5.564 sec
 * ratio c/w:    38.919 speedup
 ANC optimizer:
 * wall-time:     0 d,  0 h,  0 min,  1.533 sec
 *  cpu-time:     0 d,  0 h,  1 min,  1.316 sec
 * ratio c/w:    39.996 speedup
 analytical hessian:
 * wall-time:     0 d,  0 h,  0 min,  3.369 sec
 *  cpu-time:     0 d,  0 h,  2 min,  5.535 sec
 * ratio c/w:    37.257 speedup

