46
 energy: -75.397064782185 gnorm: 0.000157368943 xtb: 6.7.1 (edcfbbe)
N           -8.14660321492762        0.00461856905354        0.00259066511588
C           -6.99453319330266        0.00425618119472        0.00103666891834
C           -5.59324191671596        0.00385293046643       -0.00081933454092
C           -4.88422831917369        0.39790502387882       -1.15204307522768
C           -3.51153638116904        0.39805890287731       -1.15081447741729
C           -2.81349989099076        0.00288526525582       -0.00451203314220
N           -1.39001272822555        0.00187905442883       -0.00626610157189
C           -0.71414378902307        1.19600895311493        0.01410635017969
C           -1.38839618398177        2.42072415077247        0.07595961004371
C           -0.69648292530596        3.60735887475978        0.04740394969709
C            0.70357940137150        3.60603333648051       -0.05392800130992
C            1.39314986978221        2.41811655642016       -0.08376412177067
C            0.71645642483975        1.19460505210260       -0.02345720973189
N            1.39008608516716       -0.00077686419800       -0.00396201857674
C            2.81356418689237       -0.00215582252051       -0.00273807019725
C            3.50970697596453        0.39050715147877        1.14559139017825
C            4.88236411853701        0.38855346820157        1.14974975556749
C            5.59333567374946       -0.00478884131153       -0.00054998834352
C            6.99458089895468       -0.00606109124270        0.00053233153816
N            8.14669460946008       -0.00709374787771        0.00141816807858
C            4.88343173402527       -0.39683567545094       -1.15195446291940
C            3.51077301570827       -0.39620248877425       -1.14994707343068
C            0.71420866940824       -1.19491404920658        0.01396400243673
C            1.38829893485811       -2.41971643663092        0.07605341457050
C            0.69644463271800       -3.60627660346686        0.04424272042581
C           -0.70339535524048       -3.60480289494632       -0.06103463346422
C           -1.39290421521256       -2.41687250146306       -0.09074315692188
C           -0.71636848795789       -1.19345295522198       -0.02671959467513
C           -3.50877764166652       -0.39184918622650        1.14360772629409
C           -4.88144276564776       -0.39068938683220        1.14854367991460
H           -5.43191022211623        0.69719474343676       -2.03275963768710
H           -2.95911978898477        0.69644542317576       -2.02978751535034
H           -2.46449222121619        2.42318649283604        0.14609977068526
H           -1.23104296496196        4.54212084847228        0.09573157567335
H            1.23997525776152        4.53980021672529       -0.10122120384906
H            2.46925571204232        2.41850465184612       -0.15382870768676
H            2.95579889227862        0.68845543258992        2.02376816997012
H            5.42857523837976        0.68592228969782        2.03201772284457
H            5.43046382062087       -0.69525660723138       -2.03335846527404
H            2.95767173355853       -0.69314700854893       -2.02897203528536
H            2.46422168489272       -2.42224265988791        0.14895621871948
H            1.23082869990637       -4.54112682069376        0.09295361057109
H           -1.23961771302241       -4.53851730565225       -0.11137017212242
H           -2.46883635049809       -2.41711624305664       -0.16356728148269
H           -2.95420533876344       -0.69082129052668        2.02102630285951
H           -5.42697606769733       -0.68966650321447        2.03069604145821
