$hessian                                                                        
        0.4711088274   0.1739938609  -0.1987270287  -0.1928002829   0.0202615922
        0.1538016568  -0.0436623483  -0.0411616482   0.0106560709  -0.0095124297
        0.0180143782   0.0171464628  -0.0017952706  -0.0015530703   0.0001910824
        0.0005501306   0.0001709136  -0.0005906570   0.0001993136  -0.0005085989
       -0.0000947693  -0.0000108142  -0.0000592602   0.0000367419  -0.0001226971
        0.0000915228  -0.0000096823   0.0001048642   0.0001100218   0.0000029133
       -0.0001519324  -0.0000944374  -0.0000211356   0.0001355660   0.0000039175
        0.0000308881  -0.0000476065  -0.0000615602  -0.0000220764   0.0000397800
       -0.0000366332   0.0000017587  -0.0000865304  -0.0000062640  -0.0000189962
        0.0000660178   0.0000063712   0.0000149370  -0.0000091116  -0.0000224751
       -0.0000014081   0.0000005636   0.0000090471  -0.0000046505  -0.0000099355
        0.0000003738  -0.0000143680  -0.0000048563  -0.0000096392  -0.0000012820
        0.0000004465  -0.0000102922   0.0000084307   0.0000068553   0.0000082357
       -0.0000224905  -0.0000150618   0.0000221758  -0.0000015427   0.0000030684
       -0.0000125294   0.0000078942  -0.0000148623  -0.0000001157   0.0000042530
       -0.0000048806   0.0000089965  -0.0000024758   0.0000065767   0.0000078959
       -0.0000068521   0.0000065327  -0.0000070747   0.0000076537   0.0000290002
        0.0000385101   0.0000196654  -0.0000551113   0.0000555624  -0.0000034616
        0.0000216238  -0.0000672258   0.0000042493  -0.0000385146   0.0000703316
       -0.0000295212   0.0000551056  -0.0000624290   0.0000405540  -0.0000567236
       -0.0000523259   0.0000302975   0.0000412114   0.0000457275  -0.0000086621
       -0.0000214014  -0.0000102915   0.0000317663  -0.0005395763   0.0000825221
        0.0001788346  -0.0000002764   0.0000171327  -0.0000313016   0.0000051383
       -0.0000230683  -0.0000051173  -0.0000083728  -0.0000031464   0.0000066478
        0.0000028003   0.0000072071  -0.0000050784  -0.0000077522  -0.0000044976
       -0.0000052819   0.0000054745   0.0000127793   0.0000054610   0.0000010176
       -0.0000077984   0.0000059360  -0.0000006606  -0.0000041858  -0.0000020612
        0.0000017655  -0.0000019154  -0.0000026166  -0.0000067878  -0.0000067661
       -0.0000029713   0.0004137320   0.0009538710   0.0003349948   0.0000033836
       -0.0001090256  -0.0000254318   0.0000463968  -0.0000057692   0.0000584794
       -0.0000103454  -0.0000029890   0.0000037419   0.0000035781   0.0000130975
        0.0000308988  -0.0000031619   0.0000014501  -0.0000031960  -0.0000694190
       -0.0000253467  -0.0001331772   0.0174743458  -0.0071003234  -0.0221941159
       -0.0778385379  -0.0380152594  -0.0014982152  -0.1623375833  -0.1298895795
        0.0178245723  -0.0007581805   0.0007599074   0.0021757506   0.0004967547
       -0.0054857636   0.0032120887   0.0000244625  -0.0000365113   0.0000181712
       -0.0000018389  -0.0000064460   0.0000090806  -0.0000036907   0.0000079507
        0.0000009643   0.0000046061   0.0000069976   0.0000009341   0.0000004878
       -0.0000029474   0.0000003888   0.0000057137   0.0000032641   0.0000024052
        0.0000037469   0.0000068655  -0.0000047246  -0.0000021164   0.0000029943
       -0.0000086488  -0.0000025998  -0.0000025993   0.0000001354  -0.0000007792
        0.0000022939  -0.0000012967   0.0000068588  -0.0000024512  -0.0000012022
        0.0000042341  -0.0000071329   0.0000056175  -0.0000034147  -0.0000043392
        0.0000077850  -0.0000013292   0.0000008564   0.0000003029   0.0000048946
       -0.0000073266   0.0000031596  -0.0000046434  -0.0000096171   0.0000012291
        0.0000032131  -0.0000035073  -0.0000005479   0.0000027328   0.0000071091
       -0.0000087665  -0.0000123802   0.0000063865  -0.0000089486  -0.0000218727
        0.0000125199  -0.0000126410   0.0000093631   0.0000030353   0.0000048130
       -0.0000016602  -0.0000035884  -0.0000009604  -0.0000095610   0.0000058770
       -0.0000070641  -0.0000014327   0.0000018825  -0.0000023822  -0.0000017384
        0.0000010456   0.0000024157  -0.0000007562  -0.0000000209  -0.0000013241
        0.0000004189   0.0000029364  -0.0000020502   0.0000086659   0.0000082570
        0.0000160297   0.0000104979   0.0000079603   0.0000025094  -0.0000015965
        0.0000077668   0.0000105220   0.0000202209  -0.0000119293   0.0000004915
       -0.0000210100  -0.0000316102   0.0000492549   0.0004247758  -0.0059268481
        0.0027498561  -0.0012713189   0.0156147800   0.0147894340
        0.1739938609   0.5245883600   0.1665511220  -0.0294346366  -0.0842269186
       -0.0005865457  -0.0037669606   0.0247633061   0.0226157489   0.0179579993
       -0.0123537358  -0.0221564130  -0.0016557253  -0.0018482568   0.0002733120
        0.0008838266   0.0002800598  -0.0004939136  -0.0000298741  -0.0005325600
       -0.0001921791   0.0000879867   0.0000332613   0.0000149051  -0.0000676901
        0.0000383366  -0.0000000023   0.0000470322   0.0000637320  -0.0000093070
       -0.0000565737  -0.0000380494  -0.0000154671   0.0000501550   0.0000052216
        0.0000119015  -0.0000111088  -0.0000320863  -0.0000104222   0.0000110387
       -0.0000162539  -0.0000051283  -0.0000546533  -0.0000039342  -0.0000130505
        0.0000580795   0.0000075272   0.0000119515  -0.0000086249  -0.0000261120
        0.0000038940   0.0000065780   0.0000125694   0.0000002638  -0.0000102957
       -0.0000034323  -0.0000062236  -0.0000031613  -0.0000066699   0.0000053040
        0.0000011177  -0.0000073623   0.0000117276   0.0000054143   0.0000128981
       -0.0000147516  -0.0000140002   0.0000235516  -0.0000018482   0.0000075783
       -0.0000103128   0.0000079606  -0.0000121337   0.0000009965   0.0000027035
       -0.0000035007   0.0000082888  -0.0000050810   0.0000061030   0.0000066474
       -0.0000095477   0.0000041956  -0.0000108454   0.0000067661   0.0000080259
        0.0000210810   0.0000085717  -0.0000162851   0.0000275522   0.0000003105
        0.0000266139  -0.0000325457  -0.0000032252  -0.0000210686   0.0000279110
       -0.0000137417   0.0000196044  -0.0000306131   0.0000243896  -0.0000193733
       -0.0000213467   0.0000151630   0.0000319867   0.0000226276  -0.0000065523
       -0.0000079561  -0.0000167711   0.0000327910  -0.0003474871   0.0001961490
        0.0001347803  -0.0000086577   0.0000061968  -0.0000062169   0.0000073599
       -0.0000131685   0.0000081624  -0.0000090346   0.0000027047  -0.0000021760
        0.0000022337  -0.0000055433  -0.0000056263   0.0000003368  -0.0000036134
       -0.0000057070   0.0000054438   0.0000252780   0.0000115065  -0.0000022992
        0.0000016242   0.0000043539   0.0000018870  -0.0000100110  -0.0000030667
        0.0000024737  -0.0000065585   0.0000030616  -0.0000081158  -0.0000030428
       -0.0000008911   0.0002812215   0.0006193552   0.0003843246   0.0000417234
        0.0000169412  -0.0000788744   0.0000142856   0.0001336744   0.0000894513
        0.0000831961  -0.0000357701   0.0000095935  -0.0000392859  -0.0000469432
       -0.0000913210  -0.0000510101   0.0000674294   0.0000685296   0.0000027050
       -0.0001570148  -0.0000386617  -0.0447013827  -0.0503644996   0.0002229003
        0.0110053471  -0.2213117417  -0.1537168772  -0.1299139852  -0.1734880292
        0.0113865873   0.0158286943  -0.0028513182  -0.0181279071  -0.0057010845
       -0.0006439113  -0.0017668587   0.0000016681  -0.0000007662   0.0000088331
        0.0000015755  -0.0000046261  -0.0000003876  -0.0000024021   0.0000082483
        0.0000028371   0.0000063597   0.0000072100   0.0000054664   0.0000005414
       -0.0000040533   0.0000039914   0.0000061446   0.0000029666   0.0000090866
        0.0000053588   0.0000092327   0.0000032265   0.0000003907   0.0000064265
       -0.0000025192   0.0000004069   0.0000001500   0.0000027671   0.0000018759
        0.0000044074  -0.0000010732   0.0000092373  -0.0000015228  -0.0000018675
        0.0000052437  -0.0000082376   0.0000024273  -0.0000027624  -0.0000056834
        0.0000028885   0.0000008557  -0.0000002657  -0.0000021639   0.0000081138
       -0.0000047501  -0.0000014528  -0.0000020989  -0.0000058242  -0.0000034877
        0.0000069538   0.0000026318  -0.0000005870   0.0000058981   0.0000137440
       -0.0000052953  -0.0000076592   0.0000139256  -0.0000080721  -0.0000154820
        0.0000064734  -0.0000124771   0.0000079421  -0.0000030406   0.0000005604
        0.0000002753  -0.0000053446  -0.0000006629  -0.0000115910   0.0000121358
       -0.0000163637  -0.0000013208   0.0000026034   0.0000003779  -0.0000017446
       -0.0000000203   0.0000065101   0.0000003439   0.0000007760   0.0000008192
        0.0000002924   0.0000028279   0.0000029813   0.0000260858   0.0000005168
        0.0000266591   0.0000105830  -0.0000150787   0.0000097933   0.0000028844
        0.0000057998  -0.0000011931   0.0000273605  -0.0000338949   0.0000015924
       -0.0000600313  -0.0001047358  -0.0000229263  -0.0055805336  -0.0006341422
       -0.0018480037   0.0010410946  -0.0021223991  -0.0026967383
       -0.1987270287   0.1665511220   0.4417912266   0.1137346498  -0.0488695776
       -0.1944028265   0.0402166814   0.0587349694   0.0095368017   0.0179112778
       -0.0220740991  -0.0410796083   0.0001170766  -0.0000028488  -0.0002787235
        0.0003148517   0.0001636514   0.0001380285  -0.0002574961  -0.0000076971
       -0.0000264721   0.0000923883   0.0000865709  -0.0000211038   0.0000652328
       -0.0000570034   0.0000172111  -0.0000687120  -0.0000590261  -0.0000082135
        0.0001083967   0.0000615902   0.0000102551  -0.0000878879   0.0000006955
       -0.0000202352   0.0000374199   0.0000322676   0.0000126964  -0.0000301133
        0.0000212878  -0.0000061918   0.0000363460   0.0000019123   0.0000072084
       -0.0000130987  -0.0000019499  -0.0000026518   0.0000026161   0.0000025656
        0.0000027595   0.0000018926  -0.0000022877   0.0000044367   0.0000023264
       -0.0000006505   0.0000087319   0.0000012609   0.0000032911   0.0000050638
       -0.0000000096   0.0000018337   0.0000027082  -0.0000008923   0.0000028361
        0.0000107781   0.0000017140   0.0000021057  -0.0000020050   0.0000054249
        0.0000010559   0.0000002433   0.0000033775   0.0000031732  -0.0000033763
        0.0000010898  -0.0000030880  -0.0000012636  -0.0000014484  -0.0000008858
       -0.0000026782  -0.0000025280  -0.0000034936  -0.0000014785  -0.0000232566
       -0.0000194808  -0.0000111512   0.0000397042  -0.0000292829   0.0000053673
        0.0000001977   0.0000414827  -0.0000098287   0.0000211151  -0.0000448007
        0.0000178796  -0.0000411571   0.0000362057  -0.0000190641   0.0000436030
        0.0000376025  -0.0000164957  -0.0000190296  -0.0000230616   0.0000026795
        0.0000119747  -0.0000071087  -0.0000085953   0.0002081952   0.0001079897
       -0.0000432179  -0.0000051292  -0.0000017217   0.0000280256   0.0000016973
        0.0000112954   0.0000142029   0.0000029159   0.0000057167  -0.0000060644
       -0.0000023286  -0.0000113071  -0.0000005180   0.0000026341   0.0000033029
       -0.0000025212  -0.0000021019   0.0000088879   0.0000053035   0.0000022814
        0.0000005942   0.0000010809   0.0000019987  -0.0000011063  -0.0000003992
        0.0000011042  -0.0000022549   0.0000037861   0.0000026098   0.0000071532
        0.0000035910  -0.0001316236  -0.0003837542   0.0000203381   0.0000164702
       -0.0000083589  -0.0000213734  -0.0000434518   0.0001523607   0.0000765930
        0.0001419126  -0.0000382544   0.0000085941  -0.0000737548  -0.0000676207
       -0.0001407188  -0.0001032738   0.0000777856   0.0001209319   0.0000876929
       -0.0002614321   0.0000482358  -0.0528883445  -0.0354384269   0.0230243368
        0.0386991452  -0.1050417730  -0.1727302526   0.0178025949   0.0113013495
       -0.0418007590   0.0141107047  -0.0036545256  -0.0157684775   0.0026675956
       -0.0018162954   0.0038229535  -0.0000283801   0.0000362606  -0.0000154462
        0.0000054223   0.0000021233  -0.0000109980   0.0000011752  -0.0000008379
        0.0000011483   0.0000011496  -0.0000007179   0.0000036742   0.0000002852
       -0.0000005009   0.0000032168  -0.0000002576  -0.0000006502   0.0000049606
        0.0000009154   0.0000007680   0.0000072486   0.0000023252   0.0000021595
        0.0000060551   0.0000027454   0.0000024894   0.0000017505   0.0000016564
        0.0000010027   0.0000008684   0.0000005515   0.0000008486  -0.0000001273
        0.0000006565  -0.0000002343  -0.0000031664   0.0000007736  -0.0000016218
       -0.0000038260   0.0000008439  -0.0000005283  -0.0000019364   0.0000029939
        0.0000029061  -0.0000047233   0.0000028635   0.0000042229  -0.0000047956
        0.0000024160   0.0000048317   0.0000003441   0.0000025489   0.0000039578
        0.0000039423   0.0000054315   0.0000036318   0.0000021704   0.0000102467
       -0.0000073475   0.0000016528  -0.0000019250  -0.0000052158  -0.0000049493
        0.0000012280  -0.0000006587  -0.0000003432  -0.0000002909   0.0000044768
       -0.0000079217   0.0000007281  -0.0000001576   0.0000028829   0.0000002797
       -0.0000007695   0.0000030673   0.0000007500   0.0000008270   0.0000031337
        0.0000000006  -0.0000007056   0.0000044361   0.0000139775  -0.0000096202
        0.0000083634   0.0000006493  -0.0000191919   0.0000042288   0.0000055791
       -0.0000016265  -0.0000156472   0.0000145969  -0.0000331604   0.0000017807
       -0.0000427316  -0.0000965775  -0.0000555864   0.0031454514  -0.0015991109
        0.0038044705   0.0028478396  -0.0178207545  -0.0160557127
       -0.1928002829  -0.0294346366   0.1137346498   0.4609737866   0.1621300440
       -0.1986299719  -0.1939801570  -0.1112489959   0.0500257553   0.0153507611
       -0.0440964075  -0.0486343235   0.0060686650   0.0015563430   0.0020846597
       -0.0005111831   0.0003429237   0.0009560701  -0.0001601495   0.0009819475
        0.0000395655  -0.0000096714   0.0001621556  -0.0000927193   0.0002718536
       -0.0001516843   0.0000091466  -0.0002750196  -0.0002840884   0.0000049185
        0.0003172343   0.0002024284   0.0000568445  -0.0002789407  -0.0000158379
       -0.0000573553   0.0000987222   0.0001146766   0.0000406939  -0.0000958369
        0.0000639232  -0.0000182018   0.0001399963   0.0000074913   0.0000310465
       -0.0000830146  -0.0000097362  -0.0000172959   0.0000030306   0.0000179889
       -0.0000011569   0.0000003669  -0.0000120490   0.0000040923   0.0000076927
        0.0000014737   0.0000077469   0.0000017767   0.0000042268  -0.0000032069
       -0.0000044619   0.0000012561  -0.0000094984  -0.0000077509  -0.0000041527
        0.0000225098   0.0000095736  -0.0000144649  -0.0000038460   0.0000031616
        0.0000073688  -0.0000066921   0.0000080109   0.0000017048  -0.0000056793
        0.0000007504  -0.0000051401   0.0000014617  -0.0000064957  -0.0000061170
        0.0000054840  -0.0000100950   0.0000021334  -0.0000063004  -0.0000796303
       -0.0000733159  -0.0000346998   0.0001123152  -0.0000995085   0.0000268155
       -0.0000536840   0.0001492449  -0.0000237950   0.0000573730  -0.0001649896
        0.0000669716  -0.0001662962   0.0001087636  -0.0000703077   0.0001446603
        0.0001076287  -0.0000566228  -0.0000572976  -0.0001276710   0.0000345283
        0.0000472839   0.0000608943  -0.0000557531   0.0011008227  -0.0001810860
       -0.0005865365  -0.0000380916  -0.0000683182  -0.0000349697  -0.0000262502
        0.0000120285   0.0000199448   0.0000042656   0.0000149578  -0.0000165293
       -0.0000430340  -0.0000639104  -0.0000138105   0.0000220200  -0.0000164079
        0.0000258447  -0.0000037323  -0.0000054211   0.0000035416  -0.0000022680
        0.0000250802  -0.0000081175  -0.0000048604  -0.0000098315  -0.0000033819
       -0.0000014190  -0.0000112137   0.0000085689   0.0000305288   0.0000640880
        0.0000111952  -0.0008609787  -0.0019792303  -0.0004467201  -0.0000482948
        0.0000948457   0.0000645703  -0.0000589550   0.0000798862   0.0000301941
        0.0001047335  -0.0000347788  -0.0000160491  -0.0000474971  -0.0000742038
       -0.0001330794  -0.0000911573   0.0000877779   0.0001415320   0.0001118720
       -0.0002252467   0.0000822764  -0.0424377419  -0.0192831442   0.0202767030
        0.0173432819   0.0605653954   0.0333813553  -0.0167347403  -0.0013740442
        0.0157781445  -0.0407624454   0.0000248043   0.0057148730  -0.0160124611
       -0.0153641995   0.0038086692   0.0000010003   0.0000032829   0.0000050774
        0.0000008102  -0.0000083121  -0.0000097580   0.0000007917  -0.0000068691
        0.0000043839  -0.0000059492  -0.0000045050   0.0000030562  -0.0000010081
        0.0000023385  -0.0000009544  -0.0000044921  -0.0000030995  -0.0000044296
       -0.0000033061  -0.0000052660  -0.0000005721  -0.0000000940  -0.0000036174
        0.0000025196   0.0000004899   0.0000000564  -0.0000037435  -0.0000007114
       -0.0000029568  -0.0000012558  -0.0000055753   0.0000011131  -0.0000005679
       -0.0000031843   0.0000036577  -0.0000030227   0.0000009879   0.0000029752
       -0.0000037484  -0.0000002535  -0.0000005186   0.0000019540  -0.0000027830
        0.0000013488  -0.0000071025   0.0000054777   0.0000001363  -0.0000043554
       -0.0000004718  -0.0000009975   0.0000006428  -0.0000038118  -0.0000031307
        0.0000097945   0.0000040924  -0.0000051799   0.0000121719   0.0000084976
       -0.0000063026   0.0000102887  -0.0000012904  -0.0000098431   0.0000047867
        0.0000027059   0.0000009242   0.0000009860  -0.0000089973   0.0000003117
       -0.0000028154  -0.0000010798  -0.0000003820  -0.0000008838   0.0000010682
       -0.0000003440  -0.0000007810   0.0000000742   0.0000000702  -0.0000058293
       -0.0000001250  -0.0000004306  -0.0000000983   0.0000250849   0.0000023779
        0.0000139839   0.0000042683  -0.0000060960   0.0000098520   0.0000038645
        0.0000021331  -0.0000070246   0.0000094570  -0.0000188715   0.0000080270
       -0.0000156700  -0.0001188727  -0.0000749162  -0.0003942809  -0.0001232764
        0.0001075833   0.0038037692  -0.0022455042   0.0024229979
        0.0202615922  -0.0842269186  -0.0488695776   0.1621300440   0.5327118865
        0.1789552748  -0.1604507608  -0.2100508004   0.0214776508  -0.0086694563
       -0.0496078030  -0.0320870978   0.0003393858   0.0000359466  -0.0055370153
       -0.0004982996   0.0000578338   0.0006848737   0.0000624929   0.0002629392
        0.0002517517  -0.0000446972   0.0000549273  -0.0000156799   0.0000537494
       -0.0000322392   0.0000012412  -0.0000580370  -0.0000240400   0.0000054724
        0.0000291808   0.0000190241   0.0000162876  -0.0000099822   0.0000061806
       -0.0000029970  -0.0000022864  -0.0000118954  -0.0000082482   0.0000019485
       -0.0000248142   0.0000038861  -0.0000601697  -0.0000087856  -0.0000151186
        0.0000700312   0.0000005872   0.0000206375  -0.0000117399  -0.0000314881
       -0.0000089943  -0.0000014772   0.0000128151  -0.0000077242  -0.0000110289
       -0.0000041750  -0.0000136220  -0.0000017282  -0.0000063968  -0.0000020262
       -0.0000023520  -0.0000117798   0.0000059141   0.0000106143   0.0000068952
       -0.0000023509  -0.0000219700   0.0000335319  -0.0000029067  -0.0000002846
       -0.0000157299   0.0000031081  -0.0000160774   0.0000003291   0.0000030367
       -0.0000026773   0.0000055789  -0.0000027814   0.0000024862   0.0000100749
       -0.0000095871   0.0000081935  -0.0000091348   0.0000084881   0.0000024570
        0.0000290939  -0.0000008771  -0.0000064601   0.0000161109   0.0000085619
       -0.0000123744   0.0000317025  -0.0000113739   0.0000020184  -0.0000338967
        0.0000138371  -0.0000408662   0.0000121676  -0.0000118694   0.0000394673
        0.0000035041   0.0000055236  -0.0000051834  -0.0000081422   0.0000079381
       -0.0000139358  -0.0000196990  -0.0000348775   0.0005744515   0.0000008477
        0.0001264186  -0.0000078195  -0.0000996894   0.0001199757  -0.0000012445
        0.0000470360   0.0000135556   0.0000061798   0.0000087573  -0.0000108780
       -0.0000561443  -0.0000693459  -0.0000297187   0.0000587266  -0.0000459413
        0.0000280904   0.0000087722   0.0000026064   0.0000059218  -0.0000271488
        0.0000651283  -0.0000149944  -0.0000062574  -0.0000281039  -0.0000112272
        0.0000073692  -0.0000246411   0.0000097641   0.0000202695   0.0000817025
        0.0000124874  -0.0009078679  -0.0010367103  -0.0004186320   0.0000134577
        0.0000998198   0.0000998024  -0.0000537351   0.0000922263   0.0000538887
        0.0000935681  -0.0000194757  -0.0000041705  -0.0000461038  -0.0000295466
       -0.0000583852  -0.0000453981   0.0000452575   0.0000844768   0.0000114841
       -0.0001489015   0.0000101213  -0.0176849551  -0.0089573741   0.0141135458
        0.0243073775   0.0161633805  -0.0112656920  -0.0163959445  -0.0000523891
        0.0148882243  -0.0000969409  -0.1946862724  -0.1277614919  -0.0008929574
        0.0005861536   0.0003452962  -0.0000537877  -0.0000091954   0.0000064824
        0.0000046718  -0.0000122439   0.0000062265  -0.0000049468   0.0000030482
       -0.0000002127   0.0000022969   0.0000062297   0.0000009521   0.0000005314
       -0.0000036782  -0.0000011937   0.0000052513   0.0000030155   0.0000014142
        0.0000027326   0.0000067937  -0.0000054883  -0.0000034266   0.0000030213
       -0.0000090610  -0.0000051992  -0.0000018212   0.0000005472  -0.0000004845
        0.0000027012  -0.0000013195   0.0000076305  -0.0000031891  -0.0000023145
        0.0000039511  -0.0000081850   0.0000044595  -0.0000045154  -0.0000049789
        0.0000066738  -0.0000009413  -0.0000005302  -0.0000026386   0.0000052988
       -0.0000109123   0.0000014975  -0.0000086209  -0.0000133742  -0.0000014598
        0.0000044414   0.0000004092   0.0000015729   0.0000035676   0.0000088895
       -0.0000050751  -0.0000099607   0.0000109513  -0.0000032167  -0.0000104263
       -0.0000124133   0.0000024511   0.0000023992  -0.0000043522   0.0000040082
        0.0000053766   0.0000034414   0.0000015754  -0.0000147768   0.0000002342
       -0.0000049539  -0.0000040083   0.0000052562  -0.0000038044  -0.0000001715
        0.0000022095   0.0000059181  -0.0000026400  -0.0000012453  -0.0000084820
        0.0000006302   0.0000058355  -0.0000012233   0.0000263804   0.0000111492
        0.0000245311   0.0000011193   0.0000075739   0.0000209823  -0.0000084133
        0.0000133123   0.0000075325  -0.0000097479  -0.0000134540  -0.0000021820
       -0.0000370807  -0.0001117569  -0.0000490327  -0.0001140075   0.0003565034
        0.0006701390  -0.0017340794  -0.0014171602  -0.0058304432
        0.1538016568  -0.0005865457  -0.1944028265  -0.1986299719   0.1789552748
        0.4485124775   0.0123083484  -0.0249906757  -0.0774823338  -0.0221762106
        0.0021350560   0.0229300803   0.0019364283  -0.0071833021   0.0004764237
        0.0008496002   0.0008687555  -0.0002104592   0.0003559528  -0.0005515760
       -0.0003926189  -0.0000496906  -0.0000439060   0.0000547944  -0.0002124072
        0.0001402057  -0.0000208175   0.0001888645   0.0002328713  -0.0000046524
       -0.0002596794  -0.0001641388  -0.0000444517   0.0002534569   0.0000189501
        0.0000567146  -0.0000912442  -0.0001227402  -0.0000450587   0.0000941981
       -0.0000935543   0.0000169672  -0.0001914763  -0.0000163487  -0.0000434582
        0.0001590730   0.0000035919   0.0000418959  -0.0000225144  -0.0000668152
       -0.0000085155  -0.0000034781   0.0000213644  -0.0000123329  -0.0000172076
       -0.0000050511  -0.0000187662  -0.0000031819  -0.0000090760   0.0000014025
       -0.0000009602  -0.0000166944   0.0000156129   0.0000189400   0.0000129286
       -0.0000250686  -0.0000453253   0.0000767526  -0.0000103077   0.0000009819
       -0.0000266922   0.0000130493  -0.0000246371   0.0000053303   0.0000044091
       -0.0000021387   0.0000065355  -0.0000027348   0.0000058055   0.0000185079
       -0.0000168519   0.0000171399  -0.0000143500   0.0000140631   0.0000779099
        0.0001077179   0.0000372582  -0.0001104956   0.0001167564  -0.0000124040
        0.0000407397  -0.0001027358   0.0000068642  -0.0000556967   0.0001277156
       -0.0000585928   0.0001193575  -0.0001009908   0.0000630672  -0.0000989978
       -0.0001077030   0.0000570792   0.0000605960   0.0001003977  -0.0000368924
       -0.0000117211  -0.0000527540   0.0000970529  -0.0003392609   0.0000956669
       -0.0000085417  -0.0001436596  -0.0000725372  -0.0000502314   0.0000188263
       -0.0000253855  -0.0000010400  -0.0000118335  -0.0000206737  -0.0000054684
       -0.0000226906  -0.0000164558  -0.0000229364   0.0000254012  -0.0000399018
        0.0000105955   0.0000000795   0.0000579902   0.0000217470  -0.0000240478
        0.0000371377  -0.0000076224  -0.0000009080  -0.0000125692  -0.0000068458
        0.0000111971  -0.0000131350   0.0000010128  -0.0000003975   0.0000382255
        0.0000079479  -0.0007066067   0.0001123871   0.0006732491   0.0000635327
       -0.0000929764  -0.0000561714   0.0000361005   0.0000006545   0.0000287839
       -0.0000226535   0.0000076922  -0.0000092210   0.0000071946   0.0000531652
        0.0000903435   0.0000562305  -0.0000527281  -0.0000656890  -0.0001529254
        0.0000924434  -0.0000923736   0.0217243925   0.0156061216  -0.0139425466
        0.0038089156  -0.0465635482  -0.0400423532   0.0036341595   0.0005884888
       -0.0022201138   0.0057489543  -0.1278750255  -0.1422477237   0.0153632341
        0.0142504286  -0.0025450038  -0.0000309753   0.0000004431   0.0000024006
        0.0000144753  -0.0000076621   0.0000151579  -0.0000067130   0.0000098218
       -0.0000045380   0.0000092158   0.0000126748  -0.0000006817   0.0000023213
       -0.0000063019   0.0000013621   0.0000102256   0.0000064605   0.0000066339
        0.0000065992   0.0000125297  -0.0000039301  -0.0000028881   0.0000069476
       -0.0000110686  -0.0000052707  -0.0000013489   0.0000040270   0.0000001464
        0.0000057649   0.0000005012   0.0000131933  -0.0000047890  -0.0000012779
        0.0000080719  -0.0000126452   0.0000079259  -0.0000053406  -0.0000097656
        0.0000122507  -0.0000015042   0.0000008197  -0.0000042915   0.0000117191
       -0.0000144132   0.0000064132  -0.0000125914  -0.0000157693   0.0000002972
        0.0000084757  -0.0000016894  -0.0000030950   0.0000088504   0.0000145415
       -0.0000125340  -0.0000150828   0.0000156253  -0.0000140279  -0.0000187234
       -0.0000020893  -0.0000067535   0.0000028587   0.0000040128  -0.0000057160
       -0.0000001563  -0.0000010014  -0.0000008574  -0.0000048366   0.0000053446
       -0.0000031805  -0.0000022230   0.0000062308  -0.0000027124  -0.0000010966
        0.0000023740   0.0000071276  -0.0000029314  -0.0000007229  -0.0000019856
        0.0000011724   0.0000068493  -0.0000006451   0.0000033448   0.0000108194
        0.0000058572   0.0000016530   0.0000133815   0.0000090651  -0.0000142392
        0.0000119707   0.0000178095  -0.0000120778   0.0000039877  -0.0000142079
       -0.0000149804  -0.0000165919   0.0000348319   0.0000807275   0.0005914088
        0.0002237068   0.0026133307  -0.0054957460   0.0006762699
       -0.0436623483  -0.0037669606   0.0402166814  -0.1939801570  -0.1604507608
        0.0123083484   0.4849078173   0.1720287533  -0.2124409946  -0.0783314724
        0.0136480215   0.0354194594  -0.0010173394  -0.0194362951  -0.0121568429
       -0.0002502954  -0.0014946618  -0.0009766041   0.0000402911  -0.0001653748
        0.0001600441   0.0001466694  -0.0000903204   0.0000545764   0.0000349385
       -0.0000914793   0.0000703036  -0.0000140448  -0.0000431931  -0.0000046853
        0.0001095375   0.0000441555   0.0000114412  -0.0000938680  -0.0000037778
       -0.0000214700   0.0000476216   0.0000594044   0.0000218871  -0.0000474294
        0.0000675043  -0.0000169309   0.0001713777   0.0000221730   0.0000439631
       -0.0001584436  -0.0000018410  -0.0000414862   0.0000156909   0.0000547225
        0.0000146252   0.0000016121  -0.0000242825   0.0000107139   0.0000172113
        0.0000076747   0.0000180886   0.0000016558   0.0000063500   0.0000005521
       -0.0000005857   0.0000120880  -0.0000115302  -0.0000193950  -0.0000106772
        0.0000042438   0.0000372563  -0.0000610982  -0.0000003505   0.0000006219
        0.0000241532  -0.0000053461   0.0000209569  -0.0000019636  -0.0000051757
       -0.0000003660  -0.0000041524   0.0000030634  -0.0000032864  -0.0000164613
        0.0000159177  -0.0000174065   0.0000143523  -0.0000139966  -0.0000501518
       -0.0000790478  -0.0000089241   0.0000559363  -0.0000733792   0.0000000299
        0.0000028730   0.0000156088  -0.0000019837   0.0000219349  -0.0000183126
        0.0000201401  -0.0000091636   0.0000314069  -0.0000100921   0.0000007543
        0.0000465807  -0.0000246192  -0.0000626781   0.0000091657   0.0000492836
       -0.0000316700   0.0000140784  -0.0000795499  -0.0008916454  -0.0015735446
        0.0001278511  -0.0001186234   0.0002367882   0.0001398853  -0.0000464451
       -0.0000992121  -0.0000428148   0.0000055575   0.0000035373   0.0000011706
        0.0000842618   0.0001129052   0.0000484740  -0.0000914321   0.0001029693
       -0.0000741101  -0.0000069405  -0.0000758597  -0.0000487470   0.0000653427
       -0.0001181024   0.0000424203   0.0000030555   0.0000304636   0.0000109176
       -0.0000208045   0.0000380098  -0.0000185849  -0.0000323871  -0.0001475829
       -0.0000201834  -0.0016037716  -0.0015825308   0.0008708011  -0.0004816979
        0.0000969508   0.0000801090   0.0000661341  -0.0001477856  -0.0000892137
       -0.0000721979   0.0000353973  -0.0000116486   0.0000538207  -0.0000038789
        0.0000176190   0.0000102514   0.0000233836  -0.0000022225   0.0000434092
        0.0000479117  -0.0001119336   0.0173547766   0.0240729777   0.0042000622
       -0.0105236043  -0.0211974166  -0.0124821194  -0.0001999744  -0.0019026684