$hessian                                                                        
        0.2998215548  -0.0259785109  -0.2525104172  -0.1379297227   0.0285563071
        0.1221484470   0.0020168911   0.0537891190  -0.0051406847  -0.0257973925
       -0.0060356278   0.0287034092  -0.0003233075   0.0001712017  -0.0007515634
       -0.0000082754  -0.0001659205   0.0000311515  -0.0000084518   0.0000205081
       -0.0000000704   0.0000900431   0.0000520534   0.0000076050  -0.0000509457
        0.0000187162  -0.0000149043  -0.0000085286  -0.0000261200   0.0000500607
       -0.0000012879   0.0000085047   0.0000039976   0.0000039635   0.0000073483
        0.0000016290   0.0000067709   0.0000041911   0.0000036642  -0.0000088664
        0.0000025480   0.0000065635   0.0000026421   0.0000031053   0.0000048761
       -0.0000035858   0.0000041301   0.0000009346  -0.0000019272  -0.0000034416
        0.0000023706  -0.0000031279  -0.0000034516   0.0000036759   0.0000018155
       -0.0000010726   0.0000001043   0.0000018675  -0.0000035534   0.0000019695
        0.0000006378   0.0000043518   0.0000018579   0.0000033935  -0.0000043395
        0.0000015107   0.0000022956  -0.0000022898   0.0000038720   0.0000025414
       -0.0000012822   0.0000011064   0.0000000750   0.0000013692   0.0000021455
        0.0000124820  -0.0000071894  -0.0000054480  -0.0000010658  -0.0000050084
        0.0000020187   0.0000188970   0.0000197013   0.0000028559  -0.0000220397
       -0.0000232781  -0.0000050136   0.0000182280   0.0000018741   0.0000144328
       -0.0000033917   0.0000032967  -0.0000020435   0.0000022557   0.0000032032
        0.0000050252  -0.0000021994  -0.0000005537   0.0000026015  -0.0000010685
        0.0000020098   0.0000016474  -0.0000019044  -0.0000055070   0.0000033391
       -0.0000033832  -0.0000007461  -0.0000024531   0.0000017731  -0.0000013597
        0.0000019241  -0.0000002776  -0.0000009160  -0.0000015352   0.0000026608
        0.0000043718  -0.0000019860   0.0000057877  -0.0000009352   0.0000058616
       -0.0000034751   0.0000139958  -0.0000060433  -0.0000101523  -0.0000046444
       -0.0000035258   0.0000457920   0.0000094176  -0.0000330522  -0.0000693469
       -0.0000646573  -0.0001171125  -0.0000528341   0.0000567819  -0.0000536482
        0.0000687253  -0.0000716767   0.0000049902  -0.0000958468   0.0000350732
       -0.0000118656   0.0000649266   0.0000606759   0.0000006818   0.0000294250
       -0.0000873777  -0.0000587186   0.0000341978   0.0000951281   0.0000486398
       -0.0000591006   0.0000783644  -0.0000410060   0.0173413208  -0.0408291516
       -0.0179806951  -0.1095944711  -0.0378213554   0.0877238723  -0.0410563374
        0.0313564943   0.0069638855  -0.0078395989   0.0039202589   0.0116567782
        0.0057106999   0.0008915521   0.0032089694   0.0000004583   0.0000043799
       -0.0000045170  -0.0000002263  -0.0000054723  -0.0000137031  -0.0000001922
       -0.0000008833   0.0000012396   0.0000005304   0.0000036695   0.0000020118
        0.0000008976   0.0000004187   0.0000052600   0.0000004717   0.0000006465
        0.0000034071  -0.0000005609   0.0000019848   0.0000049108   0.0000009575
        0.0000014904   0.0000047823   0.0000001532   0.0000004212   0.0000067005
        0.0000006610  -0.0000014964   0.0000057475   0.0000013535  -0.0000007814
        0.0000029719  -0.0000031395  -0.0000007462   0.0000022200  -0.0000012420
       -0.0000005731   0.0000029098  -0.0000024350   0.0000019506   0.0000016288
       -0.0000040885   0.0000008481   0.0000015301  -0.0000021401  -0.0000004119
        0.0000014750  -0.0000021646  -0.0000011961   0.0000001796  -0.0000001117
       -0.0000025355  -0.0000000651   0.0000005363  -0.0000007820  -0.0000012998
       -0.0000013656  -0.0000023754  -0.0000021404  -0.0000004292  -0.0000010652
       -0.0000003248   0.0000043435   0.0000007191  -0.0000046887  -0.0000597256
        0.0000054795  -0.0000418838   0.0000001484   0.0000051088  -0.0000025777
        0.0000026750   0.0000036831   0.0000042230   0.0000011035   0.0000088773
       -0.0000125816   0.0000999924  -0.0000154661   0.0000297429   0.0056491531
        0.0013358647   0.0032052136  -0.0080353647  -0.0093874441   0.0129109397
       -0.0259785109   0.6760864433  -0.0125731400   0.0745602936  -0.1286085248
       -0.0959662793   0.0192696653  -0.0203252937  -0.0257373669  -0.0058920070
        0.0037740336   0.0078328886   0.0001613653  -0.0016174060  -0.0004008437
        0.0001815586   0.0002217137  -0.0003818436   0.0000115603  -0.0000469676
        0.0000536396   0.0000062637   0.0000438968  -0.0000000654  -0.0000213864
        0.0000551626  -0.0000351780  -0.0000038069  -0.0000475333   0.0000179103
        0.0000287745   0.0000102587  -0.0000031229   0.0000045218  -0.0000283442
        0.0000002286  -0.0000107292   0.0000245499   0.0000008077   0.0000131746
       -0.0000165070   0.0000036176  -0.0000021748   0.0000076969  -0.0000052634
       -0.0000018981   0.0000104784   0.0000119089  -0.0000023287   0.0000016067
       -0.0000007231   0.0000006595  -0.0000022547  -0.0000070606   0.0000017462
       -0.0000047357  -0.0000002135   0.0000049927   0.0000024143  -0.0000066307
        0.0000008740  -0.0000069401   0.0000004591  -0.0000014562   0.0000037739
       -0.0000002781   0.0000006730  -0.0000027047  -0.0000009365   0.0000010175
        0.0000012763   0.0000008409   0.0000052572  -0.0000010716  -0.0000015790
       -0.0000196067   0.0000080121   0.0000106921  -0.0000005280   0.0000050891
        0.0000011769  -0.0000085851  -0.0000147254  -0.0000024068   0.0000084764
        0.0000186295  -0.0000010322  -0.0000091380   0.0000010516  -0.0000058465
        0.0000025885  -0.0000027819   0.0000018078  -0.0000003136  -0.0000005351
       -0.0000018021   0.0000013796   0.0000013178  -0.0000009581   0.0000009330
       -0.0000010775   0.0000003685   0.0000005051   0.0000031409  -0.0000021668
        0.0000034007   0.0000024512   0.0000021284  -0.0000020614  -0.0000020306
       -0.0000000252   0.0000013405   0.0000017531   0.0000015151   0.0000002570
       -0.0000003114   0.0000008608   0.0000005372   0.0000031534  -0.0000017641
        0.0000033082  -0.0000124331   0.0000067659   0.0000177079   0.0000025316
        0.0000037086   0.0000123664  -0.0000001011   0.0000058728  -0.0001514797
       -0.0000106777   0.0000674858   0.0000165097   0.0001038586   0.0000998519
       -0.0000258121   0.0000910967  -0.0000583635   0.0000690028   0.0000085158
       -0.0000235872  -0.0000618405  -0.0000146648   0.0000065633  -0.0000130004
        0.0000170289  -0.0000351670   0.0000480958  -0.0000310343   0.0000590716
       -0.0002440608   0.0002228801   0.0004066264  -0.0060866265  -0.0499066723
        0.0139996914  -0.0838253857  -0.1830899742   0.1277038521   0.0313498493
       -0.2974356183  -0.0207326018  -0.0099054292   0.0059750476   0.0134287970
        0.0011326784  -0.0057545092  -0.0005325881   0.0000018475   0.0000480182
       -0.0000383181  -0.0000031825  -0.0000009280  -0.0000090461  -0.0000242036
        0.0000185067  -0.0000036468  -0.0000026689  -0.0000075755  -0.0000070996
        0.0000013818   0.0000104526  -0.0000007656   0.0000055339  -0.0000047572
        0.0000019915   0.0000054475  -0.0000021691  -0.0000036603   0.0000031059
       -0.0000017838  -0.0000022501   0.0000013290   0.0000006907  -0.0000026932
       -0.0000000477   0.0000009110  -0.0000015288  -0.0000015920  -0.0000004269
       -0.0000001945   0.0000036187   0.0000035552  -0.0000008219  -0.0000006204
        0.0000018095  -0.0000016168   0.0000000433   0.0000004093  -0.0000008715
        0.0000018900   0.0000007056  -0.0000004246   0.0000006385   0.0000009586
       -0.0000004261   0.0000006971   0.0000006737  -0.0000004245  -0.0000006504
        0.0000003704   0.0000000266   0.0000005078  -0.0000004331   0.0000006589
       -0.0000000570  -0.0000012697   0.0000006561   0.0000037389  -0.0000006222
        0.0000004766  -0.0000626854   0.0000268068  -0.0000288987  -0.0000815925
       -0.0001797477  -0.0001316303   0.0000141835  -0.0000081668  -0.0000108488
        0.0000171704  -0.0000017837   0.0000093971   0.0000169641  -0.0000164106
        0.0000051585   0.0000349262  -0.0000654104  -0.0000166050   0.0011275312
       -0.0056918071  -0.0002525562   0.0042835769   0.0061459909  -0.0067143412
       -0.2525104172  -0.0125731400   0.4657197269   0.1183488134  -0.0315543542
       -0.2075956967  -0.0024764080  -0.0732857096   0.0105932748   0.0276959879
        0.0074544980  -0.0468185348   0.0000366058  -0.0000618439   0.0008779338
        0.0000014671   0.0001822520  -0.0000260751   0.0000993528   0.0000646685
        0.0000224799  -0.0001884509  -0.0001096752   0.0000250473   0.0001192338
       -0.0000643392   0.0000438298   0.0000271992   0.0000954316  -0.0001052655
       -0.0000167494  -0.0000072714  -0.0000090398   0.0000108828  -0.0000023965
       -0.0000007296  -0.0000174396   0.0000183044   0.0000022893  -0.0000002823
       -0.0000378359   0.0000123396   0.0000135062   0.0000371958  -0.0000216993
       -0.0000034523   0.0000019225   0.0000011394   0.0000021808   0.0000023186
       -0.0000099187  -0.0000002467  -0.0000027649   0.0000003650   0.0000019282
        0.0000053316  -0.0000060062   0.0000091604  -0.0000098788  -0.0000007072
       -0.0000023518   0.0000025171   0.0000007848   0.0000036799  -0.0000008107
        0.0000012755   0.0000011128  -0.0000024667   0.0000026631  -0.0000028538
        0.0000058628   0.0000047841   0.0000005230   0.0000032304  -0.0000016019
       -0.0000074937  -0.0000041838   0.0000068382  -0.0000021238  -0.0000035741
        0.0000015373  -0.0000161942  -0.0000091908   0.0000003833   0.0000198071
        0.0000131690   0.0000089907  -0.0000185429  -0.0000024690  -0.0000124149
        0.0000001816   0.0000006289   0.0000026921  -0.0000035060  -0.0000011359
        0.0000010617  -0.0000010862   0.0000007803   0.0000032862  -0.0000030786
       -0.0000011093  -0.0000003467   0.0000015397   0.0000078404   0.0000018164
       -0.0000001541  -0.0000005532   0.0000061545  -0.0000014133   0.0000015241
       -0.0000005108   0.0000000975   0.0000015573   0.0000038338  -0.0000024879
       -0.0000040347   0.0000011729  -0.0000066954  -0.0000021543  -0.0000026982
        0.0000043288  -0.0000046695   0.0000030799   0.0000098080   0.0000012988
        0.0000089778  -0.0001296299   0.0000128558   0.0000549591   0.0002625790
        0.0002333321   0.0001873961   0.0000747174  -0.0001487874   0.0000838136
       -0.0001252990   0.0001222366  -0.0000001694   0.0001336663  -0.0000460812
        0.0000144641  -0.0000804905  -0.0000936649  -0.0000230966  -0.0000552083
        0.0001004838   0.0000950975   0.0000240027  -0.0001172073  -0.0000301413
        0.0001256865  -0.0000648629  -0.0000143459  -0.0219238344   0.0615201630
        0.0250221441   0.0919464490   0.0631883145  -0.1806474422   0.0069165775
       -0.0207250005  -0.0419476411   0.0130345102  -0.0058560890  -0.0163122757
        0.0032379950  -0.0001464231   0.0035659527   0.0000035604  -0.0000174875
        0.0000109673   0.0000027019   0.0000042493   0.0000199862   0.0000100507
        0.0000020099  -0.0000039380   0.0000008169   0.0000055313   0.0000034948
       -0.0000050363  -0.0000000757   0.0000114215   0.0000002139  -0.0000049343
        0.0000036779  -0.0000013431  -0.0000013439   0.0000026070   0.0000023269
       -0.0000011485  -0.0000003338   0.0000009128  -0.0000002369   0.0000022854
        0.0000006034  -0.0000002896   0.0000006754   0.0000015056  -0.0000017480
        0.0000012035   0.0000046224   0.0000009800   0.0000009771   0.0000001423
       -0.0000004119   0.0000012314   0.0000008481  -0.0000007141   0.0000045564
        0.0000017723   0.0000002370   0.0000033655   0.0000004326   0.0000021982
        0.0000027614   0.0000022089   0.0000027337   0.0000032669   0.0000012317
        0.0000026053   0.0000014192   0.0000015069   0.0000000358   0.0000016353
        0.0000024688   0.0000017063   0.0000024672  -0.0000014701  -0.0000003099
       -0.0000008144   0.0000226318  -0.0000023389   0.0000247192   0.0000835172
       -0.0000024186   0.0001063223  -0.0000011667  -0.0000074967  -0.0000013480
       -0.0000035711  -0.0000130241  -0.0000212663   0.0000005329  -0.0000169028
        0.0000074753  -0.0001413635  -0.0000655766  -0.0000716144   0.0033735890
       -0.0006788309   0.0036079655   0.0120680627   0.0126589625  -0.0165203948
       -0.1379297227   0.0745602936   0.1183488134   0.3050578908  -0.0146253436
       -0.2606341836  -0.0656002518   0.0078224419   0.0272143393   0.0150135409
       -0.0051927066  -0.0230190357   0.0039474531  -0.0030777343   0.0053000534
        0.0000241121   0.0002601915   0.0006320617   0.0000507550   0.0000647202
        0.0000002749  -0.0000418880  -0.0000538379  -0.0000024512   0.0000397110
        0.0000091101  -0.0000015653   0.0000152906   0.0000160618  -0.0000434761
        0.0000025016   0.0000034716  -0.0000029520   0.0000141563  -0.0000038796
       -0.0000036575  -0.0000095623   0.0000195320   0.0000012911   0.0000062956
       -0.0000178016   0.0000048677   0.0000012708   0.0000068761  -0.0000054157
        0.0000028557   0.0000025456   0.0000053023   0.0000066499   0.0000025797
       -0.0000050783   0.0000012510   0.0000014198  -0.0000018674   0.0000006165
        0.0000024514  -0.0000024877   0.0000026986  -0.0000025112  -0.0000035400
       -0.0000007459  -0.0000022132  -0.0000004275   0.0000013363   0.0000009736
       -0.0000032600   0.0000000625  -0.0000003875  -0.0000026384  -0.0000015494
        0.0000021651  -0.0000021146   0.0000017041   0.0000017554  -0.0000043042
       -0.0000078202  -0.0000013369  -0.0000005929  -0.0000006236  -0.0000025524
       -0.0000004922  -0.0000055183  -0.0000004955  -0.0000027974   0.0000001803
        0.0000006608   0.0000014820  -0.0000014557  -0.0000007575  -0.0000031700
        0.0000013516   0.0000011109  -0.0000012166   0.0000023470   0.0000007705
       -0.0000017157   0.0000008270  -0.0000000903  -0.0000022580  -0.0000006928
       -0.0000012714  -0.0000026712   0.0000012541   0.0000019356  -0.0000022475
        0.0000000479  -0.0000005096  -0.0000006574  -0.0000007931  -0.0000003459
       -0.0000016126   0.0000000633   0.0000003036   0.0000001276  -0.0000011637
        0.0000015812  -0.0000009494  -0.0000004108   0.0000008228  -0.0000004964
        0.0000007278   0.0000020839  -0.0000016988   0.0000122637   0.0000031376
        0.0000032774  -0.0000688592  -0.0000081040   0.0000448219   0.0000436186
        0.0001364370   0.0001315566   0.0002729429   0.0001648591  -0.0004082614
        0.0000142828  -0.0003874834  -0.0001022893   0.0000278969  -0.0000309359
       -0.0000305608  -0.0000527297  -0.0000069399   0.0000173314   0.0000018994
        0.0000352938  -0.0000231761  -0.0000563037   0.0000069138  -0.0000780062
       -0.0003188733  -0.0007506581   0.0004080850  -0.0125774104   0.0209313410
        0.0085964546  -0.0203079254  -0.0293634701   0.0331630526  -0.0022575475
        0.0027590321   0.0036256450  -0.0874710565  -0.0686479717   0.0792089061
       -0.0021642044   0.0165977797   0.0027259753  -0.0000020363   0.0000001363
       -0.0000004940   0.0000101469   0.0000010703   0.0000089657  -0.0000037142
       -0.0000027839   0.0000025726  -0.0000007886  -0.0000021722  -0.0000045789
        0.0000024025   0.0000020138  -0.0000022919   0.0000022491  -0.0000031311
       -0.0000025308  -0.0000000864  -0.0000005639  -0.0000031332  -0.0000010947
        0.0000004746  -0.0000031104  -0.0000019563   0.0000008642  -0.0000031093
       -0.0000023385   0.0000003420  -0.0000020831  -0.0000016753  -0.0000008610
       -0.0000014138   0.0000002990  -0.0000007577  -0.0000022155   0.0000002330
       -0.0000013493  -0.0000021402   0.0000019442  -0.0000009834  -0.0000023385
        0.0000015873  -0.0000004909  -0.0000022744   0.0000009877   0.0000000127
       -0.0000021666  -0.0000001260   0.0000003719  -0.0000008958  -0.0000012664
       -0.0000001850  -0.0000003071  -0.0000007056  -0.0000001689   0.0000009520
       -0.0000006622   0.0000004155   0.0000001767  -0.0000012372  -0.0000039307
       -0.0000009894  -0.0000025366  -0.0000007007   0.0000028471   0.0001015070
       -0.0000814493   0.0000405017   0.0000200080  -0.0000113010  -0.0000144891
        0.0000105846   0.0000090939   0.0000110418   0.0000106809   0.0000030821
       -0.0000009334   0.0000426057   0.0000662247   0.0000407030  -0.0000725614
        0.0003538959  -0.0003109100   0.0041948025  -0.0015684836   0.0052242507
        0.0285563071  -0.1286085248  -0.0315543542  -0.0146253436   0.6585449261
       -0.0254909596   0.0532686633  -0.3289991488  -0.0502162713  -0.0400457183
       -0.0508092598   0.0612518332  -0.0020977724   0.0013418657   0.0016067733
       -0.0004343055  -0.0017472533   0.0007105766   0.0000873788   0.0000569482
       -0.0000711621   0.0001232276   0.0000579190  -0.0000266527  -0.0001078426
        0.0000671975  -0.0000411986  -0.0000172232  -0.0001017081   0.0001044098
        0.0000176699   0.0000043094  -0.0000001948  -0.0000021296  -0.0000109312
       -0.0000080210  -0.0000062409  -0.0000003098   0.0000011460   0.0000011427
        0.0000050269  -0.0000077784  -0.0000010138  -0.0000043037   0.0000050179
       -0.0000009518   0.0000021710   0.0000034995   0.0000000241  -0.0000005635
       -0.0000006421   0.0000022016   0.0000009435   0.0000015283   0.0000003731
       -0.0000026694   0.0000037141   0.0000006650   0.0000034995   0.0000006560
        0.0000004694  -0.0000036745   0.0000010146  -0.0000027848   0.0000024405
        0.0000032135  -0.0000006273   0.0000000825   0.0000005310   0.0000003088
       -0.0000000083   0.0000006019  -0.0000005328  -0.0000028164   0.0000009886
       -0.0000043826   0.0000075476   0.0000063542  -0.0000031884   0.0000085304
       -0.0000004893  -0.0000166740  -0.0000257227  -0.0000020883   0.0000203834
        0.0000286203  -0.0000035346  -0.0000158708   0.0000036952  -0.0000085865
        0.0000023814  -0.0000025823   0.0000021734  -0.0000029058   0.0000001022
       -0.0000031787  -0.0000001029   0.0000020930  -0.0000017035  -0.0000002201
       -0.0000008663  -0.0000002975  -0.0000008700   0.0000057320  -0.0000039642
        0.0000033619   0.0000039532   0.0000028850  -0.0000045679  -0.0000031214
       -0.0000015370   0.0000003293   0.0000009910   0.0000004272  -0.0000014493
       -0.0000042906   0.0000000221   0.0000015172   0.0000025655  -0.0000045685
        0.0000031829  -0.0000175994   0.0000100439   0.0000101857  -0.0000102166
        0.0000036418   0.0002156997   0.0000553802  -0.0001175434  -0.0003396676
       -0.0002940509  -0.0000889522  -0.0002554635   0.0003499606  -0.0003535838
        0.0001680689  -0.0000883265   0.0000092838  -0.0001863318  -0.0000395003
        0.0000033628   0.0001875435   0.0001445825   0.0000140572   0.0001301694
       -0.0000932752  -0.0000482082  -0.0002296207   0.0003222515   0.0000358868
        0.0005574213  -0.0002889391  -0.0003615826   0.0210717078  -0.0391991136
       -0.0256259646   0.0046180580   0.0577329349  -0.0117699766   0.0168064537
       -0.0139895717  -0.0219077101  -0.0689808834  -0.1397055281   0.1042762206
        0.0030005234  -0.0130467602  -0.0028178723  -0.0000139945   0.0000465372
       -0.0000263258   0.0000003000   0.0000067296  -0.0000202197  -0.0000023891
        0.0000139927   0.0000050575  -0.0000006387   0.0000014858  -0.0000013451
        0.0000021491   0.0000041544  -0.0000015614   0.0000023661   0.0000002222
        0.0000002229   0.0000025667   0.0000000962  -0.0000002850   0.0000017871
       -0.0000004114  -0.0000003690   0.0000018001   0.0000004730  -0.0000012980
        0.0000010915   0.0000013515  -0.0000019452   0.0000002630   0.0000022463
       -0.0000006026   0.0000021568   0.0000051032  -0.0000005186  -0.0000005648
        0.0000031132  -0.0000011394  -0.0000006269   0.0000022127  -0.0000006980
        0.0000007791   0.0000027338  -0.0000011778  -0.0000008693   0.0000027199
       -0.0000015521  -0.0000008281   0.0000017426  -0.0000018378  -0.0000024232
        0.0000006235  -0.0000018016  -0.0000015227   0.0000000153  -0.0000007627
       -0.0000010693   0.0000005656   0.0000008606   0.0000007547   0.0000078240
        0.0000007191  -0.0000348889   0.0000114966  -0.0000168535  -0.0002141973
       -0.0001700612  -0.0001186583  -0.0000071956   0.0000479015   0.0000219795
       -0.0000359478   0.0000287321   0.0000210942  -0.0000370415   0.0000011484
       -0.0000054751   0.0004241247  -0.0002345461   0.0000563897   0.0003194001
       -0.0000375215  -0.0006268935  -0.0018760749  -0.0014063144   0.0032037100
        0.1221484470  -0.0959662793  -0.2075956967  -0.2606341836  -0.0254909596
        0.4791086856   0.0235380038   0.0129823100  -0.0801000985  -0.0201028726
        0.0121596740   0.0259495538   0.0059632097   0.0031826184  -0.0004068629
       -0.0002130720   0.0011909806  -0.0000991759  -0.0001220500   0.0000160267
        0.0000112519   0.0001201149   0.0000803934  -0.0000190532  -0.0000752362
       -0.0000012657  -0.0000107836  -0.0000317355  -0.0000385022   0.0000644140
        0.0000011186  -0.0000090911   0.0000116832  -0.0000302417   0.0000035984
        0.0000108089   0.0000179669  -0.0000320157  -0.0000078282  -0.0000235529
        0.0000256988   0.0000072778  -0.0000006681   0.0000017201  -0.0000019362
       -0.0000004889  -0.0000015801  -0.0000105783  -0.0000019947  -0.0000082711
       -0.0000035435  -0.0000027357  -0.0000041127   0.0000027610   0.0000007545
        0.0000005024  -0.0000049657  -0.0000014556  -0.0000028710   0.0000060181
       -0.0000033198   0.0000109166  -0.0000056076  -0.0000001317  -0.0000052681
        0.0000008805  -0.0000019103  -0.0000012616  -0.0000007285  -0.0000000372
       -0.0000026229  -0.0000019016  -0.0000072427  -0.0000009012   0.0000037159
        0.0000218963  -0.0000092618  -0.0000142355  -0.0000047585  -0.0000008878
       -0.0000002853   0.0000271730   0.0000182197   0.0000028320  -0.0000172358
       -0.0000219437  -0.0000053834   0.0000156637  -0.0000008406   0.0000068876
       -0.0000042850   0.0000010773  -0.0000060185   0.0000019906  -0.0000002747
        0.0000017621  -0.0000006241  -0.0000022465   0.0000006726   0.0000009435
        0.0000019747  -0.0000033602  -0.0000017357  -0.0000052587   0.0000025663
       -0.0000047720  -0.0000018844  -0.0000029461   0.0000021737  -0.0000004307
       -0.0000009312  -0.0000032307   0.0000000248  -0.0000017929   0.0000002393
        0.0000013111  -0.0000023077   0.0000000971  -0.0000032594   0.0000047469
       -0.0000011676   0.0000127748  -0.0000092348  -0.0000311029  -0.0000007937
       -0.0000025533   0.0000906524  -0.0000272334  -0.0000550028  -0.0000430778
       -0.0000710883  -0.0002129249   0.0001786273   0.0005940200   0.0000590911
        0.0001976247  -0.0001598788  -0.0001038620  -0.0000996081  -0.0000285664
       -0.0000079640   0.0000550070   0.0000200170   0.0000127386  -0.0000425445
        0.0000535794  -0.0000626039   0.0001396242   0.0001470975   0.0000679605
       -0.0002993046  -0.0003751864   0.0000728801   0.0092909863  -0.0266405265
       -0.0148851801   0.0300631487   0.0366444858  -0.0435131283   0.0024400660
       -0.0025536726  -0.0025369583   0.0790400554   0.1042474599  -0.1533443581
        0.0035608492  -0.0221528564  -0.0029202005  -0.0000097352  -0.0000237467
        0.0000191439  -0.0000153356  -0.0000051689  -0.0000034183   0.0000060944
        0.0000002583  -0.0000104925   0.0000040796   0.0000097341   0.0000058559
       -0.0000023906  -0.0000048067   0.0000101714  -0.0000013307   0.0000020123
        0.0000018777  -0.0000033199   0.0000017106   0.0000030320   0.0000002132
        0.0000012659  -0.0000014037  -0.0000021639  -0.0000003543   0.0000014820
       -0.0000013916  -0.0000014788  -0.0000008707   0.0000015348  -0.0000000365
       -0.0000019360  -0.0000012552   0.0000010713  -0.0000008998   0.0000028342
       -0.0000012043  -0.0000001319   0.0000012872   0.0000003214  -0.0000013393
        0.0000008039  -0.0000014166  -0.0000031503  -0.0000003188  -0.0000010004
       -0.0000016321  -0.0000001273  -0.0000012188  -0.0000018813   0.0000003926
       -0.0000011293  -0.0000016895  -0.0000000151  -0.0000002669  -0.0000031876
       -0.0000005781  -0.0000020032  -0.0000033310   0.0000031425   0.0000067931
        0.0000005374   0.0000194833  -0.0000007593   0.0000034756  -0.0000405369
        0.0000364516   0.0000742789   0.0000117114  -0.0000286073   0.0000012133
        0.0000010477  -0.0000182802   0.0000161193   0.0000231199  -0.0000117213
        0.0000066611   0.0000305087  -0.0001480935   0.0000569383  -0.0003187487
       -0.0005103038   0.0002017571   0.0051809365   0.0029265900   0.0001836231
        0.0020168911   0.0192696653  -0.0024764080  -0.0656002518   0.0532686633
        0.0235380038   0.2984656848  -0.0300946962  -0.2580655256  -0.1092852266
       -0.0753976312   0.0897776768   0.0042483941  -0.0049111040  -0.0015771691
        0.0000969021  -0.0003634471  -0.0005542149   0.0001238678   0.0000130144
        0.0000660055  -0.0000654747  -0.0000390471   0.0000916833   0.0000976267
       -0.0000752535   0.0000507569   0.0000485804   0.0001076494  -0.0000978860
       -0.0000435773   0.0000016637  -0.0000027122   0.0000209085   0.0000032018
       -0.0000024395  -0.0000159026   0.0000102610   0.0000015979   0.0000079414
       -0.0000054140  -0.0000014378   0.0000001889  -0.0000031621   0.0000030309
        0.0000043435  -0.0000011862   0.0000033305   0.0000027925  -0.0000000899
        0.0000027779   0.0000016439   0.0000004262   0.0000016563  -0.0000008858
        0.0000008205   0.0000029511   0.0000003706   0.0000008311   0.0000006873
        0.0000002814  -0.0000024170   0.0000022154   0.0000006711   0.0000015165
        0.0000018829   0.0000003145  -0.0000001132   0.0000022030   0.0000008592
       -0.0000012724   0.0000012099   0.0000013795  -0.0000016980   0.0000000266
       -0.0000024716   0.0000004703   0.0000004672   0.0000038353   0.0000010300
        0.0000008792  -0.0000202588  -0.0000132147  -0.0000054391   0.0000105346
        0.0000164728   0.0000002062  -0.0000057721   0.0000020398  -0.0000037420
        0.0000005316   0.0000014738   0.0000032268  -0.0000007789   0.0000016902
        0.0000002034  -0.0000014290   0.0000024146  -0.0000002004  -0.0000010437
       -0.0000001839   0.0000006225  -0.0000003870   0.0000039821  -0.0000021551
        0.0000020606   0.0000019606   0.0000020833  -0.0000024781  -0.0000011217
       -0.0000007075   0.0000007672   0.0000012159   0.0000009535  -0.0000007946
       -0.0000002508   0.0000001926   0.0000017206   0.0000026539  -0.0000013626
        0.0000021897  -0.0000089918   0.0000033670   0.0000240755  -0.0000116490
        0.0000072875  -0.0001791228  -0.0000442643   0.0000590273   0.0003468358
        0.0003552093   0.0000676656  -0.0000172246   0.0009214762   0.0002372428
        0.0000121885   0.0000690934  -0.0001285071   0.0000174869  -0.0000682722
        0.0000126646  -0.0000320392  -0.0000039859   0.0000630009   0.0000439379
       -0.0000238049  -0.0001701668  -0.0001339652   0.0004360842   0.0002598143
       -0.0009213283   0.0007504677   0.0002943828  -0.0189618221   0.0038596193
        0.0274474988  -0.0041903723  -0.0116127001   0.0002958898   0.0032841327
        0.0018194974   0.0059582071   0.0015958678  -0.0128026073  -0.0001170415
       -0.1136586101   0.0533433354   0.1100053833  -0.0000112988   0.0000066303
       -0.0000077737   0.0000052844   0.0000062799  -0.0000146538  -0.0000010085
       -0.0000030489   0.0000050282  -0.0000010741   0.0000006271  -0.0000024619
        0.0000002347  -0.0000002822  -0.0000021993  -0.0000001192   0.0000020720
        0.0000001382   0.0000001742   0.0000011510   0.0000010744   0.0000001679
        0.0000014770   0.0000014988   0.0000001729   0.0000008582   0.0000014719
        0.0000000088   0.0000005312   0.0000009629  -0.0000006929   0.0000010662
        0.0000005739  -0.0000005853   0.0000003785  -0.0000000485  -0.0000010114
       -0.0000000741  -0.0000007959  -0.0000006639   0.0000011747  -0.0000003835
       -0.0000011892   0.0000014600  -0.0000004403  -0.0000010897   0.0000014102
       -0.0000009950  -0.0000013894   0.0000005734  -0.0000008414  -0.0000016289
       -0.0000008139  -0.0000015161  -0.0000015396  -0.0000009782  -0.0000015697
       -0.0000019808  -0.0000014651  -0.0000000227  -0.0000024134   0.0000037527
       -0.0000026581   0.0000084930  -0.0000027575   0.0000105817  -0.0006663698
       -0.0005143104  -0.0002688928   0.0000143647   0.0000249525  -0.0000207270
       -0.0000241269   0.0000488093   0.0000318930  -0.0000173064   0.0000081822
       -0.0000345794   0.0001561393   0.0003594782  -0.0000700791   0.0030293747
        0.0015429256   0.0057787834   0.0001764844  -0.0002703816  -0.0004622155
        0.0537891190  -0.0203252937  -0.0732857096   0.0078224419  -0.3289991488
        0.0129823100  -0.0300946962   0.6603446769  -0.0000015312  -0.0358962938
       -0.1573852635   0.0571683670  -0.0152234622  -0.0444461232   0.0201410485
        0.0048827656   0.0009007322   0.0016433783   0.0001316188  -0.0000603730
        0.0001707042  -0.0001534811   0.0000745350  -0.0000304406   0.0001165741
       -0.0000762882   0.0000509502   0.0000684617   0.0001477805  -0.0001817757
        0.0000100928  -0.0000093132  -0.0000150876  -0.0000462515  -0.0000054961
        0.0000185343   0.0000378664  -0.0000707400  -0.0000159607  -0.0000203615
        0.0000670299   0.0000126589  -0.0000223220  -0.0000362338   0.0000141380
        0.0000084928  -0.0000037025  -0.0000070738   0.0000027800  -0.0000106606
       -0.0000011024  -0.0000001608   0.0000048053   0.0000032505   0.0000003906
        0.0000003148   0.0000029468  -0.0000095677   0.0000038372   0.0000110853