      -----------------------------------------------------------      
     |                   =====================                   |     
     |                           x T B                           |     
     |                   =====================                   |     
     |                         S. Grimme                         |     
     |          Mulliken Center for Theoretical Chemistry        |     
     |                    University of Bonn                     |     
      -----------------------------------------------------------      

   * xtb version 6.7.1 (edcfbbe) compiled by 'albert@albert-system' on 2024-07-22

   xtb is free software: you can redistribute it and/or modify it under
   the terms of the GNU Lesser General Public License as published by
   the Free Software Foundation, either version 3 of the License, or
   (at your option) any later version.
   
   xtb is distributed in the hope that it will be useful,
   but WITHOUT ANY WARRANTY; without even the implied warranty of
   MERCHANTABILITY or FITNESS FOR A PARTICULAR PURPOSE.  See the
   GNU Lesser General Public License for more details.
   
   Cite this work as:
   * C. Bannwarth, E. Caldeweyher, S. Ehlert, A. Hansen, P. Pracht,
     J. Seibert, S. Spicher, S. Grimme, WIREs Comput. Mol. Sci., 2020, 11,
     e01493. DOI: 10.1002/wcms.1493
   
   for GFN2-xTB:
   * C. Bannwarth, S. Ehlert and S. Grimme., J. Chem. Theory Comput., 2019,
     15, 1652-1671. DOI: 10.1021/acs.jctc.8b01176
   for GFN1-xTB:
   * S. Grimme, C. Bannwarth, P. Shushkov, J. Chem. Theory Comput., 2017,
     13, 1989-2009. DOI: 10.1021/acs.jctc.7b00118
   for GFN0-xTB:
   * P. Pracht, E. Caldeweyher, S. Ehlert, S. Grimme, ChemRxiv, 2019, preprint.
     DOI: 10.26434/chemrxiv.8326202.v1
   for GFN-FF:
   * S. Spicher and S. Grimme, Angew. Chem. Int. Ed., 2020, 59, 15665-15673.
     DOI: 10.1002/anie.202004239
   
   for ALPB and GBSA implicit solvation:
   * S. Ehlert, M. Stahn, S. Spicher, S. Grimme, J. Chem. Theory Comput.,
     2021, 17, 4250-4261. DOI: 10.1021/acs.jctc.1c00471
   
   for ddCOSMO and CPCM-X implicit solvation:
   * M. Stahn, S. Ehlert, S. Grimme, J. Phys. Chem. A,
     2023, XX, XXXX-XXXX. DOI: 10.1021/acs.jpca.3c04382
   
   for DFT-D4:
   * E. Caldeweyher, C. Bannwarth and S. Grimme, J. Chem. Phys., 2017,
     147, 034112. DOI: 10.1063/1.4993215
   * E. Caldeweyher, S. Ehlert, A. Hansen, H. Neugebauer, S. Spicher,
     C. Bannwarth and S. Grimme, J. Chem. Phys., 2019, 150, 154122.
     DOI: 10.1063/1.5090222
   * E. Caldeweyher, J.-M. Mewes, S. Ehlert and S. Grimme, Phys. Chem. Chem. Phys.
     2020, 22, 8499-8512. DOI: 10.1039/D0CP00502A
   
   for sTDA-xTB:
   * S. Grimme and C. Bannwarth, J. Chem. Phys., 2016, 145, 054103.
     DOI: 10.1063/1.4959605
   
   in the mass-spec context:
   * V. Asgeirsson, C. Bauer and S. Grimme, Chem. Sci., 2017, 8, 4879.
     DOI: 10.1039/c7sc00601b
   * J. Koopman and S. Grimme, ACS Omega 2019, 4, 12, 15120-15133.
     DOI: 10.1021/acsomega.9b02011
   
   for metadynamics refer to:
   * S. Grimme, J. Chem. Theory Comput., 2019, 155, 2847-2862
     DOI: 10.1021/acs.jctc.9b00143
   
   for SPH calculations refer to:
   * S. Spicher and S. Grimme, J. Chem. Theory Comput., 2021, 17, 1701-1714
     DOI: 10.1021/acs.jctc.0c01306
   
   for ONIOM refer to:
   * C. Plett, A. Katbashev, S. Ehlert, S. Grimme, M. Bursch,
     Phys. Chem. Chem. Phys., 2023, 25, 17860-17868. DOI: 10.1039/D3CP02178E
   
   for DIPRO refer to:
   * J. Kohn, N. Gildemeister, S. Grimme, D. Fazzi, A. Hansen,
     J. Chem. Phys., 2023, just accepted.
   
   for PTB refer to:
   * S. Grimme, M. Mueller, A. Hansen, J. Chem. Phys., 2023, 158, 124111.
     DOI: 10.1063/5.0137838
   
   with help from (in alphabetical order)
   P. Atkinson, C. Bannwarth, F. Bohle, G. Brandenburg, E. Caldeweyher
   M. Checinski, S. Dohm, S. Ehlert, S. Ehrlich, I. Gerasimov, C. Hölzer
   A. Katbashev, J. Kohn, J. Koopman, C. Lavigne, S. Lehtola, F. März, M. Müller,
   F. Musil, H. Neugebauer, J. Pisarek, C. Plett, P. Pracht, F. Pultar,
   J. Seibert, P. Shushkov, S. Spicher, M. Stahn, M. Steiner, T. Strunk,
   J. Stückrath, T. Rose, and J. Unsleber
   
 * started run on 2025/08/29 at 12:53:53.849     
   ID    Z sym.   atoms
    1   35 Br     1, 11
    2    6 C      2-10, 12-14, 16-20, 22-28, 30-36, 38, 39
    3    7 N      15, 21, 29, 37
    4    1 H      40-59

           -------------------------------------------------
          |                Calculation Setup                |
           -------------------------------------------------

          program call               : xtb data2507/toluene/2BrCPT/2BrCPT_toluene_S0_finalOpt.xtbopt.xyz --gfn 2 --uhf 2 --gbsa toluene --ohess vtight --parallel 40 --molden --ceasefiles --namespace data2507/toluene/2BrCPT/2BrCPT_toluene_T1_preOpt
          calculation namespace      : data2507/toluene/2BrCPT/2BrCPT_toluene_T1_preOpt
          coordinate file            : data2507/toluene/2BrCPT/2BrCPT_toluene_S0_finalOpt.xtbopt.xyz
          omp threads                :                    40


           -------------------------------------------------
          |                 G F N 2 - x T B                 |
           -------------------------------------------------

        Reference                      10.1021/acs.jctc.8b01176
      * Hamiltonian:
        H0-scaling (s, p, d)           1.850000    2.230000    2.230000
        zeta-weighting                 0.500000
      * Dispersion:
        s8                             2.700000
        a1                             0.520000
        a2                             5.000000
        s9                             5.000000
      * Repulsion:
        kExp                           1.500000    1.000000
        rExp                           1.000000
      * Coulomb:
        alpha                          2.000000
        third order                    shell-resolved
        anisotropic                    true
        a3                             3.000000
        a5                             4.000000
        cn-shift                       1.200000
        cn-exp                         4.000000
        max-rad                        5.000000

      * Solvation model:               GBSA
        Solvent                        toluene
        Parameter file                 internal GFN2-xTB/GBSA
        Dielectric constant                7.0000E+00
        Reference state                gsolv [1 M gas/solution]
        Free energy shift                  4.5239E-03 Eh       2.8388E+00 kcal/mol
        Temperature                        2.9815E+02 K
        Density                            8.6700E-01 kg/L
        Solvent mass                       9.2140E+01 g/mol
        Interaction kernel             Still
        Born radius scaling (c1)           1.5686E+00
        Born radii integrator          GBOBC
        Born offset                        0.0000E+00 a0       0.0000E+00 AA
        H-bond correction              false
        Ion screening                  false
        Surface tension                    1.0000E-05 Eh       1.5569E+01 dyn/cm
        Grid points                               230 per atom

          ...................................................
          :                      SETUP                      :
          :.................................................:
          :  # basis functions                 188          :
          :  # atomic orbitals                 186          :
          :  # shells                          100          :
          :  # electrons                       186          :
          :  max. iterations                   250          :
          :  Hamiltonian                  GFN2-xTB          :
          :  restarted?                      false          :
          :  GBSA solvation                   true          :
          :  PC potential                    false          :
          :  electronic temp.          300.0000000     K    :
          :  accuracy                    1.0000000          :
          :  -> integral cutoff          0.2500000E+02      :
          :  -> integral neglect         0.1000000E-07      :
          :  -> SCF convergence          0.1000000E-05 Eh   :
          :  -> wf. convergence          0.1000000E-03 e    :
          :  Broyden damping             0.4000000          :
          :  net charge                          0          :
          :  unpaired electrons                  2          :
          ...................................................

 iter      E             dE          RMSdq      gap      omega  full diag
   1   -102.2197650 -0.102220E+03  0.462E+00    0.00       0.0  T
   2   -102.0974963  0.122269E+00  0.298E+00    0.40       1.0  T
   3   -101.9511213  0.146375E+00  0.243E+00    0.07       1.0  T
   4   -102.3607538 -0.409633E+00  0.118E+00    0.23       1.0  T
   5   -102.4187318 -0.579780E-01  0.605E-01    0.00       1.0  T
   6   -102.3960306  0.227012E-01  0.644E-01    0.07       1.0  T
   7   -102.4097097 -0.136791E-01  0.575E-01    0.09       1.0  T
   8   -102.4303223 -0.206125E-01  0.293E-01    0.05       1.0  T
   9   -102.4262727  0.404958E-02  0.426E-01    0.01       1.0  T
  10   -102.4330157 -0.674298E-02  0.214E-01    0.07       1.0  T
  11   -102.4356008 -0.258514E-02  0.781E-02    0.06       1.0  T
  12   -102.4357790 -0.178256E-03  0.460E-02    0.05       1.0  T
  13   -102.4350398  0.739254E-03  0.106E-01    0.05       1.0  T
  14   -102.4355595 -0.519717E-03  0.603E-02    0.04       1.0  T
  15   -102.4351419  0.417607E-03  0.795E-02    0.04       1.0  T
  16   -102.4354651 -0.323220E-03  0.621E-02    0.05       1.0  T
  17   -102.4354889 -0.237565E-04  0.572E-02    0.05       1.0  T
  18   -102.4358265 -0.337586E-03  0.116E-02    0.05       1.1  T
  19   -102.4358382 -0.116975E-04  0.501E-03    0.05       2.6  T
  20   -102.4358397 -0.153104E-05  0.142E-03    0.05       9.2  T
  21   -102.4358392  0.441705E-06  0.240E-03    0.05       5.4  T
  22   -102.4358398 -0.509404E-06  0.618E-04    0.05      21.1  T
  23   -102.4358397  0.722260E-07  0.102E-03    0.05      12.7  T
  24   -102.4358398 -0.105478E-06  0.205E-04    0.05      63.4  T

   *** convergence criteria satisfied after 24 iterations ***

         #    Occupation            Energy/Eh            Energy/eV
      -------------------------------------------------------------
         1        2.0000           -0.8465313             -23.0353
       ...           ...                  ...                  ...
        88        2.0000           -0.4088344             -11.1249
        89        2.0000           -0.4084370             -11.1141
        90        2.0000           -0.4068418             -11.0707
        91        1.8565           -0.3885592             -10.5732
        92        1.6493           -0.3874473             -10.5430
        93        1.4942           -0.3868399             -10.5264
        94        0.7120           -0.2915634              -7.9338 (HOMO)
        95        0.2880           -0.2898434              -7.8870 (LUMO)
        96        0.0000           -0.2793225              -7.6008
        97                         -0.2597111              -7.0671
        98                         -0.2514732              -6.8429
        99                         -0.2398270              -6.5260
       ...                                ...                  ...
       186                          0.7073538              19.2481
      -------------------------------------------------------------
                  HL-Gap            0.0017201 Eh            0.0468 eV
             Fermi-level           -0.3387827 Eh           -9.2187 eV
 
 transition dipole moment (au) for excitation:          93          94
     X       Y       Z   
   1.2999   0.0001   0.0020  total (au/Debye):    1.300   3.304
 dE (eV)             :    2.593
 oscillator strength :  0.15179E+00

 SCC (total)                   0 d,  0 h,  0 min,  0.247 sec
 SCC setup                      ...        0 min,  0.001 sec (  0.510%)
 Dispersion                     ...        0 min,  0.002 sec (  0.987%)
 classical contributions        ...        0 min,  0.000 sec (  0.094%)
 integral evaluation            ...        0 min,  0.011 sec (  4.314%)
 iterations                     ...        0 min,  0.206 sec ( 83.312%)
 molecular gradient             ...        0 min,  0.008 sec (  3.241%)
 printout                       ...        0 min,  0.019 sec (  7.508%)

         :::::::::::::::::::::::::::::::::::::::::::::::::::::
         ::                     SUMMARY                     ::
         :::::::::::::::::::::::::::::::::::::::::::::::::::::
         :: total energy            -100.740394669121 Eh    ::
         :: total w/o Gsasa/hb      -100.697171806478 Eh    ::
         :: gradient norm              0.069598861351 Eh/a0 ::
         :: HOMO-LUMO gap              0.046805170067 eV    ::
         ::.................................................::
         :: SCC energy              -102.437087054312 Eh    ::
         :: -> isotropic ES            0.048212586559 Eh    ::
         :: -> anisotropic ES          0.001095665360 Eh    ::
         :: -> anisotropic XC          0.052659625118 Eh    ::
         :: -> dispersion             -0.080921638560 Eh    ::
         :: -> Gsolv                  -0.052114996932 Eh    ::
         ::    -> Gelec               -0.008892134290 Eh    ::
         ::    -> Gsasa               -0.047746742514 Eh    ::
         ::    -> Ghb                  0.000000000000 Eh    ::
         ::    -> Gshift               0.004523879872 Eh    ::
         :: repulsion energy           1.696692385191 Eh    ::
         :: add. restraining           0.000000000000 Eh    ::
         :: total charge               0.000000000005 e     ::
         :::::::::::::::::::::::::::::::::::::::::::::::::::::

      ----------------------------------------------------------- 
     |                   =====================                   |
     |                        A N C O P T                        |
     |                   =====================                   |
     |               Approximate Normal Coordinate               |
     |                Rational Function Optimizer                |
      ----------------------------------------------------------- 

Optimization log is written to '/dev/null'
      ----------------------------------------------------------- 
     |                   =====================                   |
     |                        A N C O P T                        |
     |                   =====================                   |
     |               Approximate Normal Coordinate               |
     |                Rational Function Optimizer                |
      ----------------------------------------------------------- 

          ...................................................
          :                      SETUP                      :
          :.................................................:
          :   optimization level         verytight          :
          :   max. optcycles                  1180          :
          :   ANC micro-cycles                  20          :
          :   degrees of freedom               171          :
          :.................................................:
          :   RF solver                   davidson          :
          :   write xtbopt.log                true          :
          :   linear?                        false          :
          :   energy convergence         0.1000000E-06 Eh   :
          :   grad. convergence          0.2000000E-03 Eh/α :
          :   maxmium RF displ.          1.0000000          :
          :   Hlow (freq-cutoff)         0.1000000E-01      :
          :   Hmax (freq-cutoff)         5.0000000          :
          :   S6 in model hess.         20.0000000          :
          ...................................................

generating ANC from exact Hessian ...
Using Lindh-Hessian (1995)
 Shifting diagonal of input Hessian by   9.872229784234977E-003
 Lowest  eigenvalues of input Hessian
    0.000000    0.000000    0.000000    0.000000    0.000000    0.000000
    0.010000    0.010061    0.010229    0.010743    0.010952    0.010972
    0.010992    0.011350    0.011850    0.012538    0.012875    0.013675
 Highest eigenvalues
    2.125422    2.183845    2.190875    2.205007    2.226053    2.230104
 

........................................................................
.............................. CYCLE    1 ..............................
........................................................................

 iter      E             dE          RMSdq      gap      omega  full diag
   1   -102.4358398 -0.102436E+03  0.139E-04    0.05       0.0  T
   2   -102.4358395  0.260760E-06  0.149E-03    0.05       8.7  T
   3   -102.4358398 -0.261553E-06  0.111E-04    0.05     116.8  T
   4   -102.4358398 -0.102310E-08  0.525E-05    0.05     248.1  T
     SCC iter.                  ...        0 min,  0.027 sec
     gradient                   ...        0 min,  0.007 sec
 * total energy  :  -100.7403947 Eh     change       -0.2407106E-08 Eh
   gradient norm :     0.0696062 Eh/α   predicted     0.0000000E+00 (-100.00%)
   displ. norm   :     0.0826158 α      lambda       -0.3078211E-02
   maximum displ.:     0.0451514 α      in ANC's #26, #19, #50, ...

........................................................................
.............................. CYCLE    2 ..............................
........................................................................

 iter      E             dE          RMSdq      gap      omega  full diag
   1   -102.4278253 -0.102428E+03  0.218E-01    0.13       0.0  T
   2   -102.3436998  0.841255E-01  0.921E-01    0.07       1.0  T
   3   -102.4215868 -0.778870E-01  0.298E-01    0.07       1.0  T
   4   -102.4306064 -0.901966E-02  0.987E-02    0.08       1.0  T
   5   -102.4298717  0.734772E-03  0.117E-01    0.08       1.0  T
   6   -102.4309896 -0.111790E-02  0.250E-02    0.07       1.0  T
   7   -102.4309720  0.175884E-04  0.206E-02    0.07       1.0  T
   8   -102.4310068 -0.348148E-04  0.136E-02    0.07       1.0  T
   9   -102.4310242 -0.173702E-04  0.482E-03    0.07       2.7  T
  10   -102.4310175  0.670376E-05  0.924E-03    0.07       1.4  T
  11   -102.4310198 -0.237231E-05  0.764E-03    0.07       1.7  T
  12   -102.4310256 -0.571946E-05  0.205E-03    0.07       6.4  T
  13   -102.4310233  0.227859E-05  0.482E-03    0.07       2.7  T
  14   -102.4310251 -0.177662E-05  0.249E-03    0.07       5.2  T
  15   -102.4310258 -0.696900E-06  0.275E-04    0.07      47.3  T
  16   -102.4310258 -0.364841E-08  0.123E-04    0.07     105.6  T
     SCC iter.                  ...        0 min,  0.103 sec
     gradient                   ...        0 min,  0.007 sec
 * total energy  :  -100.7427730 Eh     change       -0.2378325E-02 Eh
   gradient norm :     0.0424875 Eh/α   predicted    -0.1549617E-02 ( -34.84%)
   displ. norm   :     0.1086084 α      lambda       -0.2529544E-02
   maximum displ.:     0.0627574 α      in ANC's #26, #19, #27, ...

........................................................................
.............................. CYCLE    3 ..............................
........................................................................

 iter      E             dE          RMSdq      gap      omega  full diag
   1   -102.4234047 -0.102423E+03  0.294E-01    0.23       0.0  T
   2   -102.3344902  0.889144E-01  0.939E-01    0.02       1.0  T
   3   -102.4162215 -0.817313E-01  0.427E-01    0.15       1.0  T
   4   -102.4300196 -0.137981E-01  0.987E-02    0.15       1.0  T
   5   -102.4297109  0.308675E-03  0.911E-02    0.14       1.0  T
   6   -102.4286044  0.110651E-02  0.136E-01    0.15       1.0  T
   7   -102.4301144 -0.151004E-02  0.298E-02    0.13       1.0  T
   8   -102.4301547 -0.403068E-04  0.251E-02    0.13       1.0  T
   9   -102.4301978 -0.430342E-04  0.157E-02    0.13       1.0  T
  10   -102.4302142 -0.164227E-04  0.690E-03    0.13       1.9  T
  11   -102.4302116  0.264954E-05  0.743E-03    0.13       1.8  T
  12   -102.4302146 -0.299502E-05  0.509E-03    0.13       2.6  T
  13   -102.4302165 -0.192267E-05  0.134E-03    0.13       9.7  T
  14   -102.4302164  0.266766E-07  0.127E-03    0.13      10.2  T
  15   -102.4302165 -0.560740E-07  0.952E-04    0.13      13.7  T
  16   -102.4302165 -0.251744E-07  0.684E-04    0.13      19.0  T
     SCC iter.                  ...        0 min,  0.102 sec
     gradient                   ...        0 min,  0.007 sec
 * total energy  :  -100.7441396 Eh     change       -0.1366630E-02 Eh
   gradient norm :     0.0187485 Eh/α   predicted    -0.1279712E-02 (  -6.36%)
   displ. norm   :     0.0315231 α      lambda       -0.2061440E-03
   maximum displ.:     0.0127765 α      in ANC's #19, #9, #26, ...

........................................................................
.............................. CYCLE    4 ..............................
........................................................................

 iter      E             dE          RMSdq      gap      omega  full diag
   1   -102.4311912 -0.102431E+03  0.100E-01    0.18       0.0  T
   2   -102.4229672  0.822401E-02  0.319E-01    0.12       1.0  T
   3   -102.4265491 -0.358187E-02  0.221E-01    0.15       1.0  T
   4   -102.4315409 -0.499183E-02  0.463E-02    0.15       1.0  T
   5   -102.4317156 -0.174631E-03  0.240E-02    0.16       1.0  T
   6   -102.4317420 -0.264892E-04  0.101E-02    0.15       1.3  T
   7   -102.4317484 -0.638320E-05  0.499E-03    0.15       2.6  T
   8   -102.4317511 -0.264311E-05  0.258E-03    0.15       5.0  T
   9   -102.4317514 -0.286476E-06  0.145E-03    0.15       8.9  T
  10   -102.4317515 -0.181318E-06  0.602E-04    0.15      21.6  T
  11   -102.4317515  0.328428E-07  0.756E-04    0.15      17.2  T
     SCC iter.                  ...        0 min,  0.070 sec
     gradient                   ...        0 min,  0.007 sec
 * total energy  :  -100.7443096 Eh     change       -0.1699825E-03 Eh
   gradient norm :     0.0139471 Eh/α   predicted    -0.1032272E-03 ( -39.27%)
   displ. norm   :     0.0705660 α      lambda       -0.3594900E-03
   maximum displ.:     0.0309219 α      in ANC's #9, #13, #6, ...

........................................................................
.............................. CYCLE    5 ..............................
........................................................................

 iter      E             dE          RMSdq      gap      omega  full diag
   1   -102.4317974 -0.102432E+03  0.223E-01    0.24       0.0  T
   2   -102.3918782  0.399192E-01  0.762E-01    0.17       1.0  T
   3   -102.3975906 -0.571240E-02  0.563E-01    0.18       1.0  T
   4   -102.4340711 -0.364805E-01  0.654E-02    0.20       1.0  T
   5   -102.4341301 -0.590245E-04  0.541E-02    0.22       1.0  T
   6   -102.4343791 -0.248972E-03  0.138E-02    0.21       1.0  T
   7   -102.4343285  0.505839E-04  0.231E-02    0.21       1.0  T
   8   -102.4343647 -0.361422E-04  0.151E-02    0.21       1.0  T
   9   -102.4343875 -0.228683E-04  0.194E-03    0.21       6.7  T
  10   -102.4343878 -0.277298E-06  0.999E-04    0.21      13.0  T
  11   -102.4343879 -0.772853E-07  0.407E-04    0.21      32.0  T
     SCC iter.                  ...        0 min,  0.071 sec
     gradient                   ...        0 min,  0.007 sec
 * total energy  :  -100.7444885 Eh     change       -0.1788749E-03 Eh
   gradient norm :     0.0046773 Eh/α   predicted    -0.1806819E-03 (   1.01%)
   displ. norm   :     0.0187298 α      lambda       -0.3548848E-04
   maximum displ.:     0.0106885 α      in ANC's #26, #9, #6, ...

........................................................................
.............................. CYCLE    6 ..............................
........................................................................

 iter      E             dE          RMSdq      gap      omega  full diag
   1   -102.4335490 -0.102434E+03  0.484E-02    0.20       0.0  T
   2   -102.4216161  0.119329E-01  0.352E-01    0.21       1.0  T
   3   -102.4336532 -0.120371E-01  0.277E-02    0.20       1.0  T
   4   -102.4335555  0.976679E-04  0.457E-02    0.20       1.0  T
   5   -102.4337197 -0.164195E-03  0.134E-02    0.20       1.0  T
   6   -102.4337359 -0.161816E-04  0.298E-03    0.20       4.4  T
   7   -102.4337360 -0.784470E-07  0.312E-03    0.20       4.2  T
   8   -102.4337365 -0.540233E-06  0.141E-03    0.20       9.2  T
   9   -102.4337367 -0.106827E-06  0.786E-04    0.20      16.6  T
  10   -102.4337367 -0.370396E-07  0.228E-04    0.20      57.0  T
     SCC iter.                  ...        0 min,  0.065 sec
     gradient                   ...        0 min,  0.007 sec
 * total energy  :  -100.7445137 Eh     change       -0.2519622E-04 Eh
   gradient norm :     0.0019757 Eh/α   predicted    -0.1777223E-04 ( -29.46%)
   displ. norm   :     0.0530031 α      lambda       -0.2421055E-04
   maximum displ.:     0.0253541 α      in ANC's #9, #26, #6, ...

........................................................................
.............................. CYCLE    7 ..............................
........................................................................

 iter      E             dE          RMSdq      gap      omega  full diag
   1   -102.4319180 -0.102432E+03  0.100E-01    0.20       0.0  T
   2   -102.4033478  0.285702E-01  0.593E-01    0.21       1.0  T
   3   -102.4310826 -0.277348E-01  0.113E-01    0.20       1.0  T
   4   -102.4320310 -0.948389E-03  0.808E-02    0.20       1.0  T
   5   -102.4324082 -0.377215E-03  0.315E-02    0.20       1.0  T
   6   -102.4325108 -0.102543E-03  0.126E-02    0.20       1.0  T
   7   -102.4325216 -0.108215E-04  0.529E-03    0.20       2.5  T
   8   -102.4325221 -0.526628E-06  0.410E-03    0.20       3.2  T
   9   -102.4325231 -0.100409E-05  0.126E-03    0.20      10.4  T
  10   -102.4325232 -0.797008E-07  0.448E-04    0.20      29.1  T
  11   -102.4325232 -0.830768E-08  0.243E-04    0.20      53.7  T
     SCC iter.                  ...        0 min,  0.070 sec
     gradient                   ...        0 min,  0.007 sec
 * total energy  :  -100.7445202 Eh     change       -0.6565526E-05 Eh
   gradient norm :     0.0022547 Eh/α   predicted    -0.1213887E-04 (  84.89%)
   displ. norm   :     0.0078084 α      lambda       -0.8186053E-05
   maximum displ.:     0.0026450 α      in ANC's #26, #9, #1, ...

........................................................................
.............................. CYCLE    8 ..............................
........................................................................

 iter      E             dE          RMSdq      gap      omega  full diag
   1   -102.4328226 -0.102433E+03  0.172E-02    0.20       0.0  T
   2   -102.4302101  0.261251E-02  0.155E-01    0.20       1.0  T
   3   -102.4327819 -0.257176E-02  0.262E-02    0.20       1.0  T
   4   -102.4328436 -0.617323E-04  0.811E-03    0.20       1.6  T
   5   -102.4328467 -0.310074E-05  0.237E-03    0.20       5.5  T
   6   -102.4328469 -0.203851E-06  0.202E-03    0.20       6.4  T
   7   -102.4328471 -0.181733E-06  0.129E-03    0.20      10.1  T
   8   -102.4328472 -0.999011E-07  0.449E-04    0.20      29.0  T
   9   -102.4328472 -0.959861E-08  0.240E-04    0.20      54.3  T
     SCC iter.                  ...        0 min,  0.058 sec
     gradient                   ...        0 min,  0.007 sec
 * total energy  :  -100.7445263 Eh     change       -0.6031390E-05 Eh
   gradient norm :     0.0010144 Eh/α   predicted    -0.4095913E-05 ( -32.09%)
   displ. norm   :     0.0245600 α      lambda       -0.5010629E-05
   maximum displ.:     0.0128871 α      in ANC's #9, #1, #5, ...

........................................................................
.............................. CYCLE    9 ..............................
........................................................................

 iter      E             dE          RMSdq      gap      omega  full diag
   1   -102.4333695 -0.102433E+03  0.275E-02    0.20       0.0  T
   2   -102.4275159  0.585363E-02  0.231E-01    0.20       1.0  T
   3   -102.4332236 -0.570776E-02  0.469E-02    0.21       1.0  T
   4   -102.4334193 -0.195694E-03  0.128E-02    0.20       1.0  T
   5   -102.4334258 -0.646955E-05  0.470E-03    0.20       2.8  T
   6   -102.4334271 -0.134374E-05  0.366E-03    0.20       3.6  T
   7   -102.4334279 -0.790449E-06  0.159E-03    0.20       8.2  T
   8   -102.4334281 -0.136130E-06  0.752E-04    0.20      17.3  T
   9   -102.4334281 -0.354589E-07  0.350E-04    0.20      37.2  T
     SCC iter.                  ...        0 min,  0.060 sec
     gradient                   ...        0 min,  0.007 sec
 * total energy  :  -100.7445296 Eh     change       -0.3278564E-05 Eh
   gradient norm :     0.0007646 Eh/α   predicted    -0.2510311E-05 ( -23.43%)
   displ. norm   :     0.0168599 α      lambda       -0.1363502E-05
   maximum displ.:     0.0096998 α      in ANC's #9, #1, #5, ...

........................................................................
.............................. CYCLE   10 ..............................
........................................................................

 iter      E             dE          RMSdq      gap      omega  full diag
   1   -102.4333243 -0.102433E+03  0.641E-03    0.20       0.0  T
   2   -102.4331661  0.158224E-03  0.389E-02    0.20       1.0  T
   3   -102.4333200 -0.153848E-03  0.768E-03    0.20       1.7  T
   4   -102.4333183  0.165214E-05  0.100E-02    0.20       1.3  T
   5   -102.4333258 -0.750833E-05  0.917E-04    0.20      14.2  T
   6   -102.4333258  0.558293E-08  0.111E-03    0.20      11.7  T
   7   -102.4333259 -0.679481E-07  0.560E-04    0.20      23.2  T
   8   -102.4333259 -0.202139E-07  0.172E-04    0.20      75.6  T
     SCC iter.                  ...        0 min,  0.051 sec
     gradient                   ...        0 min,  0.007 sec
 * total energy  :  -100.7445314 Eh     change       -0.1841483E-05 Eh
   gradient norm :     0.0004176 Eh/α   predicted    -0.6877212E-06 ( -62.65%)
   displ. norm   :     0.0546902 α      lambda       -0.3426075E-05
   maximum displ.:     0.0292971 α      in ANC's #9, #5, #1, ...

........................................................................
.............................. CYCLE   11 ..............................
........................................................................

 iter      E             dE          RMSdq      gap      omega  full diag
   1   -102.4330559 -0.102433E+03  0.164E-02    0.20       0.0  T
   2   -102.4327655  0.290399E-03  0.527E-02    0.20       1.0  T
   3   -102.4329944 -0.228880E-03  0.256E-02    0.20       1.0  T
   4   -102.4329777  0.166179E-04  0.333E-02    0.20       1.0  T
   5   -102.4330580 -0.802788E-04  0.440E-03    0.20       3.0  T
   6   -102.4330589 -0.889527E-06  0.324E-03    0.20       4.0  T
   7   -102.4330596 -0.736173E-06  0.363E-04    0.20      35.8  T
   8   -102.4330597 -0.839296E-08  0.149E-04    0.20      87.2  T
     SCC iter.                  ...        0 min,  0.051 sec
     gradient                   ...        0 min,  0.007 sec
 * total energy  :  -100.7445354 Eh     change       -0.3993974E-05 Eh
   gradient norm :     0.0005782 Eh/α   predicted    -0.1715843E-05 ( -57.04%)
   displ. norm   :     0.1308714 α      lambda       -0.6748635E-05
   maximum displ.:     0.0684822 α      in ANC's #9, #5, #1, ...

........................................................................
.............................. CYCLE   12 ..............................
........................................................................

 iter      E             dE          RMSdq      gap      omega  full diag
   1   -102.4324648 -0.102432E+03  0.369E-02    0.20       0.0  T
   2   -102.4315346  0.930225E-03  0.926E-02    0.20       1.0  T
   3   -102.4321290 -0.594450E-03  0.581E-02    0.20       1.0  T
   4   -102.4319614  0.167667E-03  0.874E-02    0.20       1.0  T
   5   -102.4324709 -0.509493E-03  0.613E-03    0.20       2.1  T
   6   -102.4324724 -0.154445E-05  0.516E-03    0.20       2.5  T
   7   -102.4324742 -0.181274E-05  0.166E-03    0.20       7.8  T
   8   -102.4324745 -0.286980E-06  0.296E-04    0.20      44.0  T
   9   -102.4324745 -0.921602E-09  0.198E-04    0.20      65.7  T
     SCC iter.                  ...        0 min,  0.058 sec
     gradient                   ...        0 min,  0.007 sec
 * total energy  :  -100.7445375 Eh     change       -0.2085759E-05 Eh
   gradient norm :     0.0013835 Eh/α   predicted    -0.3401823E-05 (  63.10%)
   displ. norm   :     0.0123861 α      lambda       -0.2605011E-05
   maximum displ.:     0.0069100 α      in ANC's #5, #1, #9, ...

........................................................................
.............................. CYCLE   13 ..............................
........................................................................

 iter      E             dE          RMSdq      gap      omega  full diag
   1   -102.4328514 -0.102433E+03  0.589E-03    0.20       0.0  T
   2   -102.4327865  0.648516E-04  0.250E-02    0.20       1.0  T
   3   -102.4328367 -0.502092E-04  0.124E-02    0.20       1.1  T
   4   -102.4328495 -0.127552E-04  0.665E-03    0.20       2.0  T
   5   -102.4328514 -0.193435E-05  0.333E-03    0.20       3.9  T
   6   -102.4328517 -0.329039E-06  0.298E-03    0.20       4.4  T
   7   -102.4328524 -0.629176E-06  0.196E-04    0.20      66.5  T
   8   -102.4328524  0.216559E-09  0.154E-04    0.20      84.5  T
     SCC iter.                  ...        0 min,  0.054 sec
     gradient                   ...        0 min,  0.007 sec
 * total energy  :  -100.7445404 Eh     change       -0.2905226E-05 Eh
   gradient norm :     0.0006739 Eh/α   predicted    -0.1303930E-05 ( -55.12%)
   displ. norm   :     0.0276252 α      lambda       -0.2597900E-05
   maximum displ.:     0.0161601 α      in ANC's #5, #1, #13, ...

........................................................................
.............................. CYCLE   14 ..............................
........................................................................

 iter      E             dE          RMSdq      gap      omega  full diag
   1   -102.4332068 -0.102433E+03  0.148E-02    0.20       0.0  T
   2   -102.4324373  0.769520E-03  0.883E-02    0.20       1.0  T
   3   -102.4331216 -0.684293E-03  0.295E-02    0.20       1.0  T
   4   -102.4332077 -0.861540E-04  0.119E-02    0.20       1.1  T
   5   -102.4332162 -0.846325E-05  0.209E-03    0.20       6.2  T
   6   -102.4332160  0.148512E-06  0.255E-03    0.20       5.1  T
   7   -102.4332164 -0.416510E-06  0.101E-03    0.20      12.9  T
   8   -102.4332165 -0.499575E-07  0.390E-04    0.20      33.4  T
   9   -102.4332165 -0.263226E-08  0.245E-04    0.20      53.1  T
     SCC iter.                  ...        0 min,  0.058 sec
     gradient                   ...        0 min,  0.007 sec
 * total energy  :  -100.7445428 Eh     change       -0.2439456E-05 Eh
   gradient norm :     0.0003529 Eh/α   predicted    -0.1301164E-05 ( -46.66%)
   displ. norm   :     0.0314296 α      lambda       -0.1249481E-05
   maximum displ.:     0.0199597 α      in ANC's #5, #1, #13, ...

........................................................................
.............................. CYCLE   15 ..............................
........................................................................

 iter      E             dE          RMSdq      gap      omega  full diag
   1   -102.4332589 -0.102433E+03  0.938E-03    0.20       0.0  T
   2   -102.4332555  0.346442E-05  0.814E-03    0.20       1.6  T
   3   -102.4331192  0.136223E-03  0.368E-02    0.20       1.0  T
   4   -102.4332207 -0.101422E-03  0.200E-02    0.20       1.0  T
   5   -102.4332587 -0.380827E-04  0.162E-03    0.20       8.0  T
   6   -102.4332589 -0.175306E-06  0.112E-03    0.20      11.7  T
   7   -102.4332590 -0.637172E-07  0.546E-04    0.20      23.8  T
   8   -102.4332590 -0.190339E-07  0.174E-04    0.20      74.7  T
     SCC iter.                  ...        0 min,  0.052 sec
     gradient                   ...        0 min,  0.007 sec
 * total energy  :  -100.7445443 Eh     change       -0.1429769E-05 Eh
   gradient norm :     0.0004790 Eh/α   predicted    -0.6288778E-06 ( -56.02%)
   displ. norm   :     0.0354633 α      lambda       -0.1359881E-05
   maximum displ.:     0.0230327 α      in ANC's #5, #1, #13, ...

........................................................................
.............................. CYCLE   16 ..............................
........................................................................

 iter      E             dE          RMSdq      gap      omega  full diag
   1   -102.4332470 -0.102433E+03  0.104E-02    0.20       0.0  T
   2   -102.4332406  0.637360E-05  0.973E-03    0.20       1.3  T
   3   -102.4330360  0.204623E-03  0.428E-02    0.20       1.0  T
   4   -102.4332205 -0.184498E-03  0.191E-02    0.20       1.0  T
   5   -102.4332469 -0.263933E-04  0.164E-03    0.20       7.9  T
   6   -102.4332469 -0.754718E-07  0.128E-03    0.20      10.2  T
   7   -102.4332470 -0.102371E-06  0.453E-04    0.20      28.8  T
   8   -102.4332470 -0.139742E-07  0.161E-04    0.20      80.8  T
     SCC iter.                  ...        0 min,  0.052 sec
     gradient                   ...        0 min,  0.007 sec
 * total energy  :  -100.7445460 Eh     change       -0.1787368E-05 Eh
   gradient norm :     0.0004124 Eh/α   predicted    -0.6812299E-06 ( -61.89%)
   displ. norm   :     0.0459419 α      lambda       -0.1694563E-05
   maximum displ.:     0.0307655 α      in ANC's #5, #1, #13, ...

........................................................................
.............................. CYCLE   17 ..............................
........................................................................

 iter      E             dE          RMSdq      gap      omega  full diag
   1   -102.4331421 -0.102433E+03  0.130E-02    0.20       0.0  T
   2   -102.4331316  0.105695E-04  0.125E-02    0.20       1.0  T
   3   -102.4328508  0.280759E-03  0.505E-02    0.20       1.0  T
   4   -102.4330847 -0.233938E-03  0.275E-02    0.20       1.0  T
   5   -102.4331418 -0.570728E-04  0.258E-03    0.20       5.0  T
   6   -102.4331422 -0.374033E-06  0.137E-03    0.20       9.5  T
   7   -102.4331423 -0.659849E-07  0.697E-04    0.20      18.7  T
   8   -102.4331423 -0.459384E-07  0.191E-04    0.20      68.1  T
     SCC iter.                  ...        0 min,  0.052 sec
     gradient                   ...        0 min,  0.007 sec
 * total energy  :  -100.7445482 Eh     change       -0.2135115E-05 Eh
   gradient norm :     0.0001755 Eh/α   predicted    -0.8522998E-06 ( -60.08%)
   displ. norm   :     0.0513666 α      lambda       -0.1531119E-05
   maximum displ.:     0.0351251 α      in ANC's #5, #1, #13, ...

........................................................................
.............................. CYCLE   18 ..............................
........................................................................

 iter      E             dE          RMSdq      gap      omega  full diag
   1   -102.4330826 -0.102433E+03  0.138E-02    0.20       0.0  T
   2   -102.4330750  0.766558E-05  0.132E-02    0.20       1.0  T
   3   -102.4329935  0.814878E-04  0.332E-02    0.20       1.0  T
   4   -102.4328325  0.160983E-03  0.470E-02    0.20       1.0  T
   5   -102.4330822 -0.249681E-03  0.296E-03    0.20       4.4  T
   6   -102.4330828 -0.620593E-06  0.121E-03    0.20      10.8  T
   7   -102.4330828 -0.476042E-07  0.670E-04    0.20      19.4  T
   8   -102.4330829 -0.429212E-07  0.209E-04    0.20      62.3  T
     SCC iter.                  ...        0 min,  0.051 sec
     gradient                   ...        0 min,  0.007 sec
 * total energy  :  -100.7445502 Eh     change       -0.2003237E-05 Eh
   gradient norm :     0.0002253 Eh/α   predicted    -0.7701659E-06 ( -61.55%)
   displ. norm   :     0.0527652 α      lambda       -0.1440622E-05
   maximum displ.:     0.0363421 α      in ANC's #5, #1, #2, ...

........................................................................
.............................. CYCLE   19 ..............................
........................................................................

 iter      E             dE          RMSdq      gap      omega  full diag
   1   -102.4330648 -0.102433E+03  0.135E-02    0.20       0.0  T
   2   -102.4330544  0.104387E-04  0.133E-02    0.20       1.0  T
   3   -102.4329002  0.154184E-03  0.394E-02    0.20       1.0  T
   4   -102.4328783  0.219196E-04  0.442E-02    0.20       1.0  T
   5   -102.4330648 -0.186523E-03  0.200E-03    0.20       6.5  T
   6   -102.4330649 -0.133103E-06  0.147E-03    0.20       8.8  T
   7   -102.4330650 -0.660445E-07  0.840E-04    0.20      15.5  T
   8   -102.4330651 -0.741011E-07  0.241E-04    0.20      54.1  T
     SCC iter.                  ...        0 min,  0.051 sec
     gradient                   ...        0 min,  0.007 sec
 * total energy  :  -100.7445521 Eh     change       -0.1927035E-05 Eh
   gradient norm :     0.0002802 Eh/α   predicted    -0.7226566E-06 ( -62.50%)
   displ. norm   :     0.0634842 α      lambda       -0.1639693E-05
   maximum displ.:     0.0437182 α      in ANC's #1, #5, #2, ...

........................................................................
.............................. CYCLE   20 ..............................
........................................................................

 iter      E             dE          RMSdq      gap      omega  full diag
   1   -102.4330650 -0.102433E+03  0.158E-02    0.20       0.0  T
   2   -102.4330409  0.241326E-04  0.178E-02    0.20       1.0  T
   3   -102.4327941  0.246744E-03  0.491E-02    0.20       1.0  T
   4   -102.4329189 -0.124735E-03  0.427E-02    0.20       1.0  T
   5   -102.4330653 -0.146474E-03  0.104E-03    0.20      12.6  T
   6   -102.4330653  0.469244E-07  0.109E-03    0.20      11.9  T
   7   -102.4330653 -0.119265E-07  0.116E-03    0.20      11.3  T
   8   -102.4330654 -0.979852E-07  0.332E-04    0.20      39.2  T
   9   -102.4330654  0.655547E-10  0.283E-04    0.20      46.0  T
     SCC iter.                  ...        0 min,  0.058 sec
     gradient                   ...        0 min,  0.007 sec
 * total energy  :  -100.7445542 Eh     change       -0.2124305E-05 Eh
   gradient norm :     0.0002583 Eh/α   predicted    -0.8237773E-06 ( -61.22%)
   displ. norm   :     0.0823013 α      lambda       -0.1770550E-05
   maximum displ.:     0.0569898 α      in ANC's #1, #5, #2, ...
 * RMSD in coord.:     0.0930746 α      energy gain  -0.4159559E-02 Eh

generating ANC from exact Hessian ...
Using Lindh-Hessian (1995)
 Shifting diagonal of input Hessian by   9.872481635789845E-003
 Lowest  eigenvalues of input Hessian
    0.000000    0.000000    0.000000    0.000000    0.000000    0.000000
    0.010000    0.010064    0.010241    0.010727    0.010964    0.010989
    0.011033    0.011366    0.011840    0.012547    0.012877    0.013765
 Highest eigenvalues
    2.122484    2.159795    2.182625    2.189556    2.214288    2.265172
 

........................................................................
.............................. CYCLE   21 ..............................
........................................................................

 iter      E             dE          RMSdq      gap      omega  full diag
   1   -102.4330842 -0.102433E+03  0.202E-02    0.20       0.0  T
   2   -102.4330166  0.675907E-04  0.269E-02    0.20       1.0  T
   3   -102.4326693  0.347370E-03  0.606E-02    0.20       1.0  T
   4   -102.4329882 -0.318899E-03  0.380E-02    0.20       1.0  T
   5   -102.4330849 -0.966922E-04  0.122E-03    0.20      10.7  T
   6   -102.4330847  0.138056E-06  0.143E-03    0.20       9.1  T
   7   -102.4330849 -0.136856E-06  0.106E-03    0.20      12.3  T
   8   -102.4330849 -0.675512E-07  0.420E-04    0.20      31.0  T
   9   -102.4330849  0.375891E-09  0.349E-04    0.20      37.3  T
     SCC iter.                  ...        0 min,  0.058 sec
     gradient                   ...        0 min,  0.007 sec
 * total energy  :  -100.7445563 Eh     change       -0.2103582E-05 Eh
   gradient norm :     0.0001811 Eh/α   predicted     0.0000000E+00 (-100.00%)
   displ. norm   :     0.0048842 α      lambda       -0.3587868E-07
   maximum displ.:     0.0032713 α      in ANC's #1, #13, #12, ...

........................................................................
.............................. CYCLE   22 ..............................
........................................................................

 iter      E             dE          RMSdq      gap      omega  full diag
   1   -102.4331924 -0.102433E+03  0.194E-03    0.20       0.0  T
   2   -102.4331891  0.336877E-05  0.604E-03    0.20       2.2  T
   3   -102.4331913 -0.222385E-05  0.336E-03    0.20       3.9  T
   4   -102.4331910  0.231704E-06  0.401E-03    0.20       3.2  T
   5   -102.4331924 -0.138631E-05  0.669E-04    0.20      19.5  T
   6   -102.4331925 -0.228688E-07  0.426E-04    0.20      30.6  T
   7   -102.4331925 -0.131201E-07  0.145E-04    0.20      90.1  T
     SCC iter.                  ...        0 min,  0.045 sec
     gradient                   ...        0 min,  0.007 sec
 * total energy  :  -100.7445566 Eh     change       -0.2274566E-06 Eh
   gradient norm :     0.0000855 Eh/α   predicted    -0.1157617E-06 ( -49.11%)
   displ. norm   :     0.0074754 α      lambda       -0.1765068E-06
   maximum displ.:     0.0052660 α      in ANC's #1, #13, #7, ...

........................................................................
.............................. CYCLE   23 ..............................
........................................................................

 iter      E             dE          RMSdq      gap      omega  full diag
   1   -102.4332496 -0.102433E+03  0.217E-03    0.20       0.0  T
   2   -102.4332444  0.516557E-05  0.731E-03    0.20       1.8  T
   3   -102.4332482 -0.374441E-05  0.376E-03    0.20       3.5  T
   4   -102.4332484 -0.220146E-06  0.390E-03    0.20       3.3  T
   5   -102.4332495 -0.112363E-05  0.144E-03    0.20       9.0  T
   6   -102.4332497 -0.134881E-06  0.365E-04    0.20      35.6  T
   7   -102.4332497 -0.961928E-08  0.109E-04    0.20     119.6  T
     SCC iter.                  ...        0 min,  0.045 sec
     gradient                   ...        0 min,  0.007 sec
 * total energy  :  -100.7445568 Eh     change       -0.2047469E-06 Eh
   gradient norm :     0.0001099 Eh/α   predicted    -0.8965974E-07 ( -56.21%)
   displ. norm   :     0.0099432 α      lambda       -0.1698103E-06
   maximum displ.:     0.0072220 α      in ANC's #1, #13, #7, ...

........................................................................
.............................. CYCLE   24 ..............................
........................................................................

 iter      E             dE          RMSdq      gap      omega  full diag
   1   -102.4332167 -0.102433E+03  0.244E-03    0.20       0.0  T
   2   -102.4332153  0.135293E-05  0.394E-03    0.20       3.3  T
   3   -102.4332131  0.220996E-05  0.566E-03    0.20       2.3  T
   4   -102.4332134 -0.266240E-06  0.631E-03    0.20       2.1  T
   5   -102.4332166 -0.322383E-05  0.121E-03    0.20      10.8  T
   6   -102.4332167 -0.817667E-07  0.485E-04    0.20      26.9  T
   7   -102.4332167 -0.158822E-07  0.116E-04    0.20     112.7  T
     SCC iter.                  ...        0 min,  0.050 sec
     gradient                   ...        0 min,  0.007 sec
 * total energy  :  -100.7445570 Eh     change       -0.2036291E-06 Eh
   gradient norm :     0.0000974 Eh/α   predicted    -0.8524900E-07 ( -58.14%)
   displ. norm   :     0.0087254 α      lambda       -0.1196445E-06
   maximum displ.:     0.0068777 α      in ANC's #1, #7, #5, ...

........................................................................
.............................. CYCLE   25 ..............................
........................................................................

 iter      E             dE          RMSdq      gap      omega  full diag
   1   -102.4331961 -0.102433E+03  0.197E-03    0.20       0.0  T
   2   -102.4331919  0.418101E-05  0.627E-03    0.20       2.1  T
   3   -102.4331955 -0.360346E-05  0.253E-03    0.20       5.1  T
   4   -102.4331950  0.530074E-06  0.392E-03    0.20       3.3  T
   5   -102.4331961 -0.113246E-05  0.510E-04    0.20      25.5  T
   6   -102.4331961 -0.687136E-08  0.380E-04    0.20      34.3  T
   7   -102.4331961 -0.105229E-07  0.943E-05    0.20     138.1  T
     SCC iter.                  ...        0 min,  0.045 sec
     gradient                   ...        0 min,  0.007 sec
 * total energy  :  -100.7445571 Eh     change       -0.1632563E-06 Eh
   gradient norm :     0.0000675 Eh/α   predicted    -0.6257406E-07 ( -61.67%)
   displ. norm   :     0.0073948 α      lambda       -0.9940388E-07
   maximum displ.:     0.0060383 α      in ANC's #1, #5, #7, ...

........................................................................
.............................. CYCLE   26 ..............................
........................................................................

 iter      E             dE          RMSdq      gap      omega  full diag
   1   -102.4331868 -0.102433E+03  0.160E-03    0.20       0.0  T
   2   -102.4331846  0.219026E-05  0.461E-03    0.20       2.8  T
   3   -102.4331863 -0.168465E-05  0.228E-03    0.20       5.7  T
   4   -102.4331858  0.458689E-06  0.353E-03    0.20       3.7  T
   5   -102.4331868 -0.956127E-06  0.693E-04    0.20      18.8  T
   6   -102.4331868 -0.228180E-07  0.324E-04    0.20      40.1  T
     SCC iter.                  ...        0 min,  0.038 sec
     gradient                   ...        0 min,  0.007 sec
 * total energy  :  -100.7445573 Eh     change       -0.1412708E-06 Eh
   gradient norm :     0.0000661 Eh/α   predicted    -0.5255271E-07 ( -62.80%)
   displ. norm   :     0.0077101 α      lambda       -0.1131563E-06
   maximum displ.:     0.0061238 α      in ANC's #1, #5, #7, ...

........................................................................
.............................. CYCLE   27 ..............................
........................................................................

 iter      E             dE          RMSdq      gap      omega  full diag
   1   -102.4331860 -0.102433E+03  0.204E-03    0.20       0.0  T
   2   -102.4331837  0.226648E-05  0.594E-03    0.20       2.2  T
   3   -102.4331858 -0.204906E-05  0.200E-03    0.20       6.5  T
   4   -102.4331805  0.521334E-05  0.695E-03    0.20       1.9  T
   5   -102.4331859 -0.531660E-05  0.156E-03    0.20       8.3  T
   6   -102.4331860 -0.189534E-06  0.238E-04    0.20      54.7  T
   7   -102.4331861 -0.253411E-08  0.103E-04    0.20     127.0  T
     SCC iter.                  ...        0 min,  0.045 sec
     gradient                   ...        0 min,  0.007 sec
 * total energy  :  -100.7445574 Eh     change       -0.1622199E-06 Eh
   gradient norm :     0.0001004 Eh/α   predicted    -0.5877738E-07 ( -63.77%)
   displ. norm   :     0.0094302 α      lambda       -0.1359982E-06
   maximum displ.:     0.0074105 α      in ANC's #1, #5, #3, ...

........................................................................
.............................. CYCLE   28 ..............................
........................................................................

 iter      E             dE          RMSdq      gap      omega  full diag
   1   -102.4331749 -0.102433E+03  0.245E-03    0.20       0.0  T
   2   -102.4331734  0.148128E-05  0.489E-03    0.20       2.7  T
   3   -102.4331742 -0.743737E-06  0.320E-03    0.20       4.1  T
   4   -102.4331633  0.109209E-04  0.101E-02    0.20       1.3  T
   5   -102.4331750 -0.117020E-04  0.197E-04    0.20      66.0  T
   6   -102.4331750 -0.239477E-08  0.722E-05    0.20     180.3  T
   7   -102.4331750  0.826986E-09  0.119E-04    0.20     109.6  T
     SCC iter.                  ...        0 min,  0.045 sec
     gradient                   ...        0 min,  0.007 sec
 * total energy  :  -100.7445576 Eh     change       -0.1672280E-06 Eh
   gradient norm :     0.0001093 Eh/α   predicted    -0.7449367E-07 ( -55.45%)
   displ. norm   :     0.0093254 α      lambda       -0.1229648E-06
   maximum displ.:     0.0073137 α      in ANC's #1, #5, #3, ...

........................................................................
.............................. CYCLE   29 ..............................
........................................................................

 iter      E             dE          RMSdq      gap      omega  full diag
   1   -102.4331904 -0.102433E+03  0.239E-03    0.20       0.0  T
   2   -102.4331881  0.232500E-05  0.479E-03    0.20       2.7  T
   3   -102.4331876  0.571272E-06  0.520E-03    0.20       2.5  T
   4   -102.4331885 -0.971272E-06  0.508E-03    0.20       2.6  T
   5   -102.4331905 -0.193960E-05  0.459E-04    0.20      28.4  T
   6   -102.4331905 -0.143824E-08  0.439E-04    0.20      29.6  T
   7   -102.4331905 -0.125496E-07  0.119E-04    0.20     109.0  T
     SCC iter.                  ...        0 min,  0.045 sec
     gradient                   ...        0 min,  0.007 sec
 * total energy  :  -100.7445578 Eh     change       -0.1747162E-06 Eh
   gradient norm :     0.0000916 Eh/α   predicted    -0.6304228E-07 ( -63.92%)
   displ. norm   :     0.0096089 α      lambda       -0.1316075E-06
   maximum displ.:     0.0075997 α      in ANC's #1, #5, #3, ...

........................................................................
.............................. CYCLE   30 ..............................
........................................................................

 iter      E             dE          RMSdq      gap      omega  full diag
   1   -102.4331950 -0.102433E+03  0.250E-03    0.20       0.0  T
   2   -102.4331921  0.293340E-05  0.566E-03    0.20       2.3  T
   3   -102.4331924 -0.267877E-06  0.505E-03    0.20       2.6  T
   4   -102.4331922  0.223955E-06  0.575E-03    0.20       2.3  T
   5   -102.4331950 -0.280785E-05  0.130E-03    0.20      10.1  T
   6   -102.4331951 -0.116913E-06  0.389E-04    0.20      33.4  T
   7   -102.4331951 -0.833789E-08  0.106E-04    0.20     123.3  T
     SCC iter.                  ...        0 min,  0.045 sec
     gradient                   ...        0 min,  0.007 sec
 * total energy  :  -100.7445580 Eh     change       -0.1823243E-06 Eh
   gradient norm :     0.0000599 Eh/α   predicted    -0.6766402E-07 ( -62.89%)
   displ. norm   :     0.0092455 α      lambda       -0.1125270E-06
   maximum displ.:     0.0073866 α      in ANC's #1, #5, #3, ...

........................................................................
.............................. CYCLE   31 ..............................
........................................................................

 iter      E             dE          RMSdq      gap      omega  full diag
   1   -102.4331935 -0.102433E+03  0.228E-03    0.20       0.0  T
   2   -102.4331913  0.224942E-05  0.459E-03    0.20       2.8  T
   3   -102.4331911  0.174810E-06  0.476E-03    0.20       2.7  T
   4   -102.4331928 -0.168244E-05  0.335E-03    0.20       3.9  T
   5   -102.4331936 -0.760319E-06  0.174E-04    0.20      74.9  T
   6   -102.4331936  0.296220E-08  0.255E-04    0.20      51.0  T
     SCC iter.                  ...        0 min,  0.038 sec
     gradient                   ...        0 min,  0.007 sec
 * total energy  :  -100.7445581 Eh     change       -0.1641723E-06 Eh
   gradient norm :     0.0000506 Eh/α   predicted    -0.5956656E-07 ( -63.72%)
   displ. norm   :     0.0091680 α      lambda       -0.1126726E-06
   maximum displ.:     0.0073274 α      in ANC's #1, #5, #3, ...

........................................................................
.............................. CYCLE   32 ..............................
........................................................................

 iter      E             dE          RMSdq      gap      omega  full diag
   1   -102.4331964 -0.102433E+03  0.218E-03    0.20       0.0  T
   2   -102.4331956  0.778241E-06  0.311E-03    0.20       4.2  T
   3   -102.4331931  0.255778E-05  0.554E-03    0.20       2.4  T
   4   -102.4331936 -0.552129E-06  0.558E-03    0.20       2.3  T
   5   -102.4331964 -0.278522E-05  0.492E-04    0.20      26.4  T
   6   -102.4331964 -0.142277E-07  0.170E-04    0.20      76.4  T
   7   -102.4331964 -0.102963E-08  0.941E-05    0.20     138.4  T
     SCC iter.                  ...        0 min,  0.045 sec
     gradient                   ...        0 min,  0.007 sec
 * total energy  :  -100.7445583 Eh     change       -0.1629890E-06 Eh
   gradient norm :     0.0000451 Eh/α   predicted    -0.5737995E-07 ( -64.80%)
   displ. norm   :     0.0090507 α      lambda       -0.9778996E-07
   maximum displ.:     0.0072753 α      in ANC's #1, #5, #6, ...

........................................................................
.............................. CYCLE   33 ..............................
........................................................................

 iter      E             dE          RMSdq      gap      omega  full diag
   1   -102.4331972 -0.102433E+03  0.203E-03    0.20       0.0  T
   2   -102.4331972  0.582573E-07  0.141E-03    0.20       9.2  T
   3   -102.4331892  0.795821E-05  0.843E-03    0.20       1.5  T
   4   -102.4331963 -0.705947E-05  0.332E-03    0.20       3.9  T
   5   -102.4331972 -0.940991E-06  0.512E-04    0.20      25.4  T
   6   -102.4331972 -0.124275E-07  0.303E-04    0.20      43.0  T
     SCC iter.                  ...        0 min,  0.039 sec
     gradient                   ...        0 min,  0.007 sec
 * total energy  :  -100.7445584 Eh     change       -0.1454339E-06 Eh
   gradient norm :     0.0000794 Eh/α   predicted    -0.5363289E-07 ( -63.12%)
   displ. norm   :     0.0086690 α      lambda       -0.9924833E-07
   maximum displ.:     0.0068899 α      in ANC's #1, #5, #6, ...

........................................................................
.............................. CYCLE   34 ..............................
........................................................................

 iter      E             dE          RMSdq      gap      omega  full diag
   1   -102.4331986 -0.102433E+03  0.196E-03    0.20       0.0  T
   2   -102.4331979  0.697541E-06  0.314E-03    0.20       4.1  T
   3   -102.4331974  0.477214E-06  0.342E-03    0.20       3.8  T
   4   -102.4331936  0.382156E-05  0.702E-03    0.20       1.9  T
   5   -102.4331985 -0.495268E-05  0.940E-04    0.20      13.8  T
   6   -102.4331986 -0.626753E-07  0.169E-04    0.20      77.2  T
   7   -102.4331986 -0.759627E-09  0.990E-05    0.20     131.5  T
     SCC iter.                  ...        0 min,  0.045 sec
     gradient                   ...        0 min,  0.007 sec
 * total energy  :  -100.7445586 Eh     change       -0.1485173E-06 Eh
   gradient norm :     0.0000456 Eh/α   predicted    -0.5190798E-07 ( -65.05%)
   displ. norm   :     0.0084077 α      lambda       -0.9120553E-07
   maximum displ.:     0.0067604 α      in ANC's #1, #6, #5, ...

........................................................................
.............................. CYCLE   35 ..............................
........................................................................

 iter      E             dE          RMSdq      gap      omega  full diag
   1   -102.4332051 -0.102433E+03  0.180E-03    0.20       0.0  T
   2   -102.4332049  0.127663E-06  0.171E-03    0.20       7.6  T
   3   -102.4332041  0.849156E-06  0.361E-03    0.20       3.6  T
   4   -102.4332022  0.194409E-05  0.509E-03    0.20       2.6  T
   5   -102.4332051 -0.290706E-05  0.517E-04    0.20      25.2  T
   6   -102.4332051 -0.184307E-07  0.108E-04    0.20     121.0  T
   7   -102.4332051 -0.377099E-09  0.607E-05    0.20     214.5  T
     SCC iter.                  ...        0 min,  0.045 sec
     gradient                   ...        0 min,  0.007 sec
 * total energy  :  -100.7445587 Eh     change       -0.1396752E-06 Eh
   gradient norm :     0.0000593 Eh/α   predicted    -0.4890894E-07 ( -64.98%)
   displ. norm   :     0.0082129 α      lambda       -0.7700925E-07
   maximum displ.:     0.0066046 α      in ANC's #1, #6, #5, ...

........................................................................
.............................. CYCLE   36 ..............................
........................................................................

 iter      E             dE          RMSdq      gap      omega  full diag
   1   -102.4332105 -0.102433E+03  0.174E-03    0.20       0.0  T
   2   -102.4332104  0.925693E-07  0.152E-03    0.20       8.6  T
   3   -102.4332092  0.120882E-05  0.398E-03    0.20       3.3  T
   4   -102.4332074  0.182934E-05  0.532E-03    0.20       2.4  T
   5   -102.4332105 -0.312254E-05  0.413E-04    0.20      31.5  T
   6   -102.4332105 -0.113611E-07  0.105E-04    0.20     123.7  T
   7   -102.4332105  0.452189E-10  0.765E-05    0.20     170.3  T
     SCC iter.                  ...        0 min,  0.045 sec
     gradient                   ...        0 min,  0.007 sec
 * total energy  :  -100.7445588 Eh     change       -0.1294531E-06 Eh
   gradient norm :     0.0000490 Eh/α   predicted    -0.4316476E-07 ( -66.66%)
   displ. norm   :     0.0079379 α      lambda       -0.6730731E-07
   maximum displ.:     0.0064200 α      in ANC's #1, #6, #5, ...

........................................................................
.............................. CYCLE   37 ..............................
........................................................................

 iter      E             dE          RMSdq      gap      omega  full diag
   1   -102.4332149 -0.102433E+03  0.168E-03    0.20       0.0  T
   2   -102.4332149  0.668288E-07  0.139E-03    0.20       9.3  T
   3   -102.4332138  0.106112E-05  0.398E-03    0.20       3.3  T
   4   -102.4332129  0.906949E-06  0.422E-03    0.20       3.1  T
   5   -102.4332149 -0.202388E-05  0.429E-04    0.20      30.4  T
   6   -102.4332149 -0.132641E-07  0.109E-04    0.20     119.2  T
   7   -102.4332149  0.110262E-09  0.898E-05    0.20     145.0  T
     SCC iter.                  ...        0 min,  0.045 sec
     gradient                   ...        0 min,  0.007 sec
 * total energy  :  -100.7445590 Eh     change       -0.1165436E-06 Eh
   gradient norm :     0.0000564 Eh/α   predicted    -0.3775723E-07 ( -67.60%)
   displ. norm   :     0.0073239 α      lambda       -0.6561814E-07
   maximum displ.:     0.0060053 α      in ANC's #1, #6, #5, ...

........................................................................
.............................. CYCLE   38 ..............................
........................................................................

 iter      E             dE          RMSdq      gap      omega  full diag
   1   -102.4332171 -0.102433E+03  0.157E-03    0.20       0.0  T
   2   -102.4332167  0.405604E-06  0.214E-03    0.20       6.1  T
   3   -102.4332147  0.199451E-05  0.467E-03    0.20       2.8  T
   4   -102.4332164 -0.166587E-05  0.304E-03    0.20       4.3  T
   5   -102.4332171 -0.733120E-06  0.305E-04    0.20      42.7  T
   6   -102.4332171 -0.427364E-08  0.153E-04    0.20      85.2  T
     SCC iter.                  ...        0 min,  0.039 sec
     gradient                   ...        0 min,  0.007 sec
 * total energy  :  -100.7445591 Eh     change       -0.1038731E-06 Eh
   gradient norm :     0.0000441 Eh/α   predicted    -0.3669473E-07 ( -64.67%)
   displ. norm   :     0.0067671 α      lambda       -0.6491057E-07
   maximum displ.:     0.0056479 α      in ANC's #1, #6, #5, ...

........................................................................
.............................. CYCLE   39 ..............................
........................................................................

 iter      E             dE          RMSdq      gap      omega  full diag
   1   -102.4332141 -0.102433E+03  0.146E-03    0.20       0.0  T
   2   -102.4332138  0.340167E-06  0.196E-03    0.20       6.6  T
   3   -102.4332120  0.178971E-05  0.441E-03    0.20       3.0  T
   4   -102.4332135 -0.151626E-05  0.276E-03    0.20       4.7  T
   5   -102.4332141 -0.614078E-06  0.233E-04    0.20      55.8  T
   6   -102.4332141 -0.189831E-08  0.143E-04    0.20      91.0  T
     SCC iter.                  ...        0 min,  0.039 sec
     gradient                   ...        0 min,  0.007 sec
 * total energy  :  -100.7445592 Eh     change       -0.1009326E-06 Eh
   gradient norm :     0.0000749 Eh/α   predicted    -0.3538699E-07 ( -64.94%)
   displ. norm   :     0.0065612 α      lambda       -0.5052503E-07
   maximum displ.:     0.0055080 α      in ANC's #1, #6, #5, ...

........................................................................
.............................. CYCLE   40 ..............................
........................................................................

 iter      E             dE          RMSdq      gap      omega  full diag
   1   -102.4332107 -0.102433E+03  0.141E-03    0.20       0.0  T
   2   -102.4332102  0.462164E-06  0.220E-03    0.20       5.9  T
   3   -102.4332091  0.113194E-05  0.382E-03    0.20       3.4  T
   4   -102.4332101 -0.103774E-05  0.265E-03    0.20       4.9  T
   5   -102.4332107 -0.554170E-06  0.334E-04    0.20      38.9  T
   6   -102.4332107 -0.112588E-08  0.305E-04    0.20      42.7  T
     SCC iter.                  ...        0 min,  0.039 sec
     gradient                   ...        0 min,  0.007 sec
 * total energy  :  -100.7445593 Eh     change       -0.9150007E-07 Eh
   gradient norm :     0.0000809 Eh/α   predicted    -0.2971564E-07 ( -67.52%)
   displ. norm   :     0.0061615 α      lambda       -0.4875137E-07
   maximum displ.:     0.0052003 α      in ANC's #1, #6, #5, ...

   *** GEOMETRY OPTIMIZATION CONVERGED AFTER 40 ITERATIONS ***

------------------------------------------------------------------------
 total energy gain   :        -0.0041646 Eh       -2.6133 kcal/mol
 total RMSD          :         0.1083264 a0        0.0573 Å
 total power (kW/mol):        -0.2733534 (step)   -4.1544 (real)
------------------------------------------------------------------------

 ANCopt (total)                0 d,  0 h,  0 min,  2.632 sec
 optimizer setup                ...        0 min,  0.000 sec (  0.006%)
 model hessian                  ...        0 min,  0.032 sec (  1.213%)
 ANC generation                 ...        0 min,  0.006 sec (  0.240%)
 coordinate transformation      ...        0 min,  0.004 sec (  0.147%)
 single point calculation       ...        0 min,  2.570 sec ( 97.635%)
 optimization log               ...        0 min,  0.008 sec (  0.315%)
 hessian update                 ...        0 min,  0.005 sec (  0.172%)
 rational function              ...        0 min,  0.004 sec (  0.140%)

================
 final structure:
================
59
 xtb: 6.7.1 (edcfbbe)
Br           6.09310580761434       -4.15280553141583       -1.28248773509198
C            4.73125722978810       -2.86648130150566       -0.88834466790734
C            3.39603971177423       -3.24349430777604       -1.03045334539955
C            2.38356305113157       -2.34749598478370       -0.75205633980019
C            2.73496122722570       -1.07258964206671       -0.32044523230815
C            4.09699206413140       -0.69123216414868       -0.20427762752415
C            5.10723850566767       -1.59757240825302       -0.48580956205917
C            4.09664894130798        0.68469808927365        0.20865777371116
C            5.10641896779459        1.59103784864847        0.49191424491113
C            4.72976110438297        2.85986398623732        0.89407761574450
Br           6.09093304392429        4.14619321011183        1.29058261383040
C            3.39430938130634        3.23684749831447        1.03404501467390
C            2.38230188207194        2.34084837673246        0.75394789706640
C            2.73443531456198        1.06600099712280        0.32276272522378
N            1.93082479725167       -0.00330368005950        0.00051418060031
C            0.53016830785785       -0.00331087019537       -0.00038444817102
C           -0.17758912083789        1.01557831301309       -0.65506141493984
C           -1.54665259391808        1.01800435854535       -0.65477120606024
C           -2.27509629006605       -0.00244910584152       -0.00148333251811
C           -3.69147189899658       -0.00161411578122       -0.00132473381802
N           -4.37489678806867        0.98913680527468       -0.62931492434939
C           -5.68123948750668        0.97646690222085       -0.60386233123352
C           -6.41512441234555        2.05581259284978       -1.25367653558378
C           -7.81091565687888        2.06749000601609       -1.23574323402855
C           -8.50472057657221        3.09352725958332       -1.84644707279015
C           -7.81859283372487        4.11827224904159       -2.48085890236604
C           -6.43107404939744        4.11264231703097       -2.50327260835535
C           -5.73089642536657        3.09047164535415       -1.89509812650875
N           -6.39136847086421       -0.00050416731367       -0.00258765337463
C           -5.68256107645057       -0.97795206222545        0.59951444804127
C           -6.41795769916557       -2.05672376283404        1.24854249203130
C           -5.73517194464306       -3.09361351247414        1.88789845238840
C           -6.43679263178803       -4.11540969965234        2.49503414017391
C           -7.82433927104644       -4.11838270696479        2.47372375134612
C           -8.50904317542358       -3.09135031190003        1.84147110515752
C           -7.81378751860863       -2.06572655970744        1.23172982022185
N           -4.37624640027472       -0.99168276264869        0.62618504348056
C           -1.54774993769306       -1.02344366114580        0.65220297549830
C           -0.17867484610262       -1.02188047693735        0.65358154549567
H            3.15812677327854       -4.24106138355071       -1.36485148709432
H            1.35124638245616       -2.63113627214701       -0.87947680087137
H            6.14670000234649       -1.32464876896634       -0.39879595019557
H            6.14602727015545        1.31816372875366        0.40652662252039
H            3.15584512114361        4.23436251901243        1.36820577902938
H            1.34977748980843        2.62442515307106        0.87981173541058
H            0.36848679557620        1.77989415684956       -1.18778594295303
H           -2.09900954143673        1.79066116910548       -1.16654154694557
H           -8.33015570028347        1.26328584558286       -0.73729014498005
H           -9.58467576368340        3.09633970237366       -1.82855845589834
H           -8.36336399957826        4.91978699277597       -2.95709535673366
H           -5.89592432800997        4.91034490250223       -2.99721963348665
H           -4.65177150155549        3.07276093413463       -1.90456783599349
H           -4.65600572168978       -3.07797634044865        1.89645511678261
H           -5.90275991801476       -4.91492359663346        2.98725901695547
H           -8.37024233262476       -4.91963996877286        2.94909421825299
H           -9.58901666088915       -3.09209038078784        1.82447941434401
H           -8.33189407188178       -1.25978132217668        0.73490707485227
H           -2.10097203826969       -1.79562962566431        1.16375583804309
H            0.36646604015497       -1.78647385704553        1.18686358581445
 
 Bond Distances (Angstroems)
 ---------------------------
Br1-C2=1.9143        C2-Br1=1.9143        C2-C3=1.3947         C2-C7=1.3833         C3-C2=1.3947         C3-C4=1.3804         
C3-H40=1.0787        C4-C3=1.3804         C4-C5=1.3911         C4-H41=1.0781        C5-C4=1.3911         C5-C6=1.4192         
C5-N15=1.3759        C6-C5=1.4192         C6-C7=1.3861         C6-C8=1.4366         C7-C2=1.3833         C7-C6=1.3861         
C7-H42=1.0782        C8-C6=1.4366         C8-C9=1.3861         C8-C14=1.4192        C9-C8=1.3861         C9-C10=1.3833        
C9-H43=1.0782        C10-C9=1.3833        C10-Br11=1.9143      C10-C12=1.3947       Br11-C10=1.9143      C12-C10=1.3947       
C12-C13=1.3804       C12-H44=1.0787       C13-C12=1.3804       C13-C14=1.3911       C13-H45=1.0781       C14-C8=1.4192        
C14-C13=1.3911       C14-N15=1.3759       N15-C5=1.3759        N15-C14=1.3759       N15-C16=1.4007       C16-N15=1.4007       
C16-C17=1.4027       C16-C39=1.4027       C17-C16=1.4027       C17-C18=1.3691       C17-H46=1.0799       C18-C17=1.3691       
C18-C19=1.4138       C18-H47=1.0789       C19-C18=1.4138       C19-C20=1.4164       C19-C38=1.4138       C20-C19=1.4164       
C20-N21=1.3576       C20-N37=1.3575       N21-C20=1.3576       N21-C22=1.3067       C22-N21=1.3067       C22-C23=1.4580       
C22-N29=1.3492       C23-C22=1.4580       C23-C24=1.3960       C23-C28=1.3965       C24-C23=1.3960       C24-C25=1.3810       
C24-H48=1.0793       C25-C24=1.3810       C25-C26=1.3868       C25-H49=1.0801       C26-C25=1.3868       C26-C27=1.3877       
C26-H50=1.0798       C27-C26=1.3877       C27-C28=1.3802       C27-H51=1.0801       C28-C23=1.3965       C28-C27=1.3802       
C28-H52=1.0793       N29-C22=1.3492       N29-C30=1.3492       C30-N29=1.3492       C30-C31=1.4580       C30-N37=1.3067       
C31-C30=1.4580       C31-C32=1.3965       C31-C36=1.3960       C32-C31=1.3965       C32-C33=1.3802       C32-H53=1.0793       
C33-C32=1.3802       C33-C34=1.3877       C33-H54=1.0801       C34-C33=1.3877       C34-C35=1.3869       C34-H55=1.0798       
C35-C34=1.3869       C35-C36=1.3810       C35-H56=1.0801       C36-C31=1.3960       C36-C35=1.3810       C36-H57=1.0793       
N37-C20=1.3575       N37-C30=1.3067       C38-C19=1.4138       C38-C39=1.3691       C38-H58=1.0789       C39-C16=1.4027       
C39-C38=1.3691       C39-H59=1.0799       H40-C3=1.0787        H41-C4=1.0781        H42-C7=1.0782        H43-C9=1.0782        
H44-C12=1.0787       H45-C13=1.0781       H46-C17=1.0799       H47-C18=1.0789       H48-C24=1.0793       H49-C25=1.0801       
H50-C26=1.0798       H51-C27=1.0801       H52-C28=1.0793       H53-C32=1.0793       H54-C33=1.0801       H55-C34=1.0798       
H56-C35=1.0801       H57-C36=1.0793       H58-C38=1.0789       H59-C39=1.0799       
 C  H  Rav=1.0792 sigma=0.0007  Rmin=1.0781  Rmax=1.0801    20
 C  C  Rav=1.3972 sigma=0.0212  Rmin=1.3691  Rmax=1.4580    34
 N  C  Rav=1.3532 sigma=0.0292  Rmin=1.3067  Rmax=1.4007     9
 Br C  Rav=1.9143 sigma=0.0000  Rmin=1.9143  Rmax=1.9143     2
 
 selected bond angles (degree)
 --------------------
C3-C2-Br1=118.58               C7-C2-Br1=118.88               C7-C2-C3=122.54                C4-C3-C2=120.41                
H40-C3-C2=119.52               H40-C3-C4=120.07               C5-C4-C3=118.18                H41-C4-C3=120.51               
H41-C4-C5=121.31               C6-C5-C4=120.94                N15-C5-C4=129.57               N15-C5-C6=109.45               
C7-C6-C5=120.47                C8-C6-C5=106.30                C8-C6-C7=133.22                C6-C7-C2=117.44                
H42-C7-C2=121.18               H42-C7-C6=121.38               C9-C8-C6=133.22                C14-C8-C6=106.30               
C14-C8-C9=120.47               C10-C9-C8=117.44               H43-C9-C8=121.38               H43-C9-C10=121.18              
Br11-C10-C9=118.88             C12-C10-C9=122.54              C12-C10-Br11=118.58            
 
 selected dihedral angles (degree)
 ---------------------------------
C4-C3-C2-Br1=179.78           C4-C3-C2-C7=359.19            H40-C3-C2-Br1=359.48          H40-C3-C2-C7=178.89           
C5-C4-C3-C2=359.55            C5-C4-C3-H40=179.85           H41-C4-C3-C2=178.82           H41-C4-C3-H40=359.12          
C6-C5-C4-C3=  1.69            C6-C5-C4-H41=182.43           N15-C5-C4-C3=179.01           N15-C5-C4-H41=359.75          
C7-C6-C5-C4=358.26            C7-C6-C5-N15=180.45           C8-C6-C5-C4=177.77            C8-C6-C5-N15=359.95           
C6-C7-C2-Br1=180.19           C6-C7-C2-C3=  0.78            H42-C7-C2-Br1=  0.43          H42-C7-C2-C3=181.02           
C2-C7-C6-C5=  0.48            C2-C7-C6-C8=181.13            H42-C7-C6-C5=180.24           H42-C7-C6-C8=  0.89           
C9-C8-C6-C5=179.46            C9-C8-C6-C7=358.87            C14-C8-C6-C5=  0.06           C14-C8-C6-C7=179.47           
C10-C9-C8-C6=181.14           C10-C9-C8-C14=  0.48          H43-C9-C8-C6=  0.90           H43-C9-C8-C14=180.23          
Br11-C10-C9-C8=180.19         Br11-C10-C9-H43=  0.43        C12-C10-C9-C8=  0.77          C12-C10-C9-H43=181.02         
           -------------------------------------------------
          |                Final Singlepoint                |
           -------------------------------------------------

          ...................................................
          :                      SETUP                      :
          :.................................................:
          :  # basis functions                 188          :
          :  # atomic orbitals                 186          :
          :  # shells                          100          :
          :  # electrons                       186          :
          :  max. iterations                   250          :
          :  Hamiltonian                  GFN2-xTB          :
          :  restarted?                      false          :
          :  GBSA solvation                   true          :
          :  PC potential                    false          :
          :  electronic temp.          300.0000000     K    :
          :  accuracy                    1.0000000          :
          :  -> integral cutoff          0.2500000E+02      :
          :  -> integral neglect         0.1000000E-07      :
          :  -> SCF convergence          0.1000000E-05 Eh   :
          :  -> wf. convergence          0.1000000E-03 e    :
          :  Broyden damping             0.4000000          :
          :  net charge                          0          :
          :  unpaired electrons                  2          :
          ...................................................

 iter      E             dE          RMSdq      gap      omega  full diag
   1   -102.4332107 -0.102433E+03  0.568E-05    0.20       0.0  T
   2   -102.4332107  0.306055E-08  0.188E-04    0.20      69.4  T
   3   -102.4332107 -0.159366E-08  0.120E-04    0.20     108.2  T

   *** convergence criteria satisfied after 3 iterations ***

         #    Occupation            Energy/Eh            Energy/eV
      -------------------------------------------------------------
         1        2.0000           -0.8455925             -23.0097
       ...           ...                  ...                  ...
        88        2.0000           -0.4117352             -11.2039
        89        2.0000           -0.4090866             -11.1318
        90        2.0000           -0.4050742             -11.0226
        91        1.8750           -0.3853595             -10.4862
        92        1.6947           -0.3842923             -10.4571
        93        1.4303           -0.3832444             -10.4286
        94        0.9804           -0.2966584              -8.0725 (HOMO)
[...]

      molecular mass/u    :      632.3469681
   center of mass at/Å    :        0.0030078      -0.0022291       0.0004071
  moments of inertia/u·Å² :        0.6189610E+04   0.1942406E+05   0.2366724E+05
rotational constants/cm⁻¹ :        0.2723537E-02   0.8678738E-03   0.7122770E-03

 * 63 selected distances

     #   Z          #   Z                                           value/Å
     1  35 Br       2   6 C                                       1.9143174
     2   6 C        3   6 C                                       1.3946827
     3   6 C        4   6 C                                       1.3803721
     4   6 C        5   6 C                                       1.3910986
     5   6 C        6   6 C                                       1.4191747
     2   6 C        7   6 C                                       1.3833028
     6   6 C        7   6 C                                       1.3861137
     6   6 C        8   6 C                                       1.4365585
     8   6 C        9   6 C                                       1.3861175
     9   6 C       10   6 C                                       1.3833028
    10   6 C       11  35 Br                                      1.9143272 (max)
    10   6 C       12   6 C                                       1.3946824
    12   6 C       13   6 C                                       1.3803725
     8   6 C       14   6 C                                       1.4191681
    13   6 C       14   6 C                                       1.3910984
     5   6 C       15   7 N                                       1.3758718
    14   6 C       15   7 N                                       1.3758804
    15   7 N       16   6 C                                       1.4006569
    16   6 C       17   6 C                                       1.4027323
    17   6 C       18   6 C                                       1.3690658
    18   6 C       19   6 C                                       1.4137683
    19   6 C       20   6 C                                       1.4163760
    20   6 C       21   7 N                                       1.3575820
    21   7 N       22   6 C                                       1.3066522
    23   6 C       24   6 C                                       1.3959554
    24   6 C       25   6 C                                       1.3809697
    25   6 C       26   6 C                                       1.3868498
    26   6 C       27   6 C                                       1.3877114
    23   6 C       28   6 C                                       1.3964631
    27   6 C       28   6 C                                       1.3802022
    22   6 C       29   7 N                                       1.3491802
    29   7 N       30   6 C                                       1.3491996
    31   6 C       32   6 C                                       1.3964645
    32   6 C       33   6 C                                       1.3802004
    33   6 C       34   6 C                                       1.3877136
    34   6 C       35   6 C                                       1.3868521
    31   6 C       36   6 C                                       1.3959602
    35   6 C       36   6 C                                       1.3809668
    20   6 C       37   7 N                                       1.3575422
    30   6 C       37   7 N                                       1.3066592
    19   6 C       38   6 C                                       1.4137782
    16   6 C       39   6 C                                       1.4027168
    38   6 C       39   6 C                                       1.3690768
     3   6 C       40   1 H                                       1.0786867
     4   6 C       41   1 H                                       1.0781307
     7   6 C       42   1 H                                       1.0782111
     9   6 C       43   1 H                                       1.0782101
    12   6 C       44   1 H                                       1.0786867
    13   6 C       45   1 H                                       1.0781300 (min)
    17   6 C       46   1 H                                       1.0798950
    18   6 C       47   1 H                                       1.0788910
    24   6 C       48   1 H                                       1.0792638
    25   6 C       49   1 H                                       1.0801071
    26   6 C       50   1 H                                       1.0798161
    27   6 C       51   1 H                                       1.0801382
    28   6 C       52   1 H                                       1.0793119
    32   6 C       53   1 H                                       1.0793135
    33   6 C       54   1 H                                       1.0801384
    34   6 C       55   1 H                                       1.0798151
    35   6 C       56   1 H                                       1.0801075
    36   6 C       57   1 H                                       1.0792660
    38   6 C       58   1 H                                       1.0788941
    39   6 C       59   1 H                                       1.0798942

 * 4 distinct bonds (by element types)

   Z      Z             #   av. dist./Å        max./Å        min./Å
   1 H    6 C          20     1.0792454     1.0801384     1.0781300
   6 C    6 C          32     1.3934334     1.4365585     1.3690658
   6 C    7 N           9     1.3532472     1.4006569     1.3066522
   6 C   35 Br          2     1.9143223     1.9143272     1.9143174

           -------------------------------------------------
          |               Frequency Printout                |
           -------------------------------------------------
 projected vibrational frequencies (cm⁻¹)
eigval :       -0.00    -0.00    -0.00    -0.00     0.00     0.00
eigval :        6.34     8.21    15.83    20.43    27.69    42.71
eigval :       44.14    51.37    56.89    67.51    70.90    86.11
eigval :       89.71   109.42   130.72   132.03   146.45   167.32
eigval :      186.16   191.00   199.59   216.88   235.20   235.81
eigval :      249.56   260.01   291.06   301.21   305.14   325.47
eigval :      358.82   363.70   366.10   367.29   380.15   388.71
eigval :      401.42   405.61   409.14   416.80   429.67   459.91
eigval :      484.58   538.82   545.56   548.53   551.82   558.85
eigval :      562.85   571.56   585.28   588.13   593.37   599.92
eigval :      606.47   627.80   649.52   652.91   661.01   661.13
eigval :      662.86   671.81   676.18   703.99   712.57   761.81
eigval :      763.21   797.10   797.28   805.22   807.39   808.51
eigval :      810.37   835.36   861.82   863.51   867.54   869.67
eigval :      888.94   893.21   896.47   901.33   903.00   908.56
eigval :      914.49   919.78   925.43   926.42   929.33   929.53
eigval :      942.15   981.82   985.15   993.05  1012.71  1059.24
eigval :     1068.85  1072.15  1073.24  1075.13  1108.21  1109.44
eigval :     1120.23  1123.49  1139.21  1143.60  1155.64  1164.94
eigval :     1177.72  1178.02  1181.55  1185.48  1188.95  1213.98
eigval :     1229.80  1242.68  1247.67  1250.33  1266.32  1269.66
eigval :     1272.28  1275.61  1326.67  1328.31  1329.27  1336.52
eigval :     1342.95  1351.40  1364.62  1392.24  1393.19  1401.83
eigval :     1421.27  1424.95  1433.51  1434.31  1437.59  1459.39
eigval :     1459.52  1464.10  1477.87  1478.25  1541.76  1549.47
eigval :     1556.96  1561.25  1569.26  1569.73  1576.27  1582.01
eigval :     1589.06  3076.68  3076.81  3079.45  3079.59  3081.20
eigval :     3082.71  3090.30  3090.63  3096.17  3096.27  3097.27
eigval :     3098.70  3098.76  3100.26  3101.67  3101.76  3107.51
eigval :     3109.86  3111.77  3112.20
 reduced masses (amu)
   1: 34.02   2: 34.85   3: 41.77   4: 34.40   5: 34.49   6: 22.00   7: 31.16   8: 29.58
   9: 33.08  10: 10.75  11: 14.45  12: 14.86  13: 19.44  14: 27.98  15: 20.69  16: 47.52
  17: 16.75  18: 13.88  19: 15.92  20: 11.66  21: 36.94  22: 12.89  23: 15.59  24: 12.57
  25: 16.75  26: 28.11  27: 11.87  28: 12.64  29: 38.94  30: 21.43  31: 13.00  32: 21.92
  33: 13.54  34: 11.88  35: 11.25  36: 17.04  37: 12.55  38: 11.57  39:  9.24  40:  9.10
  41:  9.49  42:  9.53  43: 10.97  44: 10.39  45: 12.51  46:  9.45  47: 11.70  48: 10.07
  49: 13.98  50: 11.21  51: 11.66  52: 12.03  53: 11.55  54: 11.11  55: 11.21  56: 12.00
  57: 11.25  58: 11.22  59: 11.59  60: 11.01  61: 12.09  62: 12.41  63: 10.90  64: 11.58
  65: 11.06  66:  8.91  67: 11.82  68: 11.87  69: 10.63  70: 11.70  71: 11.46  72:  5.33
  73:  5.41  74: 10.45  75:  6.46  76: 11.13  77: 10.01  78:  5.89  79:  4.71  80:  3.39
  81:  3.60  82:  3.44  83:  3.37  84:  3.34  85:  9.35  86:  5.65  87:  3.60  88:  3.66
  89:  3.65  90:  2.92  91:  3.66  92: 11.75  93:  4.16  94:  4.15  95:  3.15  96:  3.11
  97: 12.33  98: 10.97  99: 11.68 100:  9.26 101: 10.33 102: 10.60 103:  6.89 104:  6.72
 105:  6.64 106:  6.12 107:  3.65 108:  4.31 109:  3.05 110:  7.56 111:  7.78 112:  4.05
 113:  9.14 114:  4.53 115:  1.42 116:  1.49 117:  3.62 118:  3.87 119:  4.09 120:  4.48
 121:  6.06 122:  8.41 123:  3.91 124:  9.96 125:  4.07 126:  4.10 127: 10.27 128:  9.33
 129: 10.86 130: 11.94 131: 11.96 132:  9.26 133: 11.41 134: 11.62 135: 10.71 136:  9.46
 137:  9.56 138: 11.55 139: 11.17 140: 10.72 141:  9.48 142:  9.98 143: 10.58 144:  9.46
 145: 11.07 146: 10.07 147: 11.59 148: 10.91 149: 11.71 150: 11.55 151: 11.76 152: 11.70
 153: 11.51 154: 11.51 155: 11.75 156: 11.52 157: 11.54 158:  1.75 159:  1.75 160:  1.80
 161:  1.80 162:  1.79 163:  1.79 164:  1.85 165:  1.85 166:  1.86 167:  1.87 168:  1.86
 169:  1.89 170:  1.87 171:  1.88 172:  1.79 173:  1.79 174:  1.85 175:  1.84 176:  1.89
 177:  1.89
 IR intensities (km·mol⁻¹)
   1:  0.11   2:  0.12   3:  0.32   4:  0.07   5:  0.29   6:  0.09   7:  0.15   8:  0.23
   9:  1.05  10:  0.22  11:  0.41  12:  2.35  13:  1.35  14:  1.68  15:  0.17  16:  0.10
  17:  0.01  18:  0.01  19:  0.02  20:  3.97  21:  5.76  22:  3.22  23:  0.14  24:  0.26
  25:  0.27  26:  2.64  27: 13.69  28:  0.06  29:  1.88  30: 30.35  31:  1.41  32: 42.01
  33:  0.26  34: 10.07  35:  4.56  36: 25.40  37:145.01  38:  4.07  39:  4.18  40: 14.45
  41:  5.66  42:  2.48  43:  8.37  44:  1.13  45:  0.30  46:  0.84  47: 23.81  48:  2.99
  49: 32.13  50:  0.46  51:  1.57  52:  0.98  53: 10.12  54:  2.15  55:  0.32  56:  0.01
  57: 73.84  58:  1.18  59: 94.97  60:  6.11  61:  3.71  62:221.16  63: 11.05  64:237.74
  65:313.56  66: 51.76  67:******  68:280.90  69:127.39  70: 46.44  71:  3.25  72: 22.80
  73:  2.71  74:187.92  75: 77.79  76:108.76  77: 92.98  78: 10.21  79: 51.74  80: 23.20
  81:108.18  82: 12.64  83:  0.18  84:  0.70  85:  9.46  86:  3.44  87:  4.90  88:  4.84
  89:  0.42  90:  3.87  91:135.50  92:  2.97  93:  4.61  94:  1.94  95:  0.88  96:  0.56
  97:******  98:  3.42  99:****** 100:  3.35 101: 39.42 102:  6.25 103: 60.04 104:  0.67
 105:  1.51 106:  1.01 107:  0.20 108: 19.71 109:  8.46 110: 27.28 111:  6.03 112: 13.89
 113:  4.90 114:  6.48 115:  1.86 116:  0.32 117:  1.71 118:  0.85 119: 91.89 120:  6.81
 121: 30.33 122: 77.23 123:  0.24 124:677.53 125:  0.06 126:101.29 127:100.41 128: 36.83
 129:  2.82 130:  1.14 131:  2.12 132:  6.82 133: 29.46 134:258.28 135:****** 136: 10.33
 137:742.75 138: 34.35 139:111.35 140:  3.84 141: 74.19 142: 28.15 143: 29.32 144:  0.24
 145: 19.55 146:  0.80 147:  5.87 148:250.89 149: 28.78 150:737.05 151:139.82 152:154.57
 153:  5.07 154: 23.03 155:****** 156: 40.59 157:  0.05 158:  6.76 159: 22.43 160: 15.95
 161: 69.03 162:  4.20 163:  6.18 164:166.78 165:146.23 166: 39.84 167: 22.24 168: 53.23
 169: 15.19 170: 35.67 171: 49.48 172:  8.50 173:404.13 174:  5.28 175:644.54 176: 40.73
 177:125.32
 Raman intensities (Ä⁴*amu⁻¹)
   1:  0.00   2:  0.00   3:  0.00   4:  0.00   5:  0.00   6:  0.00   7:  0.00   8:  0.00
   9:  0.00  10:  0.00  11:  0.00  12:  0.00  13:  0.00  14:  0.00  15:  0.00  16:  0.00
  17:  0.00  18:  0.00  19:  0.00  20:  0.00  21:  0.00  22:  0.00  23:  0.00  24:  0.00
  25:  0.00  26:  0.00  27:  0.00  28:  0.00  29:  0.00  30:  0.00  31:  0.00  32:  0.00
  33:  0.00  34:  0.00  35:  0.00  36:  0.00  37:  0.00  38:  0.00  39:  0.00  40:  0.00
  41:  0.00  42:  0.00  43:  0.00  44:  0.00  45:  0.00  46:  0.00  47:  0.00  48:  0.00
  49:  0.00  50:  0.00  51:  0.00  52:  0.00  53:  0.00  54:  0.00  55:  0.00  56:  0.00
  57:  0.00  58:  0.00  59:  0.00  60:  0.00  61:  0.00  62:  0.00  63:  0.00  64:  0.00
  65:  0.00  66:  0.00  67:  0.00  68:  0.00  69:  0.00  70:  0.00  71:  0.00  72:  0.00
  73:  0.00  74:  0.00  75:  0.00  76:  0.00  77:  0.00  78:  0.00  79:  0.00  80:  0.00
  81:  0.00  82:  0.00  83:  0.00  84:  0.00  85:  0.00  86:  0.00  87:  0.00  88:  0.00
  89:  0.00  90:  0.00  91:  0.00  92:  0.00  93:  0.00  94:  0.00  95:  0.00  96:  0.00
  97:  0.00  98:  0.00  99:  0.00 100:  0.00 101:  0.00 102:  0.00 103:  0.00 104:  0.00
 105:  0.00 106:  0.00 107:  0.00 108:  0.00 109:  0.00 110:  0.00 111:  0.00 112:  0.00
 113:  0.00 114:  0.00 115:  0.00 116:  0.00 117:  0.00 118:  0.00 119:  0.00 120:  0.00
 121:  0.00 122:  0.00 123:  0.00 124:  0.00 125:  0.00 126:  0.00 127:  0.00 128:  0.00
 129:  0.00 130:  0.00 131:  0.00 132:  0.00 133:  0.00 134:  0.00 135:  0.00 136:  0.00
 137:  0.00 138:  0.00 139:  0.00 140:  0.00 141:  0.00 142:  0.00 143:  0.00 144:  0.00
 145:  0.00 146:  0.00 147:  0.00 148:  0.00 149:  0.00 150:  0.00 151:  0.00 152:  0.00
 153:  0.00 154:  0.00 155:  0.00 156:  0.00 157:  0.00 158:  0.00 159:  0.00 160:  0.00
 161:  0.00 162:  0.00 163:  0.00 164:  0.00 165:  0.00 166:  0.00 167:  0.00 168:  0.00
 169:  0.00 170:  0.00 171:  0.00 172:  0.00 173:  0.00 174:  0.00 175:  0.00 176:  0.00
 177:  0.00
 output can be read by thermo (or use thermo option).
 writing <g98.out> molden fake output.
 recommended (thermochemical) frequency scaling factor: 1.0
           -------------------------------------------------
          |             Thermodynamic Functions             |
           -------------------------------------------------

Molecule has the following symmetry elements: (C2) 
It seems to be the C2 point group
c2  symmetry found (for desy threshold:  0.10E+00) used in thermo

          ...................................................
          :                      SETUP                      :
          :.................................................:
          :  # frequencies                         171      :
          :  # imaginary freq.                       0      :
          :  linear?                             false      :
          :  only rotor calc.                    false      :
          :  symmetry                               c2      :
          :  rotational number                       2      :
          :  scaling factor                  1.0000000      :
          :  rotor cutoff                   50.0000000 cm⁻¹ :
          :  imag. cutoff                  -20.0000000 cm⁻¹ :
          :.................................................:

    mode    ω/cm⁻¹     T·S(HO)/kcal·mol⁻¹    T·S(FR)/kcal·mol⁻¹   T·S(vib)
   ------------------------------------------------------------------------
       1      6.34    -2.65828 (  0.03%)    -1.66820 ( 99.97%)    -1.66846
       2      8.21    -2.50546 (  0.07%)    -1.59179 ( 99.93%)    -1.59246
       3     15.83    -2.11626 (  1.00%)    -1.39716 ( 99.00%)    -1.40432
       4     20.43    -1.96544 (  2.71%)    -1.32170 ( 97.29%)    -1.33915
       5     27.69    -1.78534 (  8.60%)    -1.23155 ( 91.40%)    -1.27920
       6     42.71    -1.52934 ( 34.73%)    -1.10326 ( 65.27%)    -1.25125
       7     44.14    -1.50983 ( 37.79%)    -1.09347 ( 62.21%)    -1.25080
       8     51.37    -1.42041 ( 52.69%)    -1.04856 ( 47.31%)    -1.24450
       9     56.89    -1.36020 ( 62.64%)    -1.01828 ( 37.36%)    -1.23245
      10     67.51    -1.25962 ( 76.87%)    -0.96762 ( 23.13%)    -1.19207
      11     70.90    -1.23083 ( 80.17%)    -0.95309 ( 19.83%)    -1.17575
      12     86.11    -1.11704 ( 89.79%)    -0.89551 ( 10.21%)    -1.09443
      13     89.71    -1.09311 ( 91.20%)    -0.88337 (  8.80%)    -1.07465
      14    109.42    -0.97768 ( 95.82%)    -0.82454 (  4.18%)    -0.97128
      15    130.72    -0.87518 ( 97.90%)    -0.77184 (  2.10%)    -0.87302
      16    132.03    -0.86948 ( 97.98%)    -0.76889 (  2.02%)    -0.86745
      17    146.45    -0.81031 ( 98.66%)    -0.73818 (  1.34%)    -0.80934
      18    167.32    -0.73504 ( 99.21%)    -0.69872 (  0.79%)    -0.73475
      19    186.16    -0.67552 ( 99.48%)    -0.66711 (  0.52%)    -0.67547
      20    191.00    -0.66133 ( 99.53%)    -0.65951 (  0.47%)    -0.66132
      21    199.59    -0.63710 ( 99.61%)    -0.64647 (  0.39%)    -0.63714
      22    216.88    -0.59183 ( 99.72%)    -0.62187 (  0.28%)    -0.59192
      23    235.20    -0.54826 ( 99.80%)    -0.59784 (  0.20%)    -0.54836
      24    235.81    -0.54689 ( 99.80%)    -0.59708 (  0.20%)    -0.54699
      25    249.56    -0.51689 ( 99.84%)    -0.58028 (  0.16%)    -0.51699
      26    260.01    -0.49543 ( 99.86%)    -0.56813 (  0.14%)    -0.49553
      27    291.06    -0.43763 ( 99.91%)    -0.53472 (  0.09%)    -0.43771
   ------------------------------------------------------------------------

   temp. (K)  partition function   enthalpy   heat capacity  entropy
                                   cal/mol     cal/K/mol   cal/K/mol   J/K/mol
 298.15  VIB  0.850E+16            18893.889    114.564    120.288
         ROT  0.644E+08              888.752      2.981     38.714
         INT  0.547E+24            19782.642    117.545    159.002
         TR   0.154E+29             1481.254      4.968     45.195
         TOT                       21263.8956   122.5127   204.1967   854.3588

       T/K    H(0)-H(T)+PV         H(T)/Eh          T*S/Eh         G(T)/Eh
   ------------------------------------------------------------------------
    298.15    0.338862E-01    0.455735E+00    0.970204E-01    0.358715E+00
   ------------------------------------------------------------------------

         :::::::::::::::::::::::::::::::::::::::::::::::::::::
         ::                  THERMODYNAMIC                  ::
         :::::::::::::::::::::::::::::::::::::::::::::::::::::
         :: total free energy        -100.385844213702 Eh   ::
         ::.................................................::
         :: total energy             -100.744559265506 Eh   ::
         :: zero point energy           0.421849301825 Eh   ::
         :: G(RRHO) w/o ZPVE           -0.063134250021 Eh   ::
         :: G(RRHO) contrib.            0.358715051805 Eh   ::
         :::::::::::::::::::::::::::::::::::::::::::::::::::::

optimized geometry written to: xtbopt.xyz


           -------------------------------------------------
          | TOTAL ENERGY             -100.744559265506 Eh   |
          | TOTAL ENTHALPY           -100.288823789170 Eh   |
          | TOTAL FREE ENERGY        -100.385844213702 Eh   |
          | GRADIENT NORM               0.000072858308 Eh/α |
          | HOMO-LUMO GAP               0.202166263065 eV   |
           -------------------------------------------------

------------------------------------------------------------------------
 * finished run on 2025/08/29 at 12:53:59.143     
------------------------------------------------------------------------
 total:
 * wall-time:     0 d,  0 h,  0 min,  5.293 sec
 *  cpu-time:     0 d,  0 h,  3 min, 18.207 sec
 * ratio c/w:    37.444 speedup
 SCF:
 * wall-time:     0 d,  0 h,  0 min,  0.248 sec
 *  cpu-time:     0 d,  0 h,  0 min,  9.725 sec
 * ratio c/w:    39.265 speedup
 ANC optimizer:
 * wall-time:     0 d,  0 h,  0 min,  2.682 sec
 *  cpu-time:     0 d,  0 h,  1 min, 47.261 sec
 * ratio c/w:    39.995 speedup
 analytical hessian:
 * wall-time:     0 d,  0 h,  0 min,  2.214 sec
 *  cpu-time:     0 d,  0 h,  1 min, 15.714 sec
 * ratio c/w:    34.204 speedup

