$hessian                                                                        
        0.0922610211  -0.0631488711  -0.0191586617  -0.0583669912   0.0350793644
        0.0107373621  -0.0304909041   0.0209312755   0.0063651774  -0.0032948609
       -0.0038557972  -0.0014901222   0.0001049006   0.0004610756   0.0002464166
        0.0018350609   0.0004084408   0.0000462412  -0.0024968359   0.0100792361
        0.0033043151  -0.0004994345   0.0000863283   0.0000152190  -0.0001786659
       -0.0001039466  -0.0000647285  -0.0000880879   0.0000383370   0.0000146671
        0.0000447489  -0.0000414490  -0.0000115866   0.0004380738  -0.0000173841
       -0.0000214660  -0.0000755008  -0.0005612589  -0.0001693504   0.0001670682
        0.0006100768   0.0001575975  -0.0001021644  -0.0004170993  -0.0001864305
        0.0002455356  -0.0000670983   0.0000417024  -0.0000997536   0.0000026108
       -0.0000381117   0.0001229792  -0.0000096967  -0.0000742586  -0.0001400190
       -0.0000131417  -0.0000088396  -0.0008134416  -0.0000056411   0.0000146735
        0.0006887585   0.0006628100  -0.0003772014   0.0001193234  -0.0007452160
        0.0003696833   0.0000082237   0.0000804683  -0.0000484417   0.0000785658
       -0.0000080552   0.0000013848   0.0000230185   0.0000470314  -0.0000281611
        0.0000216035  -0.0000303290   0.0000198646  -0.0000391584   0.0000132765
        0.0000045336  -0.0000552330  -0.0000665044   0.0000368426  -0.0005464992
       -0.0000034810   0.0000157565   0.0001047149   0.0007322866  -0.0003968092
        0.0000060453  -0.0000883075   0.0000454590  -0.0000668194   0.0000527088
       -0.0000406074  -0.0000453898  -0.0000226800  -0.0000045598   0.0000170747
        0.0000219959  -0.0000210332   0.0000188063  -0.0000537346   0.0000337915
        0.0000759830   0.0000000989  -0.0000029459   0.0006903873  -0.0006924882
        0.0003740792   0.0000905280  -0.0000565495   0.0000473165  -0.0001159581
        0.0000875688   0.0000037143  -0.0000407601   0.0004825187   0.0002279025
       -0.0010988076   0.0009245663   0.0002664666   0.0010692883  -0.0007621538
       -0.0002230672   0.0000811728   0.0001392631   0.0000015500   0.0000609931
       -0.0000574406  -0.0000262827  -0.0000386185  -0.0000340654  -0.0000005606
        0.0000242752   0.0000790654  -0.0000301965   0.0000499981  -0.0000074762
        0.0000065428   0.0000451321  -0.0000140124   0.0000081180   0.0000056281
        0.0000138673  -0.0000124240   0.0000199935   0.0000227203  -0.0000036039
        0.0000117891   0.0000165730   0.0000014494   0.0000291618  -0.0000262495
        0.0000103049   0.0000263437   0.0000157565  -0.0000154562   0.0000031710
       -0.0000264890  -0.0000057903   0.0000142239  -0.0000238229   0.0000051231
        0.0000048281  -0.0000140369   0.0000156304   0.0000448147   0.0000090502
       -0.0000058265   0.0000331989  -0.0000211636  -0.0000129062   0.0000074701
       -0.0001027319   0.0000405441
       -0.0631488711   0.0839904114   0.0232889379   0.0356562488  -0.0531558997
       -0.0117229159   0.0090654373  -0.0019509328  -0.0009439261  -0.0000290893
        0.0020644929  -0.0004359592   0.0000721467  -0.0001049715  -0.0001294351
       -0.0037930553  -0.0030187591  -0.0022712453   0.0216075266  -0.0283183871
       -0.0092855120   0.0012604066  -0.0006812414  -0.0003340904   0.0002633431
        0.0001588325   0.0000793924   0.0000127456  -0.0000449233  -0.0000036307
        0.0000503920   0.0000980410   0.0000228547  -0.0003404572   0.0000564886
        0.0000267100   0.0001544524   0.0004252263   0.0001479302  -0.0002128064
       -0.0008191934  -0.0001345804   0.0001177233   0.0002920856   0.0003520878
       -0.0002248704   0.0000400133  -0.0000259805   0.0001271068  -0.0000194292
        0.0000409916  -0.0001280501   0.0000280715   0.0000703971   0.0001477357
       -0.0000018558   0.0000092339   0.0008972875   0.0000462310  -0.0000545048
       -0.0008948588  -0.0008062370   0.0004699555  -0.0001526897   0.0008585178
       -0.0004366312  -0.0000166806  -0.0000850701   0.0000505009  -0.0000595862
        0.0000083054  -0.0000071074  -0.0000271329  -0.0000453553   0.0000252963
       -0.0000156326   0.0000210616  -0.0000231617   0.0000363790  -0.0000110871
       -0.0000060760   0.0000513415   0.0000535889  -0.0000345692   0.0007602308
        0.0000466803  -0.0000451142  -0.0002063860  -0.0007414416   0.0003914400
        0.0000048416   0.0000902669  -0.0000423311   0.0000818991  -0.0000576770
        0.0000490988   0.0000466816   0.0000225063   0.0000131509  -0.0000220874
       -0.0000252374   0.0000200331  -0.0000192482   0.0000600997  -0.0000331886
       -0.0000940349   0.0000064892  -0.0000066697  -0.0006596865   0.0006859633
       -0.0003648618  -0.0000875781   0.0000638316  -0.0000439504   0.0001404331
       -0.0000595813   0.0000375978  -0.0008123013   0.0009619699   0.0007646075
        0.0002283735  -0.0001960453  -0.0000284782   0.0004766647   0.0000634792
        0.0005799245  -0.0000350259  -0.0000914893   0.0000179261  -0.0000533192
        0.0000431310   0.0000185677   0.0000586639  -0.0000059081  -0.0000107294
       -0.0000324747  -0.0000767687   0.0000230111  -0.0000469738   0.0000033526
       -0.0000068479  -0.0000455572   0.0000060101  -0.0000069505  -0.0000027017
       -0.0000132069   0.0000072799  -0.0000179692  -0.0000256330   0.0000008673
       -0.0000108026  -0.0000195165  -0.0000062339  -0.0000242042   0.0000201612
       -0.0000117041  -0.0000236107  -0.0000237846   0.0000184088   0.0000001484
        0.0000328481   0.0000011498  -0.0000100449   0.0000284726  -0.0000040789
        0.0000020950   0.0000185235  -0.0000181164  -0.0000435765  -0.0000134327
        0.0000058908  -0.0000198270   0.0000144929   0.0000146552  -0.0000091141
        0.0001034190  -0.0000693167
       -0.0191586617   0.0232889379   0.0151491479   0.0109185749  -0.0117003794
       -0.0185207303   0.0025003336  -0.0008104701   0.0011791052  -0.0001173322
       -0.0005746088   0.0035005912   0.0000549993  -0.0000872833  -0.0000393116
       -0.0011869186  -0.0022886092   0.0036418546   0.0067914853  -0.0092528434
       -0.0017818634   0.0004018165  -0.0003669119   0.0002636261   0.0000955977
        0.0000901213   0.0000415202   0.0000166817  -0.0000086849  -0.0000084393
        0.0000144989   0.0000225425   0.0000233471  -0.0000885417   0.0000132182
        0.0000088442   0.0000441471   0.0001644665  -0.0000002346  -0.0000434579
       -0.0001680294  -0.0002786746   0.0000642929   0.0003143965  -0.0004671220
       -0.0001418874   0.0000203799  -0.0000608988   0.0000099085   0.0000048577
        0.0000147899  -0.0000292341   0.0000160048   0.0000151013   0.0000102153
       -0.0000018097   0.0000132312   0.0003148565   0.0000508830  -0.0000324299
       -0.0002827063  -0.0002313269   0.0001279532  -0.0000579855   0.0002419454
       -0.0001411326  -0.0000081171  -0.0000097683   0.0000111640  -0.0000131481
       -0.0000065112  -0.0000041790  -0.0000065376  -0.0000068547   0.0000094459
       -0.0000043814   0.0000034088  -0.0000045107   0.0000087799   0.0000045195
        0.0000032582   0.0000114914   0.0000178173   0.0000023228   0.0003393140
       -0.0000341111   0.0000247982  -0.0000960553  -0.0001799961   0.0000923589
       -0.0000156527   0.0000005403   0.0000031083   0.0000115428  -0.0000030547
       -0.0000044786   0.0000022815   0.0000005271   0.0000028610  -0.0000006969
       -0.0000008783  -0.0000032405  -0.0000046939   0.0000041351  -0.0000068410
       -0.0000000868   0.0000074910  -0.0000024689  -0.0002769129   0.0001684964
       -0.0000756226  -0.0000134977   0.0000140793  -0.0000225271  -0.0000067037
       -0.0000290299   0.0000416163  -0.0001972355   0.0007351160  -0.0011659894
        0.0000469927  -0.0000585190  -0.0000454198   0.0001804906   0.0006226616
       -0.0014676291   0.0000068581  -0.0000258942  -0.0000170885  -0.0000207132
        0.0000229458   0.0000076781   0.0000016640  -0.0000049861  -0.0000117370
       -0.0000017052  -0.0000127414   0.0000039865  -0.0000194600   0.0000036100
       -0.0000081820  -0.0000140645   0.0000012110  -0.0000009201  -0.0000045546
       -0.0000045180   0.0000065947  -0.0000072616  -0.0000010975   0.0000047398
       -0.0000016388  -0.0000031728  -0.0000003601  -0.0000005584   0.0000095337
       -0.0000014695   0.0000025006  -0.0000067975   0.0000010566   0.0000014759
        0.0000026791   0.0000006031  -0.0000045188   0.0000026717  -0.0000027649
       -0.0000033660   0.0000026611  -0.0000066554  -0.0000152968  -0.0000000468
       -0.0000001600  -0.0000140461   0.0000010670   0.0000038824   0.0000068289
        0.0000260090  -0.0000155057
       -0.0583669912   0.0356562488   0.0109185749   0.5008154913   0.0951093342
        0.0362176778  -0.2651957971  -0.0957960350  -0.0354508543  -0.0627845707
        0.0565361638   0.0174622416  -0.0180208056  -0.0315458253  -0.0107068198
        0.0358358044  -0.0013556172  -0.0002431499  -0.1054569021  -0.0432449861
       -0.0136581131  -0.0006235852   0.0099214684   0.0029442926  -0.0015274843
       -0.0025181190  -0.0007788986   0.0012439869   0.0008241306   0.0001725396
       -0.0000874463  -0.0000156999  -0.0000173556  -0.0018308773  -0.0012808467
       -0.0004232022   0.0000736905   0.0028946964   0.0008090170  -0.0000006942
       -0.0039616924  -0.0007063812  -0.0013852573   0.0061633832   0.0022191720
       -0.0018677152  -0.0001992576  -0.0003519234   0.0004609186  -0.0005422362
       -0.0000646494  -0.0002056054   0.0000818929   0.0000609044  -0.0001279283
        0.0000437648   0.0000114739   0.0010882568   0.0000220837   0.0000013766
       -0.0007925041  -0.0003376436   0.0000683805   0.0002484874   0.0011081651
       -0.0005932917   0.0002076580  -0.0003134441   0.0002005147  -0.0002022192
        0.0000524622  -0.0000266057   0.0000071424  -0.0000870589   0.0000554585
       -0.0000616184   0.0000675042  -0.0000388886   0.0000971007  -0.0000749523
        0.0000430073   0.0000452446   0.0001976499  -0.0001165797  -0.0002810996
       -0.0000024224   0.0000124285   0.0002451034  -0.0011044998   0.0005879674
        0.0002057978   0.0003186180  -0.0001899228   0.0000482606  -0.0001872825
        0.0001190294   0.0001008154   0.0000837314  -0.0000359523  -0.0000565986
       -0.0000618730   0.0000418328   0.0000117473   0.0000935536  -0.0000496042
       -0.0001961537  -0.0000493740   0.0000309166  -0.0008014688   0.0003437725
       -0.0000744004  -0.0000671410  -0.0000076486  -0.0000417562   0.0003174615
        0.0003706239   0.0002135341  -0.0092579045  -0.0037656887  -0.0008767742
       -0.0016740212   0.0027599153   0.0007268378  -0.0097159022  -0.0264467813
       -0.0085170979  -0.0000585698   0.0001435908   0.0000850018  -0.0000192075
       -0.0000156620   0.0000333485   0.0000401998  -0.0000672644  -0.0000068431
       -0.0000354598  -0.0000073729  -0.0000230455  -0.0000756908   0.0000326820
        0.0000440538  -0.0000302072  -0.0000035325   0.0000064463  -0.0000160686
       -0.0000003183   0.0000014979  -0.0000151243  -0.0000005947   0.0000041192
       -0.0000164533   0.0000009409   0.0000019027  -0.0000103531   0.0000108969
       -0.0000064234  -0.0000037671  -0.0000060906   0.0000118041  -0.0000088768
        0.0000036315   0.0000024971  -0.0000078519   0.0000037107   0.0000024435
       -0.0000130704   0.0000022709   0.0000043855  -0.0000288890   0.0000061512
       -0.0000006490  -0.0000686627  -0.0000043858  -0.0000394157  -0.0000966235
        0.0001511676  -0.0000760806
        0.0350793644  -0.0531558997  -0.0117003794   0.0951093342   0.4839548003
        0.1257986156  -0.0338340835  -0.0990045118  -0.0184498506  -0.0016872188
        0.0376015163   0.0117426399  -0.0228272832  -0.0214205161  -0.0053196527
        0.0538968653  -0.0645420544  -0.0207251408  -0.1020918776  -0.2706407239
       -0.0717709897   0.0035538836   0.0122105825   0.0015558385  -0.0026086830
       -0.0042525691  -0.0013849209  -0.0008257501   0.0019671080   0.0007536948
       -0.0000452390  -0.0000280652  -0.0000033504   0.0009797982  -0.0007283420
       -0.0002781653  -0.0002351014   0.0000619779   0.0000567231   0.0039559744
       -0.0005302775   0.0001032069  -0.0002126434  -0.0020648296  -0.0004561398
       -0.0008910910  -0.0000243018  -0.0000304998   0.0000228636  -0.0000902836
       -0.0001515369   0.0002763431   0.0001142313  -0.0002462067  -0.0006128583
        0.0000068819   0.0000325243  -0.0022488238   0.0000192787   0.0000601247
        0.0019059075   0.0024433168  -0.0014781255   0.0006214523  -0.0017231975
        0.0008518236   0.0002453539  -0.0000167001   0.0000173814   0.0000920381
        0.0001216272  -0.0000780499   0.0001177145   0.0000330830  -0.0000266295
       -0.0000131023  -0.0000072408   0.0000071564  -0.0000168687  -0.0000702588
        0.0000615389  -0.0002429718  -0.0000216848   0.0000105600  -0.0028726807
        0.0000930690   0.0000092220   0.0005816670   0.0017171406  -0.0009478791
        0.0002715046   0.0000198409  -0.0000208448  -0.0002235456  -0.0000148755
        0.0000026633  -0.0000113540   0.0000685368  -0.0000629818  -0.0000194988
       -0.0000124619   0.0000005955   0.0001166229  -0.0000379828   0.0000314801
        0.0000564485  -0.0001196653   0.0000725243   0.0021201290  -0.0025472449
        0.0015262094   0.0003582185  -0.0001790894   0.0001736156  -0.0001179812
        0.0000341299   0.0001965088  -0.0263151435  -0.0095426017  -0.0034557534
        0.0027780279  -0.0005341028  -0.0029361321  -0.0039311112  -0.0091132302
       -0.0033525260  -0.0002445908   0.0001609325  -0.0000582405   0.0001001632
       -0.0001033329  -0.0000458816  -0.0000275207  -0.0001407463  -0.0000430200
       -0.0000628371   0.0001852445  -0.0000973992   0.0000101234  -0.0000081744
        0.0000832391   0.0000856057  -0.0000473171   0.0000271098  -0.0000834993
        0.0000444716  -0.0000412943  -0.0000183535   0.0000846001  -0.0000360777
       -0.0000033137   0.0000877380  -0.0000273821   0.0000154484  -0.0000737329
        0.0000371115   0.0000024453   0.0000681201  -0.0000338432  -0.0000122506
       -0.0000903385   0.0000263133  -0.0000262763  -0.0000831987   0.0000390615
       -0.0000792713  -0.0000434222   0.0000425613   0.0000859458   0.0000369659
       -0.0000190132  -0.0000252526   0.0000041460  -0.0001022332   0.0000288337
       -0.0001263652   0.0000600965
        0.0107373621  -0.0117229159  -0.0185207303   0.0362176778   0.1257986156
        0.1293482480  -0.0146050500  -0.0191665772  -0.0512907639  -0.0015391633
        0.0124406855   0.0059646641  -0.0071350891  -0.0054794710  -0.0078995493
        0.0171849034  -0.0212138001  -0.0041368465  -0.0324099735  -0.0718008630
       -0.0656429287   0.0012683816   0.0019233339   0.0073111062  -0.0008533927
       -0.0013971461  -0.0004197471  -0.0001633912   0.0008105389  -0.0003307059
       -0.0000416040  -0.0000204503  -0.0000136720   0.0001797216  -0.0002485652
       -0.0000735172  -0.0000729015   0.0002481785  -0.0002220470   0.0010969330
       -0.0004299181   0.0000702981  -0.0000731926  -0.0002734866  -0.0001808293
       -0.0003435538   0.0000221575  -0.0000566810   0.0000326219  -0.0000458708
       -0.0000362205   0.0000880365   0.0000580103  -0.0000995788  -0.0001856449
       -0.0000424043   0.0000304921  -0.0007437376   0.0004316127  -0.0002453699
        0.0004805519   0.0005568282  -0.0003478991   0.0002419864  -0.0002519048
        0.0000881661   0.0001057819  -0.0000509838   0.0000323546   0.0000239584
        0.0000517562  -0.0000456054   0.0000314735   0.0000033282  -0.0000081518
       -0.0000055146   0.0000064820  -0.0000103214   0.0000152555  -0.0000221777
        0.0000196901  -0.0000864172   0.0000160246  -0.0000058508  -0.0008119267
       -0.0001674467   0.0001032390  -0.0001061546   0.0008658455  -0.0004938127
        0.0000837727  -0.0000506717   0.0000236469  -0.0000812410   0.0000234482
       -0.0000277076  -0.0000168670   0.0000092161  -0.0000204828  -0.0000046791
        0.0000060856  -0.0000163505   0.0000399219  -0.0000222975   0.0000049294
        0.0000446521  -0.0000166127   0.0000048323   0.0009037183  -0.0013355711
        0.0008204083   0.0001230640  -0.0000607958   0.0000463134  -0.0000226334
        0.0000028858   0.0001453290  -0.0088512853  -0.0033051939  -0.0008376878
        0.0006548101  -0.0030038385   0.0073646001  -0.0012774653  -0.0030578506
       -0.0006496398  -0.0000796501  -0.0000350114   0.0002451673   0.0000310199
       -0.0000558760   0.0000550572  -0.0000004999  -0.0000527612   0.0000217165
       -0.0000161921   0.0000580189  -0.0000244584  -0.0000013141  -0.0000075835
        0.0000320733   0.0000304774  -0.0000154353   0.0000025434  -0.0000231680
        0.0000168555  -0.0000210032  -0.0000016850   0.0000286479  -0.0000141461
        0.0000003300   0.0000287516  -0.0000114477   0.0000105823  -0.0000252733
        0.0000137773  -0.0000016195   0.0000110267  -0.0000093896  -0.0000089732
       -0.0000286234   0.0000017546  -0.0000106696  -0.0000252181   0.0000024572
       -0.0000265744  -0.0000134198   0.0000041850   0.0000225171   0.0000094477
       -0.0000109717   0.0000018961   0.0000091642  -0.0000330508  -0.0000501832
        0.0000090695   0.0000001149
       -0.0304909041   0.0090654373   0.0025003336  -0.2651957971  -0.0338340835
       -0.0146050500   0.6125131164  -0.0105319057   0.0055343779  -0.2251897236
        0.0796987184   0.0228437124   0.0282124776   0.0630842972   0.0209207068
       -0.0413614615   0.0186270516   0.0056032701  -0.0061756030  -0.0728131067
       -0.0235965285  -0.0036013749  -0.0060274914  -0.0017203039   0.0013974426
        0.0029015666   0.0009476007  -0.0018311184  -0.0009796672  -0.0001758689
        0.0004383716   0.0003441860   0.0000889513   0.0025121597   0.0009148434
        0.0003016294  -0.0003620193  -0.0033231014  -0.0008281325   0.0022921410
        0.0055541426   0.0012246197   0.0047089954  -0.0150807049  -0.0054406898
        0.0007970135   0.0001359089   0.0005574234  -0.0001394789   0.0004415128
        0.0000302265   0.0002070586  -0.0000704474  -0.0001206538  -0.0001321601
       -0.0000649392  -0.0000011375  -0.0002089653  -0.0000090314   0.0000158271
        0.0001303262   0.0003272400   0.0000618112   0.0000032477  -0.0008431114
        0.0003370100  -0.0002069577   0.0002771826  -0.0001815720   0.0001816250
       -0.0000318648   0.0000112593  -0.0000133925   0.0000740344  -0.0000418227
        0.0000385885  -0.0000478975   0.0000291117  -0.0000815671   0.0000601651
       -0.0000281381  -0.0000416739  -0.0001664909   0.0001039767   0.0001728401
        0.0000701833  -0.0000255102   0.0000172375   0.0008373955  -0.0003517891
       -0.0001917842  -0.0002695526   0.0001733533  -0.0000123520   0.0001500191
       -0.0000935388  -0.0000771313  -0.0000533152   0.0000251355   0.0000368865
        0.0000386682  -0.0000316088  -0.0000148457  -0.0000716508   0.0000349056
        0.0001541867   0.0000399465  -0.0000236015   0.0002497899  -0.0003163524
       -0.0000374667   0.0002018846   0.0000394797   0.0001677564  -0.0002322608
       -0.0003710795   0.0000868261  -0.0551963511  -0.0548290021  -0.0194276630
       -0.0238542734   0.0176150511   0.0053827904   0.0003868813  -0.0011106462
       -0.0003031475   0.0001825615   0.0001260542   0.0000286536   0.0000433919
        0.0000605982  -0.0000523338  -0.0000724289   0.0001342673   0.0000184480
       -0.0000600842   0.0000640296   0.0000505482   0.0000721310   0.0000010997
       -0.0000182921   0.0000044895  -0.0000000910  -0.0000038256  -0.0000140916
        0.0000065151  -0.0000032162  -0.0000105727   0.0000107179  -0.0000057483
       -0.0000002194   0.0000114563  -0.0000040510  -0.0000080743  -0.0000051379
        0.0000113448  -0.0000134973   0.0000109886  -0.0000148132  -0.0000022080
       -0.0000014589  -0.0000016703  -0.0000135089  -0.0000064672  -0.0000014140
       -0.0000135280  -0.0000023611  -0.0000086315   0.0000038922  -0.0000018882
       -0.0000014662   0.0000702501   0.0000437302   0.0000147226  -0.0002095774
        0.0000963590   0.0000433531
        0.0209312755  -0.0019509328  -0.0008104701  -0.0957960350  -0.0990045118
       -0.0191665772  -0.0105319057   0.6235926295   0.1700390785   0.1563192721
       -0.1910316319  -0.0466736514   0.0111125482  -0.0548642778  -0.0175470524
        0.0095968059   0.0030562771   0.0020940980  -0.0275970521  -0.0091410976
       -0.0030769847   0.0014297165  -0.0030169351  -0.0011063356   0.0006095468
        0.0011398614   0.0003212032   0.0012812223  -0.0007271223  -0.0002557696
        0.0000168484   0.0000558513   0.0000142349  -0.0009153454   0.0000947817
        0.0000951248  -0.0003619623  -0.0001225020  -0.0000242577  -0.0017611936
       -0.0022485295  -0.0009526358  -0.0057354753   0.0006978476  -0.0015090646
        0.0011889904   0.0000002155  -0.0001130833  -0.0003314417   0.0003500319
        0.0001498898   0.0000888892  -0.0000269458   0.0000205344   0.0003348208
        0.0000312792  -0.0000226325  -0.0018315093  -0.0000677921   0.0000639046
        0.0012397557   0.0003425057  -0.0002054911  -0.0003771783  -0.0013745642
        0.0008176537  -0.0002053582   0.0003496835  -0.0002076521   0.0002138594
       -0.0000522847   0.0000272638  -0.0000031319   0.0000894459  -0.0000576746
        0.0000596500  -0.0000624204   0.0000324964  -0.0001006859   0.0000684328
       -0.0000420951  -0.0000621802  -0.0002058146   0.0001221827   0.0002787898
        0.0000098544   0.0000370284  -0.0003233398   0.0012221271  -0.0007974817
       -0.0002214085  -0.0003383086   0.0001974742  -0.0000652761   0.0002092243
       -0.0001278291  -0.0001030848  -0.0000711386   0.0000420597   0.0000616859
        0.0000597807  -0.0000374468  -0.0000096731  -0.0000901261   0.0000566161
        0.0002223405   0.0000397990  -0.0000253286   0.0010863333  -0.0001589342
        0.0001004850   0.0001592052   0.0000664745  -0.0000548540  -0.0004903458
       -0.0003241591   0.0000899846  -0.0542560734  -0.2673058727  -0.0790146347
       -0.0037597279   0.0044978172   0.0011149167  -0.0015315573  -0.0038477761
       -0.0033714849   0.0000051803   0.0001231942  -0.0000238949  -0.0000161835
       -0.0000908468   0.0000068241   0.0000062599  -0.0000083717  -0.0000275502
       -0.0000110472   0.0000382627  -0.0000382961   0.0000004777  -0.0000592479
       -0.0000418963   0.0000307054   0.0000030629  -0.0000044447  -0.0000019736
        0.0000031459  -0.0000047763   0.0000004908   0.0000031814  -0.0000058329
       -0.0000002796   0.0000077647  -0.0000100721  -0.0000125638  -0.0000182389
        0.0000072175  -0.0000023817   0.0000177897  -0.0000108892   0.0000016480
       -0.0000098483   0.0000076157  -0.0000022115  -0.0000064797   0.0000061405
       -0.0000043285  -0.0000036624   0.0000011610   0.0000291087  -0.0000022605
       -0.0000003524  -0.0000042864   0.0000602718   0.0000201010   0.0001207707
        0.0000020407  -0.0001167969
        0.0063651774  -0.0009439261   0.0011791052  -0.0354508543  -0.0184498506
       -0.0512907639   0.0055343779   0.1700390785   0.1627545582   0.0480098184
       -0.0477108626  -0.0565043147   0.0040493698  -0.0176479988  -0.0055892575
        0.0026026266   0.0025189642  -0.0027874029  -0.0089255707  -0.0037948007
       -0.0009531654   0.0004576078  -0.0011518269  -0.0003636365   0.0002268860
        0.0004506343   0.0000611551   0.0004202598  -0.0002887651  -0.0000782610
        0.0000262350   0.0000309150   0.0000104049  -0.0002981842   0.0000962104
       -0.0000313494  -0.0001280025  -0.0000467186  -0.0003036498  -0.0004644844
       -0.0007453975   0.0002445041  -0.0024648361  -0.0015630894   0.0045869361
        0.0006651046  -0.0000423196   0.0003803043  -0.0000543682   0.0001358616
       -0.0000256290  -0.0000117852   0.0000101549   0.0000197619   0.0002422638
       -0.0000916337   0.0000053109  -0.0005951908   0.0009978398  -0.0007044052
       -0.0003341173  -0.0010985002   0.0007153657   0.0005405592   0.0004630680
       -0.0002485556  -0.0000888511  -0.0000277109   0.0000290662   0.0000438147
        0.0000317182  -0.0000198409  -0.0000257763   0.0000100602   0.0000050456
        0.0000120758  -0.0000021604   0.0000066281  -0.0000117114   0.0000053940
        0.0000089539  -0.0000169325  -0.0000161234   0.0000250077  -0.0002888056
       -0.0003579976   0.0001366223  -0.0002653748   0.0011075880  -0.0006099443
       -0.0000833628  -0.0001932859   0.0001234502   0.0000088756   0.0000833081
       -0.0000536134  -0.0000481084  -0.0000238427   0.0000149687   0.0000215384
        0.0000237709  -0.0000127489   0.0000216774  -0.0000433922   0.0000293073
        0.0000658043   0.0000608492  -0.0000287225   0.0009128581  -0.0008355588
        0.0005156239  -0.0000129287   0.0000316712   0.0000251028   0.0001017820
       -0.0001763764  -0.0000831073  -0.0185568212  -0.0790500678  -0.0583826949
       -0.0017177359   0.0016668013   0.0011746386  -0.0004796280  -0.0034102325
        0.0059483271   0.0000087731   0.0000346709  -0.0000135835  -0.0000051738
       -0.0000360908   0.0000307660  -0.0000033714  -0.0000028290  -0.0000051951
       -0.0000142726  -0.0000028604  -0.0000298347  -0.0000008726  -0.0000148755
        0.0000172093   0.0000068724  -0.0000052868   0.0000099788  -0.0000074085
        0.0000056688   0.0000080864  -0.0000057816   0.0000041768   0.0000097057
       -0.0000035720   0.0000023894   0.0000031961  -0.0000008048  -0.0000237075
        0.0000188467  -0.0000072761  -0.0000124724   0.0000060836   0.0000062274
       -0.0000045419   0.0000048625   0.0000036198  -0.0000036450   0.0000062215
        0.0000027881   0.0000027460   0.0000046519   0.0000001533  -0.0000192348
        0.0000187323   0.0000242546   0.0000134655   0.0000299411  -0.0000094375
        0.0000109772  -0.0000487540
       -0.0032948609  -0.0000290893  -0.0001173322  -0.0627845707  -0.0016872188
       -0.0015391633  -0.2251897236   0.1563192721   0.0480098184   0.6812433521
        0.0014188381   0.0140199734  -0.1071092832  -0.0947189600  -0.0326939979
       -0.0026587701  -0.0293908278  -0.0093374026  -0.0002219520   0.0168960331
        0.0054305179  -0.0042577344  -0.0024078310  -0.0007354266  -0.0001127055
       -0.0019727587  -0.0005981922   0.0000740241   0.0002352522   0.0000612158
       -0.0000761587  -0.0001546216  -0.0000430535  -0.0003638976   0.0003617965
        0.0001285193   0.0005715709   0.0008944073   0.0001668222  -0.0040094142
        0.0023259555   0.0007508379   0.0073995513   0.0209493442   0.0069015503
        0.0010129528   0.0005867705   0.0000952837   0.0001390585   0.0000400376
        0.0002572030  -0.0000177823  -0.0000680171  -0.0000381428  -0.0000766855
        0.0001051786  -0.0000408105  -0.0010913916  -0.0000387290   0.0000809412
        0.0009086667   0.0007114679  -0.0005401260  -0.0000013362  -0.0006670189
        0.0004100459   0.0000035450   0.0000752118  -0.0000452696   0.0000666254
        0.0000234151  -0.0000203555   0.0000224617   0.0000120420  -0.0000160991
        0.0000102749  -0.0000108361  -0.0000017810  -0.0000099944  -0.0000019706
       -0.0000062945  -0.0000700815  -0.0000487217   0.0000221697  -0.0008448729
        0.0000810678   0.0000350423   0.0000045526   0.0005694926  -0.0004466048
        0.0000183946  -0.0000585519   0.0000211808  -0.0000704590   0.0000305585
       -0.0000296033  -0.0000019599   0.0000041664  -0.0000038176   0.0000113361
        0.0000029862  -0.0000018447   0.0000225133  -0.0000133521   0.0000088942
        0.0000581885  -0.0000274913   0.0000134792   0.0009542924  -0.0006913427
        0.0004910899   0.0004851668  -0.0000870052   0.0001130672  -0.0010314573
        0.0005313076   0.0001699737   0.0035851983  -0.0021852677  -0.0002541495
       -0.2838009972  -0.0683086695  -0.0313028495   0.0004562038   0.0002884523
        0.0000316859   0.0000354649   0.0000433326   0.0000026388   0.0000547141
        0.0000370665   0.0000446066   0.0000338864  -0.0000213238  -0.0000057885
        0.0000519256  -0.0000655952   0.0000291140  -0.0000278286  -0.0000414880
       -0.0000176036   0.0000144285  -0.0000042806  -0.0000019275  -0.0000221075
        0.0000062062  -0.0000117775  -0.0000064247   0.0000114982  -0.0000149372
        0.0000032298   0.0000206468  -0.0000198986  -0.0000026072  -0.0000083714
        0.0000025986  -0.0000199401   0.0000163700   0.0000043465  -0.0000062714
       -0.0000269053   0.0000205640  -0.0000132852  -0.0000128206   0.0000094168
       -0.0000259147  -0.0000060942   0.0000014190   0.0000126844   0.0000046068
       -0.0000051892  -0.0000764389   0.0000271981   0.0000131350   0.0000426435
        0.0001251809   0.0005422876
       -0.0038557972   0.0020644929  -0.0005746088   0.0565361638   0.0376015163
        0.0124406855   0.0796987184  -0.1910316319  -0.0477108626   0.0014188381
        0.5760425944   0.1566711286  -0.0520725653  -0.2516556253  -0.0706588154
       -0.0554651439  -0.0068437861  -0.0030189880   0.0091081155  -0.0377954778
       -0.0117909507  -0.0048930361   0.0017158918  -0.0006078732  -0.0001408145
        0.0002802641  -0.0000074539  -0.0028945120   0.0000630012   0.0002381173
        0.0005593439   0.0004247410   0.0001655274   0.0033237766  -0.0001220484
       -0.0000395561  -0.0008924156  -0.0037186854  -0.0012223302   0.0091242766
        0.0044554533   0.0005192027   0.0111123705  -0.0506109696  -0.0161683600
       -0.0033189562   0.0001368249   0.0006023807   0.0002477799  -0.0000169346
       -0.0001463356   0.0001066279   0.0000035767  -0.0003626535  -0.0010567067
       -0.0000462875   0.0000703377   0.0013347043   0.0005863566  -0.0002876778
       -0.0009715769   0.0004306560   0.0000230615   0.0009758234   0.0004454352
       -0.0005442936   0.0001316243  -0.0001591445   0.0000735509  -0.0000246068