$hessian                                                                        
        0.0551937816  -0.0212184103   0.0516929269  -0.0609297006   0.0137334441
       -0.0340787464  -0.0006037250   0.0133865169  -0.0353457089   0.0049126339
        0.0005626804   0.0003389145   0.0000528688   0.0001745524   0.0004360077
        0.0005063271  -0.0000844912   0.0001418588  -0.0001302658   0.0000424090
        0.0000029306   0.0005855581   0.0001215518   0.0001247343  -0.0028241924
       -0.0014131957  -0.0018438129   0.0009981305   0.0017852505   0.0016863951
        0.0009056093  -0.0004021354  -0.0000953475  -0.0002021520   0.0003071670
        0.0001356199   0.0001065887  -0.0000780429   0.0000702747  -0.0000619241
       -0.0000358538   0.0000043958   0.0000411566   0.0000766328  -0.0000321166
       -0.0000541338   0.0001247778   0.0000207866   0.0013444330  -0.0005000998
       -0.0010447011  -0.0002553898   0.0002764553   0.0006897997  -0.0007224452
       -0.0001158904   0.0001215276   0.0001842644   0.0006868609  -0.0011657077
        0.0003642852  -0.0006053860   0.0000376836  -0.0010500953  -0.0002456843
       -0.0014247598  -0.0011888127   0.0002784094   0.0009705178   0.0036509480
       -0.0045673087   0.0179980810  -0.0006268515  -0.0019490775  -0.0003469683
        0.0002242781   0.0003021365   0.0002990921   0.0000018084   0.0000699794
        0.0000056681   0.0000402552   0.0000159399  -0.0000279023   0.0000584991
       -0.0001584074  -0.0000821726  -0.0001298338  -0.0002073839  -0.0000069736
       -0.0000314546   0.0000195146  -0.0000370351  -0.0000335267   0.0000049655
       -0.0000359912  -0.0000340410  -0.0000021287  -0.0000046365   0.0000806847
       -0.0000223865   0.0003044629  -0.0002022616  -0.0001064648  -0.0000873250
       -0.0001713047  -0.0002568969   0.0005782276
       -0.0212184103   0.0763146072  -0.1263603476   0.0159065981  -0.0807603812
        0.1045058362   0.0080972839   0.0008498309   0.0233588675   0.0005130436
        0.0078194974  -0.0173359071   0.0006384966  -0.0004885591  -0.0009152528
        0.0003520021  -0.0013726848   0.0009839306  -0.0005856147   0.0000733441
       -0.0001939534   0.0002951008   0.0000259696   0.0014315297  -0.0025771641
       -0.0022187590  -0.0010015614   0.0013348802   0.0042976469  -0.0004490112
        0.0001821506  -0.0002952910   0.0003281393  -0.0002189358  -0.0002279183
       -0.0002213850   0.0000800132   0.0000811253  -0.0000160381   0.0000797831
        0.0001308166  -0.0000593286   0.0002373818  -0.0000067978   0.0000113734
       -0.0002697397   0.0003035322   0.0000175196   0.0017741992  -0.0020024331
       -0.0005814327  -0.0002796484   0.0007668661   0.0007134296  -0.0008615802
        0.0002622877  -0.0001345254  -0.0003866060   0.0016625545  -0.0009414391
        0.0004564471  -0.0006647897   0.0000349684  -0.0013287876   0.0001852331
       -0.0013757450  -0.0011621470   0.0008122156   0.0006856448  -0.0009648698
        0.0007787389   0.0166926177  -0.0001217572  -0.0070083517   0.0008381368
        0.0000334238   0.0000325527  -0.0004014969  -0.0000115542  -0.0001691190
        0.0000293718   0.0000259038   0.0001545720  -0.0002304384   0.0000232239
       -0.0001317933  -0.0000637034  -0.0000303340   0.0003400073  -0.0000389619
       -0.0000428076   0.0000293524  -0.0000175865   0.0000182299   0.0000074897
       -0.0000205391   0.0000231439  -0.0000266946   0.0000178108   0.0000507054
        0.0000200918   0.0003478453  -0.0001810454  -0.0000699099  -0.0000514540
        0.0001189913   0.0004951505   0.0004130861
        0.0516929269  -0.1263603476   0.4892378390  -0.0422444187   0.1076756084
       -0.4488223259  -0.0111260918   0.0103429405  -0.0092092837  -0.0010994846
        0.0041610444  -0.0173806896   0.0036891430  -0.0010936040  -0.0014895500
       -0.0001026415  -0.0019411942   0.0010150440  -0.0007804031   0.0005437489
        0.0001991595   0.0004859853  -0.0001890026   0.0014893714  -0.0052837830
       -0.0022975405  -0.0031419885   0.0014259339  -0.0001346824   0.0028470158
       -0.0023474943   0.0016423131  -0.0013142747   0.0005003411  -0.0003395903
        0.0005906730  -0.0005021300   0.0001545044  -0.0001268981   0.0002101175
        0.0000083591   0.0000213264  -0.0002776881  -0.0000598813   0.0000719653
        0.0007613348  -0.0001118875   0.0000941110  -0.0041257257   0.0010498127
        0.0007939655   0.0006917569  -0.0007099433  -0.0012769306   0.0021557685
        0.0005284116   0.0005179894   0.0010779300  -0.0009221305   0.0006654204
       -0.0005541345   0.0003821145   0.0001038351   0.0011257723   0.0007433441
        0.0011166008   0.0024886063  -0.0019376947  -0.0012107045   0.0009860885
        0.0057571350  -0.0105015148  -0.0000181384   0.0036828987  -0.0015448133
        0.0004657884   0.0007130911  -0.0005598199  -0.0000156250  -0.0005582435
       -0.0002200974   0.0000656057   0.0000891546  -0.0004450623   0.0001765707
       -0.0003274459  -0.0002199322  -0.0000095930  -0.0001792005  -0.0002794951
        0.0000805441  -0.0000883496   0.0000513938   0.0000627975  -0.0000510476
        0.0000011441   0.0000670696   0.0000153667  -0.0000381512  -0.0000072059
        0.0000218811  -0.0003131046   0.0004099676   0.0002278684  -0.0000122555
       -0.0001254909  -0.0004378111  -0.0007099625
       -0.0609297006   0.0159065981  -0.0422444187   0.6043043787  -0.1553686539
        0.0862770066  -0.3646177241   0.1824648554  -0.0756200007  -0.0449548218
        0.0069186256   0.0025713234   0.0055093125  -0.0100761459  -0.0064812500
       -0.0038467923  -0.0017982376  -0.0021420298  -0.0001169296   0.0002096987
        0.0003315912  -0.0048481256   0.0010666492  -0.0000649534   0.0012594367
        0.0182916017   0.0137914413   0.0017574418  -0.0118167228  -0.0011789466
       -0.0052951310   0.0030143284  -0.0016333418   0.0010725972  -0.0013022647
        0.0004765919  -0.0009396733   0.0002920170  -0.0003907117   0.0004716531
        0.0002317241  -0.0000845656  -0.0005160719  -0.0001959562   0.0001231799
        0.0012480624  -0.0008874567   0.0000962682  -0.0084602624   0.0028671300
        0.0044759349   0.0013481643  -0.0017632961  -0.0041234952   0.0043318624
        0.0010448256   0.0002165460  -0.0020447388  -0.0012174011   0.0012006700
       -0.0018448601   0.0023259452   0.0002574204   0.0046425750   0.0009034318
        0.0010778772  -0.0004782681  -0.0136745320   0.0002185857  -0.1074442165
       -0.0457299266   0.0187641352  -0.0204717005   0.0069209181   0.0061550394
       -0.0011101902  -0.0017857580  -0.0010661171  -0.0000688266  -0.0011136785
       -0.0007827815  -0.0002492160  -0.0001822237   0.0000260675  -0.0003721455
        0.0009606790   0.0005327523   0.0002093516   0.0004207429  -0.0000666376
        0.0001754944  -0.0001211764   0.0001471372   0.0001659895  -0.0000775365
        0.0000885736   0.0002010727   0.0000134669  -0.0000182597  -0.0000960888
        0.0001748384  -0.0003167434   0.0007902011   0.0006703864  -0.0000057436
        0.0012178904   0.0024125043  -0.0006081454
        0.0137334441  -0.0807603812   0.1076756084  -0.1553686539   0.4683485968
       -0.1016074991   0.1844781072  -0.1662931207   0.0451863280   0.0053310823
       -0.1157212975  -0.0514293144  -0.0085398978  -0.0144821730  -0.0100010972
       -0.0042476697   0.0039437011  -0.0020425309   0.0025638421  -0.0010524003
        0.0000095117   0.0000562706  -0.0005602875  -0.0031796298   0.0232746093
       -0.0026392841  -0.0018340676  -0.0091218667  -0.0149045788  -0.0017048955
        0.0015036875  -0.0015324720   0.0004081139   0.0003136023   0.0006752749
        0.0000003477   0.0002605185  -0.0003462962   0.0002064659  -0.0003872556
       -0.0003553563   0.0002425595  -0.0005432339  -0.0000407015  -0.0000525993
        0.0001241767  -0.0008486745  -0.0001835509  -0.0029069370   0.0059268682
        0.0004505247   0.0005095710  -0.0020050076  -0.0010612099   0.0016212823
       -0.0011282805   0.0003095008   0.0017887057  -0.0049021493  -0.0007302164
       -0.0010802356   0.0015985701  -0.0001956484   0.0032449568  -0.0053457229
        0.0000147777  -0.0155874569  -0.0143524040   0.0044036915  -0.0433366622
       -0.0775688710   0.0139387175   0.0026201098   0.0252546106  -0.0016980476
        0.0007544031   0.0007120772   0.0014547402   0.0002679746   0.0003607159
       -0.0000355133  -0.0000929890  -0.0001028727   0.0006733117  -0.0002590746
        0.0003009313   0.0002225802   0.0001333991  -0.0007028423   0.0003580861
        0.0000444823  -0.0000387448   0.0000032527  -0.0000977056  -0.0000124405
        0.0000536855  -0.0001376256   0.0000707852  -0.0000460012   0.0001195396
       -0.0000995946  -0.0001337055  -0.0006292720  -0.0004761436   0.0002707013
       -0.0004072288  -0.0009200339   0.0000530220
       -0.0340787464   0.1045058362  -0.4488223259   0.0862770066  -0.1016074991
        0.6470943431  -0.0818469278   0.0480207319  -0.0790504597   0.0040686177
       -0.0502242557  -0.0737707042  -0.0064575362  -0.0098849195  -0.0082921611
       -0.0032628552  -0.0013205535   0.0045110071   0.0014906190  -0.0006222257
       -0.0006062235  -0.0004129462  -0.0031107116   0.0035967481   0.0141690872
       -0.0004572366   0.0011068895  -0.0057627894   0.0003676178  -0.0087934804
        0.0033345501  -0.0028007760   0.0023286419  -0.0008243803   0.0005440324
       -0.0010494813   0.0008098120  -0.0001908678   0.0001579791  -0.0003456967
       -0.0000876797  -0.0000206176   0.0003056499   0.0000592228  -0.0001950065
       -0.0012847258   0.0001191236  -0.0002725460   0.0044774384  -0.0004372602
        0.0004291000  -0.0010459834   0.0005775441   0.0007940941  -0.0024416371
       -0.0007713597  -0.0008961140   0.0005845667  -0.0001100199   0.0047023018
        0.0003407542  -0.0001941472  -0.0003886978   0.0001421754  -0.0007543465
        0.0057355624  -0.0006652233   0.0046725756  -0.0009228735   0.0197072414
        0.0123378978  -0.0449021234   0.0040773994  -0.0012935118   0.0004147979
        0.0001576149   0.0011216597  -0.0008965875   0.0001540862   0.0001391850
        0.0003043186   0.0000451197   0.0009049918  -0.0007395065  -0.0002867424
        0.0002867386   0.0003631617   0.0000058143   0.0004485222   0.0004459127
       -0.0001008136   0.0001055705  -0.0000741219  -0.0000667827   0.0000865002
        0.0000174769  -0.0000866303   0.0000046763   0.0000403349  -0.0003458670
       -0.0000919643  -0.0012107999  -0.0002875243  -0.0002849763   0.0003087457
       -0.0005437450  -0.0000581152  -0.0014475848
       -0.0006037250   0.0080972839  -0.0111260918  -0.3646177241   0.1844781072
       -0.0818469278   0.3914156977  -0.2087510349   0.0949979698  -0.0059206340
        0.0012974193  -0.0019767297  -0.0017596843  -0.0013937476  -0.0008715031
        0.0002780811  -0.0001996228   0.0002451874   0.0003069235  -0.0003598542
       -0.0002393478  -0.0008523620  -0.0003253460   0.0002927317   0.0016914179
        0.0029446712   0.0007716071   0.0001978628   0.0019111689  -0.0006683201
        0.0025876547  -0.0016450333   0.0008134080  -0.0004533753   0.0005972571
       -0.0002783617   0.0004325111  -0.0001850425   0.0002124363  -0.0002602164
       -0.0001442336   0.0000464139   0.0002754922   0.0001136187  -0.0000988991
       -0.0005986073   0.0003335554   0.0000439150   0.0043395534  -0.0016061234
       -0.0024438290  -0.0007253824   0.0008581792   0.0021576227  -0.0027630334
       -0.0005383366  -0.0001026699  -0.0017180410   0.0025176295   0.0014375996
        0.0005060186  -0.0004411570  -0.0000826490  -0.0001630461   0.0005932017
        0.0004561570   0.0000081524   0.0029400709  -0.0001483354  -0.0160362543
        0.0164239076  -0.0026877124  -0.0059847029  -0.0085126578   0.0007405645
        0.0009833140   0.0008512854   0.0003302058   0.0000944661   0.0002645959
        0.0002101187   0.0000824141   0.0001518645  -0.0000138180  -0.0000571925
        0.0003234561   0.0001613298  -0.0000313997  -0.0002521537   0.0001040134
       -0.0000564682   0.0000631944  -0.0000665482  -0.0000909331   0.0000555426
       -0.0000417433  -0.0000945683  -0.0000220435   0.0000174655  -0.0001004570
       -0.0000499085  -0.0001253078  -0.0001906425  -0.0001791978   0.0000550951
       -0.0001211097  -0.0002105165  -0.0002750471
        0.0133865169   0.0008498309   0.0103429405   0.1824648554  -0.1662931207
        0.0480207319  -0.2087510349   0.1657321498  -0.0595316052   0.0206035421
       -0.0031400570   0.0052475924   0.0015996774   0.0007723473   0.0007420193
        0.0008494727   0.0005212985   0.0000980723  -0.0005816383   0.0003139310
        0.0000972609   0.0024724532   0.0007278307  -0.0001338996  -0.0036636702
       -0.0080408793  -0.0047700582   0.0015068873   0.0023981701   0.0009763584
       -0.0014363824   0.0009783597  -0.0004509467   0.0001183484  -0.0003690943
        0.0001746625  -0.0002418777   0.0001677916  -0.0001312636   0.0002281621
        0.0001796414  -0.0000949635   0.0000108663  -0.0000392433   0.0000462620
        0.0001945541   0.0001104961   0.0000673901  -0.0010306852  -0.0011353874
        0.0007646878   0.0001133678   0.0002651524  -0.0005225364   0.0005297054
        0.0005774368   0.0000139320  -0.0000466367   0.0007238196   0.0001184117
       -0.0001191374  -0.0001062971   0.0001280763  -0.0000443578   0.0009743063
        0.0000937377  -0.0003947476  -0.0011993010  -0.0002531003  -0.0065702945
        0.0072441042  -0.0018674464  -0.0020589564  -0.0031837940   0.0008677085
        0.0002843457   0.0001333839   0.0004464293  -0.0000676735  -0.0001348340
       -0.0000956690   0.0000352135  -0.0001936557   0.0000088138   0.0001886211
       -0.0006791179  -0.0004049221  -0.0000465972   0.0002533204  -0.0001705086
        0.0000070901  -0.0000075966   0.0000244588   0.0000553436  -0.0000158025
        0.0000049745   0.0000761165  -0.0000061986   0.0000061533  -0.0000611785
        0.0000414585   0.0000065165   0.0001291316   0.0001551520  -0.0000558123
        0.0002605970   0.0014243979   0.0001855415
       -0.0353457089   0.0233588675  -0.0092092837  -0.0756200007   0.0451863280
       -0.0790504597   0.0949979698  -0.0595316052   0.0809555181   0.0087756825
       -0.0054282348   0.0051601419  -0.0001278344  -0.0003882905   0.0004570179
        0.0005073525   0.0004626649  -0.0001835123  -0.0000288328  -0.0000109328
       -0.0000176021   0.0007074292   0.0001224896  -0.0005130526  -0.0002786768
       -0.0035065145  -0.0017235093   0.0004119985   0.0004623026   0.0008433374
        0.0000095964   0.0000679976  -0.0001837956   0.0000242904   0.0000176694
        0.0001326666   0.0000134746  -0.0000182620   0.0000313180   0.0000014552
       -0.0000372137   0.0000150136   0.0000603659  -0.0000036209   0.0000443114
        0.0000618353   0.0000733491   0.0000700511   0.0002161567  -0.0003085601
       -0.0008952149   0.0001211716   0.0001340280   0.0005162613  -0.0001017033
       -0.0000137468   0.0001096574  -0.0000064679   0.0003273555  -0.0002273750
        0.0000965456  -0.0000956368  -0.0000069030  -0.0001274527  -0.0001310031
       -0.0003684043  -0.0000386795   0.0002401100   0.0004667568   0.0037071381
       -0.0009096224   0.0042174949   0.0012012764  -0.0000717840   0.0000332059
        0.0005600556   0.0003411835  -0.0001606325   0.0000166459   0.0000660916
        0.0000468433   0.0000206182  -0.0000742384   0.0000679372   0.0000544584
       -0.0001426035  -0.0001615216   0.0000138929  -0.0000739057  -0.0001107940
        0.0000131880  -0.0000122169  -0.0000052734  -0.0000072799  -0.0000031567
       -0.0000111394  -0.0000198880  -0.0000060545   0.0000050938   0.0000229040
        0.0000099825   0.0000772586  -0.0000401336  -0.0000446908  -0.0000006196
        0.0001271569  -0.0000585255  -0.0004207924
        0.0049126339   0.0005130436  -0.0010994846  -0.0449548218   0.0053310823
        0.0040686177  -0.0059206340   0.0206035421   0.0087756825   0.6549193238
        0.0084454283   0.0546848448  -0.2450290512  -0.0622239240  -0.0614546940
        0.0371958382  -0.0622128193  -0.0390286370  -0.0609431912  -0.0050318298
       -0.0071617629   0.0062359353   0.0684435450   0.0459038414  -0.2746255021
        0.0507457299   0.0142880783  -0.0440905245   0.0002098448  -0.0052337225
       -0.0020946904  -0.0033610212   0.0007249139   0.0006797177  -0.0006490369
        0.0011039442  -0.0003465189   0.0002051091   0.0002094744   0.0004276698
        0.0001349607  -0.0001293036  -0.0000036359  -0.0002606528   0.0001637968
       -0.0014774880   0.0008424975  -0.0005904601   0.0012461387  -0.0001179944
       -0.0012839093  -0.0000549861   0.0002683481   0.0007605691  -0.0005971453
       -0.0001963140   0.0000613571   0.0004123917  -0.0001957528   0.0007685240
       -0.0000104952   0.0002546953  -0.0001804915   0.0005934005  -0.0008352814
        0.0006115995  -0.0040441024  -0.0027211655   0.0010832433   0.0032867204
       -0.0105426651  -0.0073936969   0.0008416501   0.0024576988   0.0008094536
       -0.0267106723  -0.0119181026  -0.0099372772   0.0009748199   0.0006814521
       -0.0000616569  -0.0006936551  -0.0001135073  -0.0001150514   0.0006074763
        0.0008877729   0.0001696334   0.0000504726   0.0004078461  -0.0002058461
       -0.0000217466   0.0000435761  -0.0000050329   0.0000323781  -0.0000185346
       -0.0000519378  -0.0000880591   0.0000522221  -0.0000211056  -0.0000379485
       -0.0000145760  -0.0001357594  -0.0003095346  -0.0001700862   0.0000654382
       -0.0003621638   0.0000548692  -0.0001631825
        0.0005626804   0.0078194974   0.0041610444   0.0069186256  -0.1157212975
       -0.0502242557   0.0012974193  -0.0031400570  -0.0054282348   0.0084454283
        0.3716772582   0.1845171251  -0.1098346644  -0.1185774789  -0.0611710865
       -0.0118640976  -0.0349087221  -0.0268080306  -0.0080770533   0.0002623394
        0.0026521577   0.0248006015  -0.0154454779  -0.0114979215   0.0898422181
       -0.0977097268  -0.0272886620  -0.0095162577   0.0106840065   0.0039924115
       -0.0018078380  -0.0013159227   0.0006968209   0.0002326948   0.0000079438
        0.0000639120  -0.0001020115   0.0000483161  -0.0000115984   0.0000258934
        0.0001102914  -0.0000703375  -0.0001512671  -0.0001544628   0.0001117976
       -0.0008473988   0.0004549236  -0.0003819234   0.0008926548  -0.0008461904
       -0.0001222181  -0.0001256369   0.0003059853   0.0001145880  -0.0003354579
        0.0001098556  -0.0000720413   0.0002805258   0.0008330249  -0.0002740920
       -0.0000487936   0.0001046348   0.0001008358   0.0004753559  -0.0004732356
        0.0004672154  -0.0030595904  -0.0014070512  -0.0002470849   0.0040259839
       -0.0020971086  -0.0051685021   0.0004994684  -0.0026606678  -0.0012443080
        0.0060706221   0.0047892867   0.0039264692   0.0009300512  -0.0017557535
       -0.0060363416  -0.0003792439   0.0005652017   0.0007698292   0.0010415536
       -0.0017232305  -0.0055225761   0.0001712405  -0.0001810220   0.0000523734
       -0.0000282215   0.0000254707   0.0000147136  -0.0000198311  -0.0000017753
       -0.0000168431  -0.0000555183   0.0000202556  -0.0000084460  -0.0000235825
        0.0000401794  -0.0000191849  -0.0002187063  -0.0001007350   0.0001511634
       -0.0000178470   0.0003614442  -0.0001787686
        0.0003389145  -0.0173359071  -0.0173806896   0.0025713234  -0.0514293144
       -0.0737707042  -0.0019767297   0.0052475924   0.0051601419   0.0546848448
        0.1845171251   0.2430774274  -0.0912803423  -0.0566916147  -0.0881166780
       -0.0056464894  -0.0313627768  -0.0186724089  -0.0103423148   0.0033203981
       -0.0034791185   0.0171278680  -0.0071293567  -0.0014524712   0.0435810327
       -0.0296500112  -0.0611158809  -0.0108473707   0.0047464136   0.0029391101
       -0.0028819184  -0.0014045904   0.0005561206   0.0003173046  -0.0001196898
        0.0002760272  -0.0001929464  -0.0000674658   0.0000165221   0.0000567327
        0.0000513251  -0.0000315911  -0.0002193426  -0.0001389750   0.0000773790
       -0.0005908081   0.0003801830  -0.0003423024   0.0000962333   0.0001832669
       -0.0002736009   0.0000202139  -0.0000186421   0.0000932048   0.0000438808
       -0.0000677006   0.0000682322  -0.0002142919  -0.0000192707  -0.0005386048
        0.0000073882   0.0001896908   0.0000026517   0.0001442197   0.0003013356
       -0.0004819318   0.0011655806   0.0007106679   0.0002814424   0.0011593304
        0.0047767716   0.0038887781   0.0008486824   0.0002728395  -0.0004121441
        0.0018156349   0.0019874352   0.0021822876   0.0000158876  -0.0060917470
        0.0036562955  -0.0002797016   0.0004779930   0.0003051786   0.0003433675
       -0.0056948294   0.0033108231   0.0000181210  -0.0001364698   0.0000741650
        0.0000116370  -0.0000152676  -0.0000097054  -0.0000163605  -0.0000109571
       -0.0000180236  -0.0000675069   0.0000298501  -0.0000195125   0.0000410165
        0.0000318676   0.0001646897   0.0000505713   0.0000664932  -0.0001378047
        0.0000963374   0.0000933376   0.0001226955
        0.0000528688   0.0006384966   0.0036891430   0.0055093125  -0.0085398978
       -0.0064575362  -0.0017596843   0.0015996774  -0.0001278344  -0.2450290512
       -0.1098346644  -0.0912803423   0.6606697445  -0.0432402524   0.0228342313
       -0.0975388753   0.0629172392   0.0376664049   0.0107701401   0.0273544214
        0.0181918857  -0.0053883684  -0.0189034270  -0.0122866474  -0.0591045052
        0.0088791554   0.0018400282  -0.0036615165   0.0024322833  -0.0010210777
       -0.0017560191  -0.0003716299  -0.0000734460  -0.0001704588  -0.0001619216
       -0.0001674765   0.0001393060  -0.0000938658  -0.0000406207  -0.0000743469
       -0.0000859627   0.0000767683  -0.0001895087   0.0000405883  -0.0000232520
       -0.0000048804   0.0001518196  -0.0002197609  -0.0005178051   0.0005417444
        0.0003059545   0.0000419625  -0.0002373246  -0.0002780201   0.0002756795
       -0.0000102297   0.0000602854   0.0000653985  -0.0001275225  -0.0000553140
        0.0000034369  -0.0000087259  -0.0000244221  -0.0000137735   0.0000342774
       -0.0000117329   0.0003646781  -0.0004001242  -0.0002292589   0.0004316523
        0.0008710904   0.0004546298  -0.0002835979   0.0004782222   0.0001853305
       -0.2606612471   0.0924856051   0.0387735885   0.0022192175  -0.0187460167
       -0.0119797540  -0.0048094649   0.0027031469   0.0005018744   0.0006385019
       -0.0004919578  -0.0003190320  -0.0002362024   0.0000042568  -0.0000164669
        0.0000017444  -0.0000062972  -0.0000104739   0.0000011971   0.0000161988
        0.0000152651  -0.0000258960   0.0000234422  -0.0000238488  -0.0000021251
        0.0000204367  -0.0000051190   0.0000760283   0.0000647275   0.0000296270
       -0.0000335423   0.0000029908   0.0000264200
        0.0001745524  -0.0004885591  -0.0010936040  -0.0100761459  -0.0144821730
       -0.0098849195  -0.0013937476   0.0007723473  -0.0003882905  -0.0622239240
       -0.1185774789  -0.0566916147  -0.0432402524   0.4917468049   0.2445957404
       -0.0034110419  -0.2475773735  -0.1309222565   0.0756859457  -0.0171389735
       -0.0065810200  -0.0190220692  -0.0367554935  -0.0218650848  -0.0341078629
        0.0374864262   0.0234436091   0.0033135744   0.0009383457  -0.0044231491
        0.0004349607  -0.0000775336  -0.0005300635  -0.0005758447   0.0002511605
       -0.0004579513   0.0003914612  -0.0001546743   0.0000050128  -0.0002550723
       -0.0001562957   0.0001222502  -0.0000419053   0.0002625348  -0.0000885679
        0.0002607232  -0.0001529608   0.0001384932   0.0001945586  -0.0000388442
       -0.0000584813  -0.0000765304  -0.0000080107   0.0000586568  -0.0001126460
       -0.0000396030   0.0000034908  -0.0000211049   0.0001596753   0.0004164856
        0.0001246020  -0.0000770372  -0.0000761088  -0.0001081855  -0.0003062275
        0.0003121302  -0.0010843686  -0.0008619616   0.0003370403   0.0002141070
       -0.0043243840  -0.0029047752   0.0002084507  -0.0001084178   0.0002014291
        0.0922339319  -0.0780157559  -0.0204340082   0.0003727120  -0.0140795163
       -0.0094247074   0.0027913432   0.0020179256  -0.0036450864  -0.0003602707
       -0.0003802869   0.0000146653  -0.0001202821   0.0000490709   0.0000034492
       -0.0000042143  -0.0000059214  -0.0000115651  -0.0000009909   0.0000181081
        0.0000456743   0.0000185216   0.0000059123   0.0000083730  -0.0000143388
        0.0000170501  -0.0001064386  -0.0000697696  -0.0000144039  -0.0000188420
       -0.0000988764   0.0000965246  -0.0000999654
        0.0004360077  -0.0009152528  -0.0014895500  -0.0064812500  -0.0100010972
       -0.0082921611  -0.0008715031   0.0007420193   0.0004570179  -0.0614546940
       -0.0611710865  -0.0881166780   0.0228342313   0.2445957404   0.2758741913
       -0.0069862461  -0.1250183578  -0.1277179558   0.0514318645  -0.0100745036
       -0.0006290494  -0.0128819278  -0.0234653440  -0.0203770917  -0.0257996335
        0.0273091530   0.0145823078  -0.0001111245  -0.0042068029   0.0023305421
        0.0007559827   0.0003013129   0.0006092607  -0.0002835139   0.0002487417
       -0.0003598401   0.0003021296  -0.0001703834  -0.0000605104  -0.0001911727
       -0.0001237928   0.0000910484  -0.0000235072   0.0000888361  -0.0002199814
        0.0001647114  -0.0001125669   0.0000784381   0.0001239067   0.0000528177
       -0.0001945563  -0.0000318319  -0.0000107105   0.0000731832  -0.0000990384
       -0.0000463567   0.0000454327   0.0000444930  -0.0001811070   0.0001042510
        0.0000845875  -0.0002871629  -0.0000979958  -0.0003346930  -0.0002531732
        0.0002226375  -0.0007624665  -0.0003245577  -0.0003310466   0.0010966770
       -0.0023230204  -0.0006904262  -0.0008574838  -0.0000528690   0.0007056732
        0.0391718131  -0.0201066521  -0.0443102107   0.0004373623  -0.0109959831
       -0.0070691265   0.0007176989  -0.0034086344   0.0050385159  -0.0001620270
       -0.0001184271  -0.0003092368  -0.0001598036   0.0000459198   0.0000057767
        0.0000037966  -0.0000258726  -0.0000481328  -0.0000050255   0.0000180628
        0.0000199730   0.0000032986  -0.0000070025  -0.0000158033  -0.0000230156
       -0.0000344682  -0.0000368574  -0.0000211631  -0.0000190692   0.0001714710
       -0.0000674397   0.0000516506  -0.0000435105
        0.0005063271   0.0003520021  -0.0001026415  -0.0038467923  -0.0042476697
       -0.0032628552   0.0002780811   0.0008494727   0.0005073525   0.0371958382
       -0.0118640976  -0.0056464894  -0.0975388753  -0.0034110419  -0.0069862461
        0.6575187772  -0.0011652883   0.0485147889  -0.2900886552   0.1069115538
        0.0473943726  -0.0650484404  -0.0367275165  -0.0279024921  -0.0184660026
        0.0294022674   0.0189383552  -0.0025659023  -0.0027011102  -0.0026025926
        0.0004620530  -0.0001930044  -0.0001984403  -0.0005682780   0.0001062362
       -0.0003426678   0.0004137079  -0.0001903162   0.0000154916  -0.0002376882
       -0.0002283979   0.0001626323  -0.0000751256   0.0002555287  -0.0001905712
        0.0004277150  -0.0000248142   0.0000570672   0.0004712892   0.0003896017
       -0.0003450754  -0.0000616466  -0.0000803690   0.0002101767  -0.0002600139
       -0.0002291717   0.0000015033  -0.0001001283  -0.0002199227   0.0001596689
        0.0000301794  -0.0000048560  -0.0001665359  -0.0001009075  -0.0001619106
        0.0000490434  -0.0000360321   0.0001383910  -0.0000808574   0.0003107019
       -0.0011441497  -0.0002409147  -0.0000547041   0.0014332990   0.0007321160
       -0.0044502568   0.0220549965   0.0139484296  -0.2054509005  -0.1007385519
       -0.0813464942  -0.0052602517   0.0037796230   0.0011500522  -0.0030096575
       -0.0023462431  -0.0023025853  -0.0003090250   0.0000131390  -0.0000663153
       -0.0000307692   0.0000052519  -0.0000395190  -0.0000270678   0.0000312118
        0.0000276352  -0.0000216919  -0.0000071642  -0.0000173214  -0.0000091976
       -0.0000183653  -0.0000389873   0.0000205411  -0.0000144897   0.0000397218
       -0.0000172008  -0.0000041237  -0.0000288052
       -0.0000844912  -0.0013726848  -0.0019411942  -0.0017982376   0.0039437011
       -0.0013205535  -0.0001996228   0.0005212985   0.0004626649  -0.0622128193
       -0.0349087221  -0.0313627768   0.0629172392  -0.2475773735  -0.1250183578
       -0.0011652883   0.4955159547   0.2496796623   0.0413439761  -0.1078888285
       -0.0343603034   0.0109644317   0.0405214933   0.0257530565   0.0271860005
       -0.0301980975  -0.0144652100   0.0003930376   0.0011030652   0.0020110234
       -0.0001579814   0.0001671842  -0.0001110241   0.0003704953  -0.0001815081
        0.0003119517  -0.0003191339   0.0001409012  -0.0000077584   0.0002275852
        0.0001356033  -0.0001186218   0.0000861065  -0.0001553278   0.0001231226
       -0.0001339362   0.0001106632  -0.0000502891  -0.0002298783  -0.0003547620
        0.0000869651   0.0000355567   0.0001303250  -0.0000083009   0.0001433452
        0.0001795474   0.0000376489   0.0001306917   0.0000852743  -0.0001455296
       -0.0000802232   0.0000910353   0.0000926567   0.0002252498   0.0001142845
       -0.0000440185  -0.0001439969  -0.0003292252   0.0003155927  -0.0001017540
        0.0005368787  -0.0000216778   0.0001823981  -0.0007884962  -0.0003801261
        0.0032769269  -0.0093700528  -0.0062968539  -0.1007343148  -0.1021232382
       -0.0538019114   0.0224856001  -0.0096618207  -0.0048967143  -0.0026592148
        0.0016658896  -0.0044722596   0.0000577251  -0.0000394808  -0.0000609785
        0.0000043793   0.0000000885   0.0000060741   0.0000105346  -0.0000219450
       -0.0000391782   0.0000084546  -0.0000053959   0.0000000521   0.0000008811
        0.0000105339   0.0000476780  -0.0000318114  -0.0000155569  -0.0000410431
        0.0000020888   0.0000187941   0.0000365321
        0.0001418588   0.0009839306   0.0010150440  -0.0021420298  -0.0020425309