62
 energy: -95.276851405081 gnorm: 0.000026391304 xtb: 6.7.1 (edcfbbe)
C           -7.84602435165273       -2.91031062698731       -1.02602926596436
C           -7.86137790740292       -1.62990287437064       -1.55482276625248
C           -6.87771799476838       -0.72075978693188       -1.21018408542118
C           -5.87305106095897       -1.08873252957738       -0.31991128090235
N           -4.87502189694506       -0.16768747928459        0.03738149657347
C           -5.08705914772031        1.11194571073366        0.50984846452810
C           -6.27982693046433        1.76571696804465        0.78628178358427
C           -6.21046491017200        3.05207161115110        1.28650309650049
C           -4.98694638880469        3.67845471198906        1.51676551986781
C           -3.79675115029182        3.02551413109958        1.26388496914514
C           -3.84031895046336        1.73138663932782        0.76118581251064
C           -2.83040431817693        0.77060645557554        0.41260380125109
C           -1.44385970059348        0.79976824999631        0.42588421933824
C           -0.73561740632552       -0.31902852606910        0.00629288760232
C            0.73629878956903       -0.31749056995241        0.01459729777446
C            1.43751234146636       -1.44591900658182        0.46323334394261
C            2.81623577236094       -1.49332946936452        0.48615045238906
C            3.51480114594109       -0.38305036708749        0.03243139473066
C            2.82805218190052        0.77349384397121       -0.40347346119531
C            1.44145966603936        0.80092215290042       -0.41116838847656
C            3.83522152908744        1.73391520383624       -0.76076608352121
C            3.78764845242104        3.02628536881919       -1.26758030137841
C            4.97581350617358        3.67918669604444       -1.52989257411813
C            6.20111514912687        3.05435876304929       -1.30499476992456
C            6.27442244894119        1.76976254759068       -0.80081320449406
C            5.08384127163534        1.11615565820977       -0.51472576296363
N            4.87542708697926       -0.16194468207531       -0.03639064164196
C            5.87649668434706       -1.08219833675086        0.31435036629294
C            5.86089930065113       -2.36823566712173       -0.21785920542701
C            6.84656110006209       -3.27271939901552        0.13309823560950
C            7.85692918125928       -2.90154614723526        1.00521245652985
C            7.87620869270431       -1.62038428904692        1.53203891433201
C            6.88888965751571       -0.71234000055785        1.19503076055508
C           -1.43360448233950       -1.45033710386638       -0.44013041971463
C           -2.81213568916176       -1.49950011496579       -0.46868776613138
C           -3.51387584230612       -0.38802004351531       -0.02293956979652
C           -5.86162152585672       -2.37387748394372        0.21451391949442
C           -6.84350991285668       -3.27949824656075       -0.14406751855997
H           -8.61343604974224       -3.61839888867583       -1.30073474681031
H           -8.63875697084515       -1.33906672634352       -2.24606369354468
H           -6.87461781714084        0.27211320569227       -1.63527418698031
H           -7.23245451367064        1.28328932340272        0.62654329216650
H           -7.12527943505900        3.58275661642047        1.50764872496816
H           -4.97442914558077        4.68575658952071        1.90702646940136
H           -2.84875795538660        3.50566209305597        1.45681872334497
H           -0.92164906515142        1.67787112623588        0.77567351912533
H            0.87741376215143       -2.29606269729080        0.82467065894023
H            3.33214042856246       -2.36599456290860        0.85791562648402
H            0.91677112533947        1.67704198747357       -0.76220230558964
H            2.83813504254408        3.50508502577855       -1.45634208385002
H            4.96020827996285        4.68516087113905       -1.92344624182027
H            7.11421071780147        3.58482885419598       -1.53363062418315
H            7.22837752848649        1.28854355711204       -0.64547448523459
H            5.08250384344858       -2.64680594766385       -0.91272441629607
H            6.82936096235933       -4.26925244279659       -0.28331868096508
H            8.62744439538601       -3.60865125080472        1.27369666883211
H            8.65969364902941       -1.32802962769270        2.21569957714093
H            6.88914294999818        0.28119295252126        1.61857607957423
H           -0.87097693648064       -2.30119377146851       -0.79590639863778
H           -3.32543130300885       -2.37415775497914       -0.83935775471229
H           -5.08936089917809       -2.65092650486489        0.91679920388835
H           -6.82951042617577       -4.27541399687634        0.27393785628189
