$hessian                                                                        
        0.4954482998   0.1059462757   0.2343097713  -0.0804649627  -0.0354890548
       -0.0088916858   0.0195462169  -0.0141850544   0.0195754225  -0.0109000023
        0.0230041696  -0.0134988622  -0.0010932059  -0.0011161197   0.0003596957
        0.0000464498   0.0005563540  -0.0002104051   0.0000630757   0.0000066415
       -0.0000909086  -0.0000252511  -0.0000620321   0.0000543351   0.0000167708
        0.0000399959   0.0000078897   0.0000439299  -0.0000021323   0.0000262533
       -0.0000917503   0.0000501700   0.0000395833   0.0001652408   0.0000081539
        0.0000332105  -0.0001161921   0.0000845302   0.0000002592   0.0000357508
       -0.0000818348  -0.0000324152   0.0000159168   0.0000063095  -0.0000072296
        0.0000071725  -0.0000091034   0.0000034502  -0.0000068930   0.0000022730
        0.0000023330   0.0000166784  -0.0000015219   0.0000015297  -0.0000061961
        0.0000031654  -0.0000018038   0.0000058029   0.0000169682  -0.0000034628
        0.0000015396   0.0000003827  -0.0000035110  -0.0000034907   0.0000018066
       -0.0000049341  -0.0000012176  -0.0000016665  -0.0000050332  -0.0000014616
       -0.0000013285  -0.0000043756   0.0000001257  -0.0000035360  -0.0000019987
       -0.0000067356   0.0000059965  -0.0000068487  -0.0000240464  -0.0000070816
        0.0000022982   0.0000053373  -0.0000073572   0.0000023042  -0.0000023098
        0.0000011643   0.0000018015  -0.0000002831  -0.0000021567   0.0000021618
       -0.0000012549  -0.0000002382   0.0000021935  -0.0000003839   0.0000017596
        0.0000006977  -0.0000021712   0.0000012625  -0.0000009051   0.0000455562
       -0.0000041816   0.0000510465  -0.0000976919  -0.0000668795  -0.0000566720
        0.0001181335  -0.0000580018   0.0003555026  -0.0456165221  -0.0363084511
       -0.0207448299  -0.2037896075   0.0677766476  -0.1407060693  -0.1708135732
       -0.1220593311  -0.0510354745  -0.0013047219   0.0199110450  -0.0096695462
       -0.0002801257  -0.0047277805  -0.0040796167   0.0000022869  -0.0000806142
       -0.0000431995   0.0000130186  -0.0000032516  -0.0000091149   0.0000075287
       -0.0000016733  -0.0000182304   0.0000003731  -0.0000018650   0.0000029036
       -0.0000036082  -0.0000024814  -0.0000052705   0.0000024892  -0.0000049446
        0.0000033047  -0.0000057110   0.0000006786   0.0000011329   0.0000025431
       -0.0000041971  -0.0000045356   0.0000029438  -0.0000029121  -0.0000047144
       -0.0000019542  -0.0000063627  -0.0000045953  -0.0000018715  -0.0000041826
       -0.0000043983  -0.0000028984  -0.0000019799  -0.0000029155  -0.0000007068
       -0.0000026551   0.0000018357  -0.0000015714  -0.0000001319   0.0000043845
       -0.0000018428   0.0000012425   0.0000024185  -0.0000015941   0.0000010676
       -0.0000011144  -0.0000001784  -0.0000004409  -0.0000014289  -0.0000146522
       -0.0000027108   0.0000041404  -0.0000005980  -0.0000644645  -0.0000706612
       -0.0000246346  -0.0044123049  -0.0041898334  -0.0009013088   0.0013639559
       -0.0014352593
        0.1059462757   0.6094594568  -0.1217456756   0.0252290576  -0.2916216243
        0.1161143331  -0.0597550721  -0.0519545966  -0.0209162189   0.0226482575
       -0.0296414744   0.0274066387  -0.0008587509  -0.0005028597  -0.0014327923
        0.0000942568   0.0001320131  -0.0002768467  -0.0001002896  -0.0001585569
       -0.0000086985   0.0000186730   0.0001172462  -0.0000618450  -0.0001226022
        0.0000191395   0.0000225360   0.0000847255  -0.0001464457  -0.0000284488
        0.0000666582   0.0001983094   0.0000254760   0.0000151443  -0.0001073480
       -0.0000806774   0.0000370977   0.0000380603  -0.0000127200   0.0000386357
        0.0000483664   0.0000293461   0.0000113862   0.0000053746   0.0000288813
        0.0000047205  -0.0000295870   0.0000068716  -0.0000099674   0.0000019837
       -0.0000051049  -0.0000001826   0.0000049760  -0.0000000416   0.0000066025
       -0.0000008262  -0.0000014869   0.0000010256   0.0000072333   0.0000034024
       -0.0000091807  -0.0000006897  -0.0000010990   0.0000010760  -0.0000012706
        0.0000033123  -0.0000012566   0.0000045576   0.0000029647  -0.0000008004
       -0.0000000942   0.0000015919  -0.0000014747   0.0000005533   0.0000018597
        0.0000013997  -0.0000102089   0.0000048881  -0.0000037791   0.0000139328
       -0.0000064197   0.0000043297  -0.0000026349   0.0000001721  -0.0000009580
        0.0000019502  -0.0000033225   0.0000006796  -0.0000004524  -0.0000044957
       -0.0000000006   0.0000005581  -0.0000029944  -0.0000001919  -0.0000007938
       -0.0000011825  -0.0000034950   0.0000010083  -0.0000024995  -0.0000867609
        0.0000116974  -0.0001268928   0.0000365772   0.0000405297   0.0001176278
        0.0004937790  -0.0001195250   0.0003679113   0.0089836785   0.0466299069
       -0.0120199591   0.0072013155  -0.1076711669   0.0290042786  -0.1221318814
       -0.1536687443  -0.0405910221   0.0017478787  -0.0090985929   0.0047111837
       -0.0043304018  -0.0009383624   0.0004830780  -0.0001468947  -0.0000290905
        0.0000730909  -0.0000084614  -0.0000113897  -0.0000147558  -0.0000029842
       -0.0000205097   0.0000279398  -0.0000070781  -0.0000093326   0.0000081574
       -0.0000004600   0.0000005650   0.0000020517   0.0000037853   0.0000101306
       -0.0000066997  -0.0000040971   0.0000020071  -0.0000048374   0.0000028397
        0.0000033970  -0.0000005895   0.0000000478   0.0000029420   0.0000024726
        0.0000012760   0.0000029725   0.0000040854  -0.0000017131   0.0000031350
        0.0000029286  -0.0000014480   0.0000028094   0.0000012205   0.0000016009
       -0.0000002837  -0.0000029456  -0.0000012335   0.0000027005  -0.0000040523
       -0.0000002768  -0.0000009250  -0.0000042640   0.0000000633  -0.0000001587
       -0.0000011215   0.0000006387   0.0000014602   0.0000018988  -0.0000012314
        0.0000186583  -0.0000032202  -0.0000870740   0.0000468865   0.0000622142
       -0.0047118396  -0.0012144439   0.0001578196   0.0197083554  -0.0098725289
        0.0186926965
        0.2343097713  -0.1217456756   0.3363802581  -0.0341068147   0.0714556274
       -0.1019968823   0.0379914545   0.0115487949   0.0242582166  -0.0126244160
        0.0264283435  -0.0273276773  -0.0002568965  -0.0007733018   0.0007098949
       -0.0000420537   0.0003501721  -0.0000591763   0.0000346038   0.0000895024
        0.0000070777  -0.0000005479  -0.0001105115   0.0000939164   0.0000654328
        0.0000267166  -0.0000021038  -0.0000140896   0.0000584927   0.0000468076
       -0.0001042346  -0.0000755795   0.0000197072   0.0001417300   0.0000579334
        0.0000685256  -0.0001124132   0.0000512725   0.0000125051   0.0000008337
       -0.0000810441  -0.0000470019   0.0000084658   0.0000007241  -0.0000227092
        0.0000029100   0.0000038235   0.0000010607  -0.0000002026   0.0000024945
        0.0000011239   0.0000124897  -0.0000103908  -0.0000100427  -0.0000081569
        0.0000033345  -0.0000058901   0.0000053495   0.0000127235  -0.0000001707
        0.0000053871   0.0000091591   0.0000063967  -0.0000062495   0.0000044398
        0.0000060113  -0.0000009980   0.0000013308   0.0000031411   0.0000000222
        0.0000057416   0.0000054718  -0.0000002359   0.0000027095   0.0000010852
       -0.0000064027   0.0000122149  -0.0000074197  -0.0000214843  -0.0000125607
        0.0000096218   0.0000050641  -0.0000099704   0.0000016885  -0.0000015192
        0.0000044889  -0.0000054200   0.0000015219   0.0000006265  -0.0000028643
        0.0000021565   0.0000028211  -0.0000066954  -0.0000017855  -0.0000017984
        0.0000005305  -0.0000020759  -0.0000011253  -0.0000009364   0.0000747521
       -0.0000351687   0.0000967759  -0.0001374498  -0.0000370856  -0.0000256389
       -0.0001106896   0.0000500194   0.0001070490  -0.0383870851  -0.0453133868
       -0.0091475185  -0.1158192622   0.0739894761  -0.1622273922  -0.0509078423
       -0.0406736631  -0.0546039976  -0.0022750567   0.0185657766  -0.0081509812
       -0.0043774721   0.0003296074   0.0048607368   0.0001260299   0.0000128237
       -0.0000478478   0.0000130987   0.0000008738   0.0000106224   0.0000107677
        0.0000065018  -0.0000169667   0.0000031379  -0.0000035688   0.0000073164
       -0.0000025451  -0.0000041108  -0.0000020689   0.0000013838  -0.0000067383
        0.0000021886  -0.0000047922  -0.0000018047  -0.0000031328   0.0000025050
       -0.0000031332  -0.0000005530   0.0000016303   0.0000010138   0.0000028871
       -0.0000020296  -0.0000005261   0.0000058024  -0.0000019293   0.0000003131
        0.0000044841  -0.0000016058   0.0000021644   0.0000003574   0.0000020679
        0.0000024387  -0.0000043753   0.0000004736   0.0000014764  -0.0000063165
       -0.0000003787   0.0000005677  -0.0000042746  -0.0000023617  -0.0000028570
       -0.0000014887   0.0000021830  -0.0000047078  -0.0000022818  -0.0000119569
       -0.0000119693   0.0000013026  -0.0000283839  -0.0001205668  -0.0001142834
       -0.0041249769   0.0005694077   0.0048789650  -0.0093188283   0.0053752966
       -0.0077574203
       -0.0804649627   0.0252290576  -0.0341068147   0.4953366361   0.0898044129
        0.2406647754  -0.2010776252  -0.1514469340  -0.0523424551  -0.0459104447
        0.0084395409  -0.0368804141   0.0001557232   0.0006425336  -0.0040921432
       -0.0004449191  -0.0005435756  -0.0001979094   0.0000349556   0.0004312663
        0.0002079476   0.0000405555  -0.0001889397   0.0000381772   0.0002177919
        0.0000088556  -0.0000192518  -0.0001774312   0.0001153746   0.0000652299
        0.0000249564  -0.0003195055   0.0000561660  -0.0000676667   0.0000683918
        0.0002031903  -0.0000001948  -0.0000930903   0.0000803696  -0.0000325804
        0.0000158377  -0.0000168798   0.0000048460   0.0000090368  -0.0000357278
        0.0000046812   0.0000251845   0.0000010632   0.0000135753   0.0000139117
       -0.0000082128  -0.0000504840  -0.0000030893   0.0000008176   0.0000154245
       -0.0000099384   0.0000112254   0.0000139893  -0.0000274477  -0.0000039478
       -0.0000073298   0.0000021741   0.0000008171   0.0000059398  -0.0000035910
        0.0000017362   0.0000058657   0.0000008959   0.0000008674  -0.0000014372
       -0.0000008120   0.0000017748  -0.0000023651   0.0000035590  -0.0000007156
        0.0000023923  -0.0000124924   0.0000070796   0.0000412206   0.0000145346
       -0.0000056164  -0.0000058313   0.0000057249  -0.0000031464   0.0000024075
       -0.0000022418  -0.0000011248   0.0000010306   0.0000006397  -0.0000004054
       -0.0000003798   0.0000001958  -0.0000014340  -0.0000003872  -0.0000010921
       -0.0000025873   0.0000038067  -0.0000023004   0.0000002418  -0.0000452295
       -0.0000668611   0.0001469903   0.0000766871  -0.0000128890  -0.0000249428
       -0.0007857900   0.0002983903  -0.0010642557  -0.0104343974  -0.0232599573
        0.0054998197   0.0186402873   0.0248111094   0.0027458278  -0.0008329819
       -0.0204249393   0.0072287195  -0.1738568590   0.0483804768  -0.1221197072
       -0.0003075090  -0.0017394128  -0.0000957744   0.0001354753  -0.0002918789
       -0.0002601174  -0.0000169985   0.0000117035   0.0000242054   0.0000115915
        0.0000471183  -0.0000085049   0.0000377010   0.0000162907   0.0000033863
        0.0000119446   0.0000154909   0.0000310248  -0.0000026521  -0.0000046646
       -0.0000029848  -0.0000001378  -0.0000028433  -0.0000007612  -0.0000116077
        0.0000075530  -0.0000002436  -0.0000061861   0.0000007805   0.0000020941
       -0.0000034752   0.0000019795   0.0000021796  -0.0000014849   0.0000019698
        0.0000013478  -0.0000016654   0.0000003936   0.0000003765  -0.0000019105
        0.0000027146  -0.0000002219  -0.0000008021   0.0000020793  -0.0000016968
       -0.0000006780   0.0000010781  -0.0000015452  -0.0000008957   0.0000006716
       -0.0000010375  -0.0000022571   0.0000001259  -0.0000007323   0.0000128696
       -0.0000176183  -0.0000110843  -0.0000475507  -0.0000727553  -0.0001391789
        0.0002246902  -0.0003604142   0.0006098366  -0.0004719368   0.0004782305
       -0.0061857126
       -0.0354890548  -0.2916216243   0.0714556274   0.0898044129   0.6009882683
       -0.1311106918  -0.0915654282  -0.1939650591  -0.0063869705  -0.0367931356
        0.0449954083  -0.0475920625   0.0028126796   0.0024401451   0.0052105501
        0.0003218989  -0.0005298861   0.0004385915   0.0001464081   0.0003133225
       -0.0000359737   0.0000217189  -0.0001106556   0.0000382734   0.0001812340
       -0.0000227608  -0.0000111834  -0.0001500634   0.0001508391  -0.0000065751
        0.0002874850  -0.0000708046   0.0000217329  -0.0000815853   0.0003811326
        0.0000678765   0.0000260771  -0.0001072563  -0.0000525343  -0.0000512717
        0.0000203945  -0.0000107027   0.0000074447   0.0000096312  -0.0000369740
       -0.0000040592   0.0000248085   0.0000002437   0.0000076320   0.0000029954
       -0.0000021992  -0.0000169616   0.0000040015   0.0000027086   0.0000110959
        0.0000014269   0.0000082330   0.0000083203  -0.0000355948   0.0000022129
       -0.0000051202  -0.0000049467  -0.0000011705   0.0000094072  -0.0000026226
       -0.0000030012   0.0000036699  -0.0000005077  -0.0000019376  -0.0000008520
       -0.0000076743  -0.0000022597   0.0000007880   0.0000008684  -0.0000026444
        0.0000027351  -0.0000147190   0.0000042967   0.0000102580   0.0000157664
       -0.0000084844   0.0000034917  -0.0000023418   0.0000018559   0.0000018873
       -0.0000030153   0.0000020600   0.0000019888  -0.0000018469   0.0000029774
       -0.0000017969  -0.0000003137   0.0000014504   0.0000013181  -0.0000034007
       -0.0000002980  -0.0000007328   0.0000007439   0.0000003309  -0.0000242098
       -0.0000127867   0.0001528213  -0.0000580271  -0.0002105946  -0.0001628563
       -0.0009201676   0.0001239955  -0.0001015395  -0.0242781566  -0.0540389628
        0.0022601813   0.0699623358  -0.0061208618   0.0549952196  -0.0018399529
       -0.0209820802   0.0071231669   0.0479580994  -0.0614334138   0.0468006752
       -0.0199733209  -0.0209842877  -0.0054326098  -0.0000438336  -0.0002613682
       -0.0001980395  -0.0000317735   0.0000051861   0.0000040554  -0.0000056425
        0.0000326134  -0.0000221570   0.0000241450   0.0000207392  -0.0000127573
       -0.0000020491   0.0000262661   0.0000126172  -0.0000036886  -0.0000067434
       -0.0000001378   0.0000000504  -0.0000001803   0.0000015644  -0.0000119414
        0.0000110821  -0.0000012396  -0.0000069764   0.0000003722  -0.0000017090
       -0.0000000349  -0.0000009685  -0.0000031334  -0.0000033482  -0.0000010496
       -0.0000030908  -0.0000023867  -0.0000002295  -0.0000008389  -0.0000017597
       -0.0000005124   0.0000001881  -0.0000025712   0.0000004959   0.0000011487
       -0.0000011132  -0.0000007057   0.0000000763  -0.0000002042   0.0000024635
       -0.0000001331  -0.0000010275   0.0000045856   0.0000000760  -0.0000189176
       -0.0000181418   0.0000118279   0.0000775758  -0.0000685252  -0.0000923078
       -0.0003532213  -0.0003562072  -0.0001052704   0.0000502285   0.0014250981
        0.0027808435
       -0.0088916858   0.1161143331  -0.1019968823   0.2406647754  -0.1311106918
        0.3470631305  -0.0765251659  -0.0498342589  -0.0818426909  -0.0181827484
       -0.0138974406  -0.0093074787  -0.0050440029   0.0046067512   0.0026362500
        0.0006404583  -0.0005374792   0.0003003913  -0.0001655856   0.0000795484
        0.0000413486  -0.0000182544  -0.0001224012  -0.0001330003   0.0000471821
        0.0000188573   0.0000082669   0.0000193053  -0.0000007527  -0.0000403763
        0.0002229179   0.0002282554   0.0000029893  -0.0005000063   0.0002375806
        0.0000924158  -0.0000039794  -0.0001460517  -0.0000443001   0.0000432697
        0.0000820244   0.0000350162  -0.0000108659  -0.0000004212   0.0000029781
        0.0000138898   0.0000127235   0.0000070940   0.0000099610   0.0000150772
       -0.0000088461  -0.0000564015  -0.0000078690  -0.0000091869   0.0000134908
       -0.0000175053   0.0000039750   0.0000129013  -0.0000079152  -0.0000041737
       -0.0000055289   0.0000035991   0.0000020796   0.0000016904  -0.0000085868
        0.0000015780   0.0000063333  -0.0000028278  -0.0000033634  -0.0000007098
        0.0000007303  -0.0000014926  -0.0000031934   0.0000001255  -0.0000029187
        0.0000048874  -0.0000090101   0.0000028389   0.0000489489   0.0000038779
        0.0000010599  -0.0000123807   0.0000100194  -0.0000029875   0.0000017969
       -0.0000050298   0.0000008073  -0.0000011992   0.0000017693   0.0000034374
        0.0000007251   0.0000011902   0.0000005755  -0.0000026956   0.0000000693
        0.0000010702   0.0000038417  -0.0000039629   0.0000025346  -0.0001448589
       -0.0000418931  -0.0000112971   0.0001761592  -0.0001191857   0.0000171302
       -0.0016661696  -0.0009047945  -0.0006280526   0.0059533941   0.0036551384
       -0.0015672761  -0.0164502467   0.0211408708  -0.0191034925  -0.0002226066
       -0.0063224427   0.0029372479  -0.1222166075   0.0464299427  -0.1436515647
        0.0077803592   0.0076321290   0.0028272992   0.0000681757  -0.0000955080
        0.0000259288  -0.0000152434   0.0000417080   0.0000183304   0.0000095776
        0.0000252791   0.0000279302   0.0000265387   0.0000431151   0.0000108658
       -0.0000259797   0.0000081478   0.0000024146  -0.0000024419   0.0000021278
        0.0000013331   0.0000001003  -0.0000046902   0.0000012881  -0.0000043434
       -0.0000000470  -0.0000013734  -0.0000020089  -0.0000024518  -0.0000027505
       -0.0000004562  -0.0000013026  -0.0000037134   0.0000018617  -0.0000014942
       -0.0000022946   0.0000013316  -0.0000015253  -0.0000010201   0.0000006987
        0.0000006013   0.0000021055  -0.0000008837  -0.0000010738   0.0000021199
       -0.0000002400  -0.0000001362   0.0000031652  -0.0000017742   0.0000001171
        0.0000027878   0.0000001835  -0.0000004679  -0.0000020992   0.0000101765
       -0.0000040124  -0.0000123149  -0.0000426294  -0.0000101505  -0.0000238496
        0.0004986806  -0.0002187384   0.0002359078  -0.0060627189   0.0030464090
        0.0020831048
        0.0195462169  -0.0597550721   0.0379914545  -0.2010776252  -0.0915654282
       -0.0765251659   0.4805955303   0.1085005826   0.2249015787  -0.1805644660
        0.0166166884  -0.1016575921  -0.0361075018  -0.0088503609  -0.0228792821
       -0.0009050579   0.0039720504  -0.0007858299  -0.0003161739  -0.0001121971
       -0.0001794892   0.0000461515   0.0002809287   0.0002068335  -0.0002414305
        0.0000360257  -0.0000268529   0.0002274085  -0.0001755195   0.0001329852
       -0.0006169121   0.0003174633   0.0003085835  -0.0008113118  -0.0009682093
        0.0000708223  -0.0000992229  -0.0000440818   0.0000650546   0.0001396422
       -0.0000892382  -0.0000097463   0.0000210948   0.0000120707   0.0000489255
       -0.0000177153  -0.0000861032  -0.0000009206  -0.0000517035  -0.0000420376
        0.0000283482   0.0001948393   0.0000063414   0.0000073337  -0.0000475698
        0.0000519276  -0.0000400912  -0.0000204463   0.0000691593   0.0000175742
        0.0000157068   0.0000038419  -0.0000054583  -0.0000117889   0.0000229307
       -0.0000056973  -0.0000178697   0.0000036987  -0.0000004934   0.0000021822
       -0.0000009761   0.0000011893   0.0000118718  -0.0000009362   0.0000012269
       -0.0000242113   0.0000265071  -0.0000210876  -0.0001936939  -0.0000177332
        0.0000063290   0.0000548393  -0.0000558980   0.0000226071  -0.0000112188
        0.0000187401  -0.0000035900   0.0000057055  -0.0000062776  -0.0000028317
       -0.0000021097   0.0000035666  -0.0000023292   0.0000038687   0.0000008747
        0.0000036811  -0.0000188823   0.0000130716  -0.0000058430   0.0002137590
        0.0000630640  -0.0001007844   0.0001835628  -0.0001118363   0.0000192853
        0.0017252485  -0.0029003011  -0.0019431851   0.0168091294   0.0628430244
       -0.0152689090  -0.0456226109  -0.0105170992  -0.0262584241   0.0030330684
       -0.0010321052  -0.0027297561  -0.0181139745  -0.0140676347  -0.0081699179
       -0.0407825176  -0.0011316525  -0.0043635448   0.0004462478  -0.0000617600
       -0.0000900477   0.0000543439  -0.0000604827  -0.0000050564   0.0000321788
       -0.0000281837  -0.0000515259  -0.0000203784  -0.0000734118   0.0000134571
       -0.0001250215  -0.0000308517  -0.0000472830   0.0000081139   0.0000044894
        0.0000040571  -0.0000164963   0.0000173321  -0.0000060376   0.0000241208
        0.0000025711  -0.0000104550   0.0000070905   0.0000040220  -0.0000032202
       -0.0000018332  -0.0000054848   0.0000008654  -0.0000078533  -0.0000030149
        0.0000002775  -0.0000091835   0.0000039119  -0.0000012105   0.0000031581
       -0.0000055406  -0.0000038056   0.0000000454   0.0000041157   0.0000006588
       -0.0000018704   0.0000038465  -0.0000022697  -0.0000022603   0.0000014090
       -0.0000040076   0.0000031863  -0.0000003173   0.0000019266  -0.0000517103
        0.0000450222   0.0000291502  -0.0000793807   0.0003406138   0.0001274436
        0.0030957684  -0.0013564776  -0.0026965914  -0.0005120774  -0.0001336681
       -0.0001033161
       -0.0141850544  -0.0519545966   0.0115487949  -0.1514469340  -0.1939650591
       -0.0498342589   0.1085005826   0.6193391437  -0.1335759404   0.0684960533
       -0.1056856624   0.0730204744  -0.0208194265   0.0048049289  -0.0128057714
       -0.0009771617   0.0011971485  -0.0009210909  -0.0004859562  -0.0009272730
        0.0000576953   0.0000917000   0.0003436130  -0.0000422788  -0.0001240433
       -0.0000284625   0.0000008797   0.0001185761  -0.0000216888   0.0001349997
       -0.0004800681  -0.0000756824   0.0000106273  -0.0012646844  -0.0007533638
        0.0000357022   0.0000960799  -0.0002268099   0.0001393506  -0.0001135552
       -0.0000871253  -0.0000427719   0.0001128389   0.0000094294  -0.0000247671
       -0.0000403435  -0.0000518029   0.0000046694  -0.0000236097  -0.0000199210
        0.0000182563   0.0001291144  -0.0000015783   0.0000087673  -0.0000344419
        0.0000315316  -0.0000206168  -0.0000297680   0.0000471402   0.0000077910
        0.0000115800  -0.0000006134  -0.0000046310  -0.0000125889   0.0000144829
       -0.0000056099  -0.0000079090   0.0000004118  -0.0000009048   0.0000009575
       -0.0000037048  -0.0000021911   0.0000066100  -0.0000060665   0.0000018381
       -0.0000132466   0.0000196578  -0.0000151291  -0.0001248553  -0.0000170427
        0.0000048137   0.0000304728  -0.0000289612   0.0000128215  -0.0000074000
        0.0000093219   0.0000006783   0.0000025479  -0.0000035530   0.0000000074
       -0.0000014381   0.0000011144   0.0000009116   0.0000024530   0.0000004524
        0.0000038297  -0.0000130289   0.0000095620  -0.0000031893   0.0003017155
        0.0000433448   0.0001111012  -0.0003265506   0.0003124907   0.0000078334
        0.0007167005  -0.0020272691  -0.0025477612   0.0231668971  -0.0060429420
        0.0200802409  -0.0117615625  -0.0008659853  -0.0104211737  -0.0013072451
       -0.0042318319   0.0040274698   0.0041804853   0.0043992397   0.0014275336
       -0.0014945645  -0.2595159813   0.0966103953   0.0002443692  -0.0001880197
       -0.0004845989   0.0000463620  -0.0000272109  -0.0000489031  -0.0000020457
       -0.0000780832   0.0000014872  -0.0000552295  -0.0000476271  -0.0000010771
       -0.0001338800  -0.0000588235  -0.0000346510   0.0000105216   0.0000067172
        0.0000034474  -0.0000092900   0.0000101807  -0.0000034717   0.0000139781
       -0.0000062396  -0.0000092081   0.0000055786   0.0000012231  -0.0000043969
        0.0000006513  -0.0000046115  -0.0000022124  -0.0000032555  -0.0000021802
       -0.0000021742  -0.0000029607   0.0000022260  -0.0000010027   0.0000030034
       -0.0000041585  -0.0000017618  -0.0000004671   0.0000000821   0.0000018891
        0.0000001958  -0.0000001327   0.0000003901   0.0000004878   0.0000019674
       -0.0000004990   0.0000025965   0.0000026421   0.0000018688  -0.0000636523
        0.0000409995   0.0000254611   0.0000021837  -0.0000365676   0.0000555770
       -0.0007827286  -0.0044044429   0.0040098231  -0.0001463470   0.0007520224
       -0.0005153832
        0.0195754225  -0.0209162189   0.0242582166  -0.0523424551  -0.0063869705
       -0.0818426909   0.2249015787  -0.1335759404   0.3359325050  -0.1276678177
        0.0324262198  -0.1548433930  -0.0164893823  -0.0046065594  -0.0075054450
        0.0004619481   0.0008225940  -0.0003319728   0.0000452932  -0.0002348480
       -0.0005928299  -0.0001126617   0.0002555985  -0.0000899736  -0.0001975751
       -0.0000862351   0.0000335868   0.0001003238  -0.0001629027  -0.0000206590
        0.0000335806   0.0004373372   0.0002507573  -0.0005214510  -0.0003401706
        0.0000166823   0.0000937461  -0.0000753870  -0.0000256172   0.0000417611
        0.0000880679   0.0000391243  -0.0000058112   0.0000099480   0.0000173048
       -0.0000058538  -0.0000177248   0.0000021467  -0.0000127683  -0.0000132064
        0.0000104779   0.0000555048   0.0000016811  -0.0000041723  -0.0000113009
        0.0000139548  -0.0000144364  -0.0000032062   0.0000165346   0.0000105927
        0.0000063275   0.0000037558   0.0000019622  -0.0000040413   0.0000069086
        0.0000017447  -0.0000042748   0.0000009159   0.0000025107  -0.0000000788
        0.0000027085   0.0000028445   0.0000044899   0.0000002450   0.0000018306
       -0.0000048821   0.0000093226  -0.0000071571  -0.0000570961  -0.0000075631
        0.0000060206   0.0000163508  -0.0000171204   0.0000094982  -0.0000039739
        0.0000031618  -0.0000015782   0.0000021258  -0.0000008212   0.0000011049
       -0.0000010484   0.0000025676   0.0000001720   0.0000002514  -0.0000002825
        0.0000031619  -0.0000059735   0.0000032695   0.0000017479  -0.0000173618
        0.0000364821  -0.0000327307   0.0001307227   0.0000610077   0.0001259654
        0.0017148149  -0.0007862234  -0.0001486397   0.0024014607   0.0505670140
       -0.0189379209  -0.0252130753  -0.0096473302  -0.0196716829  -0.0028115623
        0.0040991670   0.0040143757  -0.0156618212  -0.0119378804  -0.0059800858
       -0.0047531508   0.0970631046  -0.0781185178  -0.0002781744  -0.0006854329
       -0.0003182655  -0.0000249103  -0.0000035174  -0.0000168582  -0.0000341739
       -0.0000386106   0.0000187468  -0.0000066753  -0.0000013266  -0.0000076611
       -0.0000299048   0.0000147990  -0.0000157023  -0.0000017501   0.0000014516
       -0.0000003424  -0.0000046438   0.0000039826  -0.0000026192   0.0000084800
       -0.0000015072  -0.0000029299   0.0000021659  -0.0000001632   0.0000000415
        0.0000001895  -0.0000007815   0.0000019582  -0.0000012877  -0.0000004244
        0.0000029410  -0.0000024619   0.0000015739   0.0000018596   0.0000027619
       -0.0000011175  -0.0000006327  -0.0000002386   0.0000019290   0.0000004683
       -0.0000003110   0.0000011192   0.0000008673  -0.0000022456   0.0000002320
        0.0000023155   0.0000013015   0.0000006008   0.0000018437  -0.0000067189
        0.0000091252   0.0000037376  -0.0001958930   0.0002156946   0.0000475023
       -0.0028507386   0.0038121759   0.0036958275  -0.0002518501  -0.0004479844
        0.0000120716
       -0.0109000023   0.0226482575  -0.0126244160  -0.0459104447  -0.0367931356
       -0.0181827484  -0.1805644660   0.0684960533  -0.1276678177   0.4848528737
        0.0668343126   0.2114824708  -0.1605941157  -0.0779284076  -0.0356720894
        0.0059827437  -0.0115260730   0.0003533088  -0.0000568416   0.0020851865
        0.0006833094  -0.0001558215  -0.0006689021  -0.0008619547   0.0003520254
       -0.0000266873   0.0000459089  -0.0003471465   0.0001018197  -0.0003001994
        0.0019449286   0.0023852532   0.0009772506  -0.0054979030   0.0018464075
        0.0007935902  -0.0001747361  -0.0019239582  -0.0005451592   0.0000089916
        0.0005556453   0.0001245111  -0.0001483225   0.0000009899  -0.0000767828
        0.0000930263   0.0002520354   0.0000020954   0.0001482128   0.0001076138
       -0.0000822165  -0.0005344062  -0.0000046787  -0.0000190923   0.0001530260
       -0.0001280353   0.0000988642   0.0001089215  -0.0002425403  -0.0000284145
       -0.0000467189  -0.0000064345   0.0000122240   0.0000513001  -0.0000576689
        0.0000111877   0.0000556324  -0.0000045042  -0.0000010043  -0.0000067488
        0.0000004725  -0.0000012001  -0.0000238469   0.0000159566  -0.0000086760
        0.0000698694  -0.0000938920   0.0000694096   0.0005316430   0.0000825198
       -0.0000334662  -0.0001350802   0.0001391765  -0.0000525713   0.0000357052
       -0.0000470965   0.0000053968  -0.0000051032   0.0000187090   0.0000106668
        0.0000055223  -0.0000044362   0.0000038925  -0.0000058167  -0.0000037149
       -0.0000132145   0.0000547690  -0.0000304323   0.0000152932  -0.0007543815
       -0.0002560029   0.0002378340   0.0013119746  -0.0008113868  -0.0002706601
       -0.0291363909  -0.0158466566  -0.0110134749  -0.0766686385  -0.0204732588
       -0.0086180603   0.0167283754  -0.0144131088   0.0203725360   0.0006593129
        0.0007386310  -0.0001741060   0.0006431383  -0.0040280960  -0.0037088795
       -0.0000184343   0.0010853111  -0.0019866421  -0.0003197922   0.0009087674
        0.0008305752  -0.0002287006   0.0003444462   0.0001491645  -0.0000152914
        0.0002658810   0.0002603764   0.0002902637   0.0004269341   0.0001135647
       -0.0001710385   0.0001966464   0.0001733719  -0.0000522193  -0.0000179393
       -0.0000148044   0.0000479888  -0.0000449171   0.0000206795  -0.0000817466
        0.0000461679   0.0000225166  -0.0000400527  -0.0000025330   0.0000103162
       -0.0000043104   0.0000211976  -0.0000010782   0.0000127537   0.0000127722
       -0.0000001378   0.0000165322  -0.0000068284   0.0000041092  -0.0000142466
        0.0000201085   0.0000093026   0.0000007647  -0.0000055620  -0.0000036845
        0.0000060068  -0.0000037450   0.0000046040   0.0000050838   0.0000031515