$hessian                                                                        
        0.5160610727   0.1493316633   0.1846737472  -0.0815234791  -0.0280910453
       -0.0051482289   0.0174906299  -0.0059280013   0.0167170643  -0.0067483945
        0.0189986482  -0.0134314411   0.0004293421  -0.0037865237   0.0007683643
       -0.0003061907   0.0020825045  -0.0003764483   0.0010158809  -0.0010015889
       -0.0003668326   0.0002073550   0.0007550771   0.0002303467   0.0003125781
       -0.0005454280   0.0000004408  -0.0003971628   0.0008744615   0.0001434257
       -0.0002645356  -0.0004972349  -0.0000565470   0.0009582526   0.0011382560
        0.0003518576   0.0007292145  -0.0019715422   0.0000894365  -0.0034375663
        0.0015327736   0.0001536024   0.0040213497   0.0001867999   0.0002705020
       -0.0019010668   0.0017621251  -0.0000922315   0.0013906348   0.0008421722
       -0.0000754880  -0.0007974471   0.0001506861   0.0000938099   0.0014382625
       -0.0009687971   0.0001013027  -0.0019556085  -0.0016424460  -0.0000081853
        0.0000415627  -0.0000072059   0.0000102034   0.0003404342   0.0002237924
       -0.0000117970  -0.0006122059  -0.0000905365   0.0000232860   0.0002305784
       -0.0005269371   0.0000694916  -0.0000592661   0.0003557507  -0.0000401292
       -0.0000116199  -0.0000181228  -0.0001300655  -0.0004964975   0.0002802557
       -0.0000734258   0.0007189604  -0.0007842864   0.0001290953  -0.0001703210
        0.0006791762   0.0002138251   0.0004945841  -0.0002125669   0.0002024032
       -0.0003014696   0.0002745669  -0.0000284870   0.0002306729  -0.0004763423
       -0.0001499500  -0.0006761787   0.0001518174  -0.0002741362   0.0004267816
        0.0001664790  -0.0000991385  -0.0001928100   0.0001427406   0.0002556393
       -0.0025127531  -0.0004212540  -0.0001815714  -0.0518436535  -0.0448305762
       -0.0091792889  -0.2134482420   0.0353928214  -0.1425884967  -0.1726504424
       -0.1321038468  -0.0090008267  -0.0028530658   0.0181304426  -0.0152593803
       -0.0006538066  -0.0055918770  -0.0025436976   0.0001410909  -0.0002008280
       -0.0000482552   0.0000511952  -0.0000485513  -0.0000163612  -0.0000233813
       -0.0000582557  -0.0000282209  -0.0000471606   0.0000039538  -0.0000409070
        0.0000189528   0.0000321083  -0.0000596880  -0.0000237387   0.0000422343
       -0.0000619364  -0.0000262777   0.0000496205  -0.0000454669   0.0000158663
       -0.0000538413  -0.0000431810   0.0000480371   0.0000069370  -0.0000151051
       -0.0000028724  -0.0000212085   0.0000019418  -0.0000349334  -0.0000191721
       -0.0000036955  -0.0000293403   0.0000125386  -0.0000012992   0.0000131806
       -0.0000038736  -0.0000054746  -0.0000003947   0.0000108807   0.0000187000
       -0.0000112548   0.0000113079   0.0000024687  -0.0000129469  -0.0000005038
       -0.0000225424   0.0000018520  -0.0000074329  -0.0000062575  -0.0000879035
        0.0000238360  -0.0000773681  -0.0001368312  -0.0000012504  -0.0000394635
       -0.0003145226  -0.0051746112  -0.0024661431  -0.0022629801   0.0014392607
       -0.0024237953
        0.1493316633   0.5230789836  -0.1777595854   0.0288083675  -0.2223392501
        0.1419825913  -0.0485323669  -0.0525002767   0.0049750976   0.0186321258
       -0.0082377632   0.0158212743   0.0003674397  -0.0035893873  -0.0017369217
       -0.0001018831   0.0017244993  -0.0004038048   0.0007361713  -0.0012378823
        0.0000548071   0.0002607547   0.0009378427  -0.0000477926   0.0001083960
       -0.0005282518  -0.0000832276  -0.0003020566   0.0007612267   0.0001199165
       -0.0000929770  -0.0004554298  -0.0001117445   0.0005915229   0.0009083988
        0.0004189708   0.0007928520  -0.0016631947   0.0000654265  -0.0033323932
        0.0011959473   0.0000606437   0.0038808837   0.0002335800   0.0000255316
       -0.0017974479   0.0016381980  -0.0000957448   0.0013064636   0.0007952064
       -0.0000600612  -0.0007359451   0.0001146633   0.0000932361   0.0013597058
       -0.0008634772   0.0001443335  -0.0018637817  -0.0016016405   0.0000197076
        0.0000300518  -0.0000339054   0.0000152951   0.0003181992   0.0002217592
       -0.0000140630  -0.0005622443  -0.0000887745   0.0000235331   0.0002038082
       -0.0004762433   0.0000663568  -0.0000564984   0.0003197687  -0.0000340858
       -0.0000150764  -0.0000169875  -0.0001228076  -0.0004729149   0.0002665013
       -0.0000695527   0.0006664866  -0.0007239976   0.0001243461  -0.0001503035
        0.0006221082   0.0001929502   0.0004480066  -0.0001920283   0.0001855463
       -0.0002726173   0.0002507754  -0.0000257251   0.0002060428  -0.0004295599
       -0.0001341995  -0.0006181406   0.0001349634  -0.0002518588   0.0003992891
        0.0002671689   0.0002678760  -0.0002122650  -0.0001286458   0.0000786410
       -0.0019704345   0.0000186699   0.0000595932  -0.0026064340   0.0207080538
       -0.0164172869  -0.0213301090  -0.0837492041   0.0098843595  -0.1320774083
       -0.1672933693  -0.0007529995   0.0015187292  -0.0033597028   0.0030927829
       -0.0052106516  -0.0002490426   0.0021208251  -0.0000196720  -0.0000456055
       -0.0000078974   0.0000249676  -0.0000466702  -0.0000149028  -0.0000373096
       -0.0000613935   0.0000517340  -0.0000493481  -0.0000023288  -0.0000094397
        0.0000217118   0.0000443344  -0.0000948134  -0.0000236427   0.0000527359
       -0.0000712944  -0.0000242594   0.0000494290  -0.0000419944   0.0000147926
       -0.0000457432  -0.0000413304   0.0000440598   0.0000082408  -0.0000121509
       -0.0000065305  -0.0000118388   0.0000062762  -0.0000308925  -0.0000139059
       -0.0000007796  -0.0000251398   0.0000111795   0.0000000240   0.0000119458
       -0.0000029237  -0.0000032473   0.0000015070   0.0000093563   0.0000178387
       -0.0000090999   0.0000088797   0.0000047608  -0.0000100899  -0.0000012677
       -0.0000167122   0.0000006583  -0.0000033518  -0.0000024915  -0.0000654993
        0.0000292227  -0.0000249841  -0.0000792051   0.0001808128   0.0000382755
       -0.0055446341  -0.0005862304   0.0021698675   0.0181526698  -0.0040132317
        0.0162810811
        0.1846737472  -0.1777595854   0.3664711217  -0.0454275583   0.1000454107
       -0.1489840226   0.0456763671   0.0337007319   0.0097845182  -0.0131114956
        0.0146953960  -0.0264994975   0.0002595438  -0.0004144297   0.0015129502
       -0.0001908590   0.0002903478  -0.0000091864   0.0001547579   0.0001953820
       -0.0002086542  -0.0000014358  -0.0001076357   0.0002058338   0.0001567485
       -0.0000105909   0.0000566172  -0.0000880798   0.0001041530   0.0000150119
       -0.0001302218  -0.0000756551   0.0000515745   0.0002877363   0.0001791284
       -0.0000139029  -0.0000421281  -0.0002453448   0.0000239642  -0.0001292487
        0.0002775523   0.0000392681   0.0001616332  -0.0000476536   0.0001745539
       -0.0001051758   0.0001228121   0.0000077470   0.0000807436   0.0000462917
       -0.0000082297  -0.0000655988   0.0000326004   0.0000005812   0.0000888673
       -0.0000970702  -0.0000377279  -0.0001032634  -0.0000432893  -0.0000034738
        0.0000065546   0.0000258913   0.0000147105   0.0000192255  -0.0000007528
       -0.0000091154  -0.0000481630   0.0000038086   0.0000112846   0.0000285088
       -0.0000535985   0.0000000906   0.0000009522   0.0000520190   0.0000238618
        0.0000004408  -0.0000093409  -0.0000190806  -0.0000194289   0.0000220689
       -0.0000068436   0.0000533335  -0.0000571810   0.0000049217  -0.0000158484
        0.0000568388   0.0000128656   0.0000427538  -0.0000170133   0.0000126789
       -0.0000245864   0.0000221507  -0.0000025884   0.0000234535  -0.0000399648
       -0.0000107490  -0.0000531258   0.0000122147  -0.0000183384   0.0000155352
       -0.0001079764  -0.0002558041  -0.0000583893   0.0002503372   0.0002202995
       -0.0004342544  -0.0002818150  -0.0001733589  -0.0367820358  -0.0458196200
        0.0059822094  -0.1022964445   0.0511503902  -0.1553392824  -0.0089006500
       -0.0008279261  -0.0381005507  -0.0038171131   0.0161779847  -0.0121607958
       -0.0026970046   0.0019520625   0.0046712909   0.0001899588  -0.0000369413
       -0.0000383151   0.0000184227   0.0000010761   0.0000011722   0.0000088438
        0.0000038621  -0.0000583714   0.0000027827   0.0000036533  -0.0000202037
        0.0000011919  -0.0000051007   0.0000200140   0.0000005200  -0.0000048063
        0.0000049323  -0.0000024479   0.0000037675  -0.0000025892   0.0000006762
       -0.0000097707  -0.0000010209   0.0000065329   0.0000006390   0.0000010297
       -0.0000010213  -0.0000040349   0.0000030445  -0.0000057080  -0.0000029932
        0.0000032141  -0.0000039690   0.0000047215   0.0000020846   0.0000033874
       -0.0000002240  -0.0000007715   0.0000004429   0.0000051126   0.0000017244
       -0.0000020569   0.0000037519  -0.0000010673  -0.0000056076   0.0000002516
        0.0000004931  -0.0000024351  -0.0000080197   0.0000005263  -0.0000198425
       -0.0000057627  -0.0000363955  -0.0001256613  -0.0002023127  -0.0000699327
       -0.0022555111   0.0023634394   0.0047589595  -0.0149972919   0.0044905619
       -0.0120052805
       -0.0815234791   0.0288083675  -0.0454275583   0.5257291853   0.1336346123
        0.2044980800  -0.2038678775  -0.1626372332  -0.0025767945  -0.0504637952
       -0.0064222243  -0.0321996440  -0.0015186495   0.0023172443  -0.0037308551
       -0.0002310338  -0.0018434121   0.0001352451  -0.0006398968   0.0013543693
        0.0001580834  -0.0001834697  -0.0008628392  -0.0000244792   0.0000585752
        0.0004618166   0.0000343661   0.0001359241  -0.0006230582  -0.0000574010
        0.0001496780   0.0003371724   0.0002331476  -0.0007532572  -0.0009040348
       -0.0001063398  -0.0004848879   0.0012655549  -0.0000310721   0.0022118350
       -0.0012122968  -0.0001462294  -0.0026235317  -0.0001206003  -0.0000716620
        0.0012744854  -0.0011456313   0.0000509673  -0.0009067925  -0.0005285972
        0.0000377626   0.0004824583  -0.0001241809  -0.0000579512  -0.0008945600
        0.0006635628  -0.0000954327   0.0012597242   0.0010355595   0.0000133819
       -0.0000668048  -0.0000587241  -0.0000127091  -0.0001997144  -0.0001258028
        0.0000126603   0.0004081770   0.0000522818  -0.0000129610  -0.0001698059
        0.0003693811  -0.0000484738   0.0000252263  -0.0002440268   0.0000247376
        0.0000052467  -0.0000145201   0.0000978579   0.0003941978  -0.0001828151
        0.0000483923  -0.0005241881   0.0005692822  -0.0001057639   0.0001489343
       -0.0005041360  -0.0001573948  -0.0003687709   0.0001672733  -0.0001526893
        0.0002270019  -0.0002035300   0.0000203924  -0.0001751203   0.0003539724
        0.0001057498   0.0005053496  -0.0001271575   0.0002043796  -0.0001213150
        0.0001189718  -0.0000510548   0.0001247763  -0.0000560443  -0.0001075864
        0.0009385081   0.0001543179  -0.0004649287  -0.0077573403  -0.0155862876
        0.0094374833   0.0124905449   0.0246188551  -0.0086646051   0.0001565548
       -0.0179147883   0.0120864571  -0.1929990481   0.0174203718  -0.1278853830
        0.0007066885  -0.0008287968   0.0003774422   0.0000760836  -0.0003480671
       -0.0000963749  -0.0000273265   0.0000424927   0.0000165670   0.0000223977
        0.0000639033  -0.0000160565   0.0000555828   0.0000079639  -0.0000021740
       -0.0000099906  -0.0000063768   0.0000525195   0.0000047286  -0.0000482761
        0.0000504788   0.0000252538  -0.0000412474   0.0000312670  -0.0000245539
        0.0000542015   0.0000193940  -0.0000338839   0.0000097460   0.0000086173
        0.0000028119   0.0000383248  -0.0000024653   0.0000227803   0.0000242891
       -0.0000025689   0.0000184345  -0.0000180338   0.0000013458  -0.0000206561
        0.0000115861  -0.0000069292   0.0000026082  -0.0000192120  -0.0000284235
        0.0000217248  -0.0000184753  -0.0000018752   0.0000219843   0.0000017928
        0.0000226978  -0.0000059878   0.0000172436   0.0000081069   0.0000372265
       -0.0000423817   0.0000560432  -0.0000177749  -0.0001880332  -0.0000667460
        0.0003429397  -0.0002355549   0.0005073014  -0.0014741162  -0.0007381147
       -0.0059383427
       -0.0280910453  -0.2223392501   0.1000454107   0.1336346123   0.5086591667
       -0.1782237812  -0.1057398110  -0.1994956795   0.0300343633  -0.0434977740
        0.0148177950  -0.0442449457  -0.0001597715   0.0092337599   0.0054146672
        0.0007865341  -0.0031151484   0.0008650944  -0.0013517730   0.0021183154
       -0.0001205194  -0.0003817274  -0.0015379875  -0.0000405044  -0.0002243687
        0.0009362142   0.0001209243   0.0005379952  -0.0013936756  -0.0002412044
        0.0005196506   0.0010691647   0.0001565278  -0.0012853654  -0.0014205311
       -0.0008331584  -0.0012370558   0.0028264910  -0.0001155835   0.0055789060
       -0.0022007318  -0.0001604516  -0.0065317581  -0.0003803953  -0.0001092546
        0.0030671862  -0.0028014334   0.0001609304  -0.0022597386  -0.0013791429
        0.0001046669   0.0013355127  -0.0001879722  -0.0001624259  -0.0023067581
        0.0014986797  -0.0002433797   0.0031742883   0.0026949643  -0.0000121337
       -0.0000551107   0.0000461168  -0.0000349947  -0.0005396469  -0.0003858380
        0.0000311951   0.0009815996   0.0001575558  -0.0000380443  -0.0003617585
        0.0008321241  -0.0001084610   0.0000961381  -0.0005603129   0.0000537831
        0.0000174040   0.0000253381   0.0002134527   0.0007273877  -0.0004520563
        0.0001199102  -0.0011242880   0.0012235397  -0.0002095713   0.0002663446
       -0.0010728548  -0.0003363088  -0.0007714022   0.0003298683  -0.0003198286
        0.0004732184  -0.0004303428   0.0000448726  -0.0003575453   0.0007434525
        0.0002361498   0.0010691412  -0.0002312631   0.0004308355  -0.0006205166
       -0.0002754348  -0.0002949432   0.0002227807  -0.0000644767  -0.0001434808
        0.0030673861   0.0000348715   0.0002124831  -0.0203483469  -0.0361458684
        0.0088841047   0.0641555349   0.0085636824   0.0415005610  -0.0007356174
       -0.0191465650   0.0128971117   0.0167384322  -0.0435264535   0.0199458644
       -0.0171032471  -0.0193125156   0.0017425746  -0.0002182187  -0.0002792997
        0.0000165256  -0.0000838911   0.0000726391   0.0000097524   0.0000330412
        0.0001052381  -0.0000517628   0.0000952528   0.0000131074   0.0000254627
       -0.0000489384  -0.0000394973   0.0001640017   0.0000321047  -0.0000815553
        0.0001156501   0.0000362218  -0.0000767177   0.0000707882  -0.0000306802
        0.0000960541   0.0000669404  -0.0000689612  -0.0000035816   0.0000189971
        0.0000034502   0.0000408152  -0.0000075815   0.0000446018   0.0000321811
        0.0000007311   0.0000389315  -0.0000246509   0.0000035703  -0.0000264923
        0.0000126573  -0.0000010679   0.0000000364  -0.0000199795  -0.0000356429
        0.0000228147  -0.0000225492  -0.0000030072   0.0000228729   0.0000026520
        0.0000362081  -0.0000062970   0.0000199774   0.0000139945   0.0000723798
       -0.0000541976   0.0000790568   0.0000631333  -0.0003221658  -0.0001001737
       -0.0000940314  -0.0004206849  -0.0001725371  -0.0012529565   0.0029943871
        0.0025275859
       -0.0051482289   0.1419825913  -0.1489840226   0.2044980800  -0.1782237812
        0.3874032023  -0.0416999079  -0.0084531115  -0.0682760522  -0.0055794293
       -0.0173068631   0.0072173414  -0.0048342321   0.0021254096  -0.0001132011
        0.0004500807   0.0007554928   0.0000343169   0.0002041148  -0.0007232813
        0.0001565150   0.0001176415   0.0004382743  -0.0001181997   0.0000297875
       -0.0002689838  -0.0000656041  -0.0000743395   0.0003627216   0.0000278387
       -0.0000258457   0.0000196097  -0.0001448249  -0.0001609830   0.0004534085
        0.0003926950   0.0005261247  -0.0011625621   0.0000604153  -0.0023138371
        0.0005952449   0.0000100194   0.0027073809   0.0002136028  -0.0000074276
       -0.0012236948   0.0011329523  -0.0000611952   0.0009252510   0.0005912806
       -0.0000402520  -0.0006166038   0.0000129760   0.0000724786   0.0009944827
       -0.0005373258   0.0000786654  -0.0013449218  -0.0011768300   0.0000307252
       -0.0000254955  -0.0001136641   0.0000271838   0.0002398549   0.0001996113
       -0.0000274120  -0.0003901172  -0.0000752464   0.0000179711   0.0001252296
       -0.0003096233   0.0000324320  -0.0000468620   0.0002158366  -0.0000048438
       -0.0000148281  -0.0000337778  -0.0000870943  -0.0001933061   0.0001891590
       -0.0000452204   0.0003896905  -0.0004236576   0.0000681454  -0.0000648269
        0.0003562542   0.0001086085   0.0002488293  -0.0001014620   0.0001075420
       -0.0001516477   0.0001364690  -0.0000093728   0.0001146105  -0.0002407704
       -0.0000782226  -0.0003520770   0.0000504959  -0.0001370392   0.0003813958
        0.0003583833   0.0002226834  -0.0001117507  -0.0001194277   0.0000716502
       -0.0025618275  -0.0008711785  -0.0001789986   0.0121658494   0.0114710975
       -0.0042015812  -0.0371508697   0.0121997834  -0.0338724056   0.0003281129
        0.0007028790   0.0002334166  -0.1277647545   0.0190374618  -0.1412236274
        0.0124698730   0.0136270431  -0.0003051342   0.0001534070   0.0000055601
        0.0000337725   0.0000258342   0.0000118760  -0.0000024098  -0.0000082834
       -0.0000175447   0.0000447193  -0.0000159920   0.0000288198   0.0000186975
       -0.0000123037   0.0000237236  -0.0000992692  -0.0000170512   0.0000185864
       -0.0000417474  -0.0000035812   0.0000230280  -0.0000240781   0.0000050224
       -0.0000243912  -0.0000306417   0.0000242706   0.0000097272  -0.0000105091
       -0.0000004074  -0.0000001575  -0.0000014215  -0.0000121464  -0.0000057806
       -0.0000056668  -0.0000125678   0.0000021524  -0.0000017734   0.0000030197
       -0.0000046859   0.0000017101   0.0000009768  -0.0000032924   0.0000115467
       -0.0000008656  -0.0000000424   0.0000071515  -0.0000023872  -0.0000001225
       -0.0000015795  -0.0000028829  -0.0000009329  -0.0000016966  -0.0000286024
        0.0000153918  -0.0000270751  -0.0000371804   0.0001186445   0.0000143717
        0.0004839612  -0.0000662781   0.0002235301  -0.0056082432   0.0027792266
        0.0015002539
        0.0174906299  -0.0485323669   0.0456763671  -0.2038678775  -0.1057398110
       -0.0416999079   0.4958672330   0.1504029520   0.1741521645  -0.1842244041
        0.0006404402  -0.0953273326  -0.0379316413  -0.0226235668  -0.0172652606
       -0.0014353346   0.0080807103  -0.0020682659   0.0021907553  -0.0032051307
       -0.0006868300   0.0007840959   0.0027734295   0.0003917898   0.0000566651
       -0.0014759936  -0.0000719755  -0.0007073347   0.0021823193   0.0004524894
       -0.0009809713  -0.0014822972  -0.0000282756   0.0012621896   0.0022400938
        0.0012503516   0.0012613722  -0.0045697148   0.0002051617  -0.0071401730
        0.0038558737   0.0004939502   0.0088476283   0.0006466210   0.0003717611
       -0.0043345143   0.0039931740  -0.0002288247   0.0032561413   0.0020940741
       -0.0001759949  -0.0022660745   0.0002803639   0.0002150289   0.0033200805
       -0.0022792924   0.0003080230  -0.0044284399  -0.0038629051  -0.0000355172
        0.0000485207  -0.0000216316   0.0000356609   0.0008313562   0.0004878222
       -0.0000435197  -0.0014540343  -0.0002051280   0.0000385325   0.0005423424
       -0.0013239481   0.0001563368  -0.0001150862   0.0009321553  -0.0001066197
       -0.0000433770  -0.0002118449  -0.0002756288  -0.0006981979   0.0007997262
       -0.0001725458   0.0015940589  -0.0017269860   0.0002902722  -0.0003622136
        0.0015548052   0.0004915385   0.0011195043  -0.0004788384   0.0004726106
       -0.0006785415   0.0006248082  -0.0000636798   0.0005163909  -0.0010771559
       -0.0003535269  -0.0015445599   0.0003126079  -0.0006343704   0.0004037364
       -0.0002390628   0.0000124132   0.0001024618   0.0001935268   0.0003535519
       -0.0040283456  -0.0047508855  -0.0016884898   0.0105303990   0.0480076428
       -0.0308169012  -0.0365034579  -0.0142449289  -0.0136656328   0.0024291577
       -0.0012251751  -0.0023242219  -0.0196976039  -0.0167394420  -0.0033888169
       -0.0419524969   0.0072240675  -0.0117534410   0.0005757489  -0.0003366155
       -0.0001359696   0.0001161943  -0.0001040847  -0.0000236913  -0.0000377992
       -0.0001483247  -0.0000226966  -0.0001007798  -0.0000486657  -0.0000830081
       -0.0000297530   0.0000797642  -0.0001933483  -0.0000690250   0.0000967354
       -0.0001511081  -0.0000482992   0.0000916446  -0.0000971730   0.0000415744
       -0.0000834787  -0.0000958201   0.0000767446   0.0000113936  -0.0000367014
       -0.0000122820  -0.0000489199   0.0000009714  -0.0000586124  -0.0000419929
       -0.0000139936  -0.0000489829   0.0000353735  -0.0000096247   0.0000270721
       -0.0000153300   0.0000046767   0.0000035251   0.0000246752   0.0000506076
       -0.0000346145   0.0000347118   0.0000058602  -0.0000288314  -0.0000023311
       -0.0000551980   0.0000071785  -0.0000136503  -0.0000281144  -0.0001460483
        0.0000864402  -0.0001652610  -0.0002266888   0.0005408973   0.0000566628
        0.0025699118  -0.0013701265  -0.0018477959  -0.0006362730  -0.0000992239
        0.0003483006
       -0.0059280013  -0.0525002767   0.0337007319  -0.1626372332  -0.1994956795
       -0.0084531115   0.1504029520   0.5354421668  -0.1959084235   0.0357792090
       -0.0794633780   0.0476437368  -0.0241084700   0.0005053832  -0.0134514007
       -0.0005706326   0.0008704110  -0.0011306437  -0.0003206495  -0.0012951328
        0.0002956278   0.0000877072   0.0004785907  -0.0002494064   0.0000912391
       -0.0002733837  -0.0000441341  -0.0001176111   0.0004030207   0.0001589785
       -0.0001442392  -0.0002910027  -0.0000043429  -0.0013121828   0.0000028067
        0.0008152847   0.0005009685  -0.0007676232   0.0001159965  -0.0009686178
        0.0005330125   0.0000085798   0.0009102339  -0.0001645359   0.0000120211
       -0.0004318450   0.0003327358  -0.0000058422   0.0001896893  -0.0000225906
        0.0000033681   0.0002678731   0.0002017457   0.0000113084   0.0000635374
       -0.0002985380   0.0000650603  -0.0002445094  -0.0000706918   0.0000108729
        0.0001659190   0.0002601051  -0.0000309425  -0.0000532489  -0.0000892962
        0.0000131339  -0.0000625257   0.0000262833   0.0000003620   0.0000855435
       -0.0000993922   0.0000215386   0.0000268173   0.0000442491  -0.0000175662
        0.0000017907   0.0001210894  -0.0000594637  -0.0005617561  -0.0000264472
       -0.0000278326   0.0003198511  -0.0003520243   0.0000652394  -0.0001581607
        0.0003035308   0.0000949422   0.0002463998  -0.0001277364   0.0000854722
       -0.0001506473   0.0001353659  -0.0000153468   0.0001288315  -0.0002300208
       -0.0000511345  -0.0003070867   0.0001534055  -0.0001313683   0.0001765886
       -0.0000440855   0.0001521570  -0.0001225760   0.0000762665  -0.0000682898
       -0.0002316187  -0.0027950420  -0.0015223492   0.0239044967   0.0070193682
        0.0123475616  -0.0190022838  -0.0061030276  -0.0128014544  -0.0014355013
       -0.0019073055   0.0054685732   0.0000846482   0.0009604232  -0.0006715655
        0.0067969526  -0.1990387479   0.1293676846   0.0001638911  -0.0006485770
       -0.0006152796   0.0000223913  -0.0000433394  -0.0000271296  -0.0000236089
       -0.0000759554   0.0000592916  -0.0000471456  -0.0000137183  -0.0000075269
       -0.0001353665  -0.0000228695  -0.0001361573   0.0000119082   0.0000582798
       -0.0000260574  -0.0000402876   0.0000452266  -0.0000126986   0.0000278365
       -0.0000556297  -0.0000197370   0.0000383504  -0.0000189756  -0.0000101171
       -0.0000067013  -0.0000467398  -0.0000021169  -0.0000341930  -0.0000274688
        0.0000012771  -0.0000220897   0.0000214667  -0.0000037217   0.0000241316
       -0.0000052345  -0.0000038408  -0.0000037026   0.0000303728   0.0000257013
       -0.0000235639   0.0000230679  -0.0000013508  -0.0000312584   0.0000014073
       -0.0000245280   0.0000038737  -0.0000202901  -0.0000003402  -0.0000787746
        0.0000361123  -0.0000132566  -0.0000391675   0.0000920156   0.0001153904
       -0.0009423147  -0.0021190184   0.0054661829  -0.0002260596   0.0003758658
       -0.0005775977
        0.0167170643   0.0049750976   0.0097845182  -0.0025767945   0.0300343633
       -0.0682760522   0.1741521645  -0.1959084235   0.3803310823  -0.1298092370
        0.0154572658  -0.1491119948  -0.0058274106  -0.0081702611  -0.0009641547
        0.0002599787   0.0017813576  -0.0005133470   0.0013204115  -0.0010580189
       -0.0008020430  -0.0001362109   0.0006422390   0.0000562222   0.0002675686
       -0.0005721781   0.0000374732  -0.0003768503   0.0007227464   0.0001146870
       -0.0000414293  -0.0000796959   0.0000117905   0.0005939029   0.0007701481
        0.0006062399   0.0006887981  -0.0015591783   0.0001250087  -0.0030272442
        0.0011298693   0.0001563735   0.0036812926   0.0002560199   0.0001822276
       -0.0017597736   0.0016237624  -0.0000746352   0.0013086710   0.0008189434
       -0.0000730925  -0.0008032292   0.0000898471   0.0000969477   0.0013379755
       -0.0008690180   0.0000920441  -0.0018190317  -0.0016113899   0.0000042334
        0.0000202513  -0.0000467017   0.0000225297   0.0003236660   0.0002228421
       -0.0000155475  -0.0005733535  -0.0000892390   0.0000283751   0.0002032519
       -0.0004874433   0.0000664077  -0.0000550140   0.0003321725  -0.0000228164
       -0.0000183800  -0.0000372302  -0.0001193348  -0.0003900063   0.0002773474
       -0.0000671813   0.0006485443  -0.0007026575   0.0001159758  -0.0001423485
        0.0006071274   0.0001879567   0.0004384547  -0.0001825517   0.0001798811
       -0.0002615903   0.0002417769  -0.0000193659   0.0002027956  -0.0004154570
       -0.0001284947  -0.0005987374   0.0001226731  -0.0002392836   0.0002074418
        0.0002976035  -0.0000071143   0.0002192793   0.0000169446   0.0004010331
       -0.0015288017   0.0003017088   0.0001009007  -0.0091279177   0.0343277315
       -0.0317805804  -0.0109754107  -0.0099819337  -0.0057134941  -0.0024368193
        0.0055884379   0.0017877739  -0.0151343583  -0.0125594460  -0.0013246546
       -0.0116015003   0.1294466270  -0.1369312103  -0.0002937967  -0.0007710110
       -0.0001106194   0.0000004797  -0.0000160136  -0.0000255504  -0.0000780721
       -0.0000928786   0.0000118369  -0.0000414505   0.0000087707  -0.0000431232
        0.0000407027   0.0000609480  -0.0001440923  -0.0000346894   0.0000362075
       -0.0000627998  -0.0000142358   0.0000386165  -0.0000394375   0.0000086041
       -0.0000304989  -0.0000408771   0.0000349385   0.0000127848  -0.0000108412
       -0.0000082778  -0.0000031885   0.0000103934  -0.0000287608  -0.0000107248
       -0.0000007970  -0.0000236624   0.0000134248   0.0000060343   0.0000084706
        0.0000035333  -0.0000025089   0.0000085938   0.0000084697   0.0000164464
       -0.0000061602   0.0000114793   0.0000094365  -0.0000096130  -0.0000018860
       -0.0000079015  -0.0000079548   0.0000004719   0.0000008236  -0.0000468875
        0.0000161199  -0.0001134779  -0.0002870993   0.0002633050  -0.0000215785
       -0.0025683261   0.0051447861   0.0017712579  -0.0002228664  -0.0004465451
        0.0004920909
       -0.0067483945   0.0186321258  -0.0131114956  -0.0504637952  -0.0434977740
       -0.0055794293  -0.1842244041   0.0357792090  -0.1298092370   0.5002070459
        0.1009367421   0.1743026406  -0.1636983921  -0.0779793498  -0.0078036341
        0.0067074400  -0.0168866749   0.0038579844  -0.0027033950   0.0059947850
        0.0008238515  -0.0014668026  -0.0042451107  -0.0011786393   0.0007149874
        0.0017308031   0.0000531726   0.0005179075  -0.0027169236  -0.0006455818
        0.0022157452   0.0057687557   0.0007024638  -0.0081196886  -0.0024093805
       -0.0004807887  -0.0010022354   0.0029975163  -0.0000620615   0.0056753850
       -0.0050439650  -0.0008745234  -0.0073541520  -0.0005734983  -0.0004703256
        0.0039118595  -0.0036599788   0.0002151455  -0.0029793883  -0.0020318539
        0.0001732206   0.0023763954  -0.0004155529  -0.0001568010  -0.0028126645
        0.0024788880  -0.0003191155   0.0037439748   0.0032990341   0.0000954402
       -0.0001639346  -0.0003512433  -0.0000181844  -0.0007791910  -0.0001577565
        0.0000190370   0.0013494177   0.0001339424  -0.0000392721  -0.0005514038
        0.0014801007  -0.0001710410   0.0000519477  -0.0011649070   0.0001196702
        0.0001025217   0.0004263079   0.0002262483   0.0003772188  -0.0009133450
        0.0001599933  -0.0014952357   0.0016121078  -0.0002830046   0.0003799767
       -0.0016057589  -0.0005287161  -0.0011622264   0.0004882390  -0.0005039170
        0.0007190046  -0.0006711515   0.0000636795  -0.0005343893   0.0011311412
        0.0003869959   0.0015879140  -0.0003219146   0.0006789831   0.0001979258
        0.0016503978   0.0003604694   0.0012778028  -0.0015837598  -0.0003281901
       -0.0266295868  -0.0153151250  -0.0045405734  -0.0770866841  -0.0056940036
       -0.0100622304   0.0122581041  -0.0091429397   0.0175424655   0.0006852251
        0.0007305796  -0.0004660424   0.0003020640  -0.0046508759  -0.0021633920
       -0.0017458370   0.0013768849  -0.0027339831  -0.0003327741   0.0013167759
        0.0006412184  -0.0002324718   0.0003538147   0.0000434671   0.0000410913
        0.0002763883   0.0002006999   0.0003181344   0.0003923110   0.0001193002
       -0.0003280118  -0.0000093220   0.0002133376   0.0000402385  -0.0000882701
        0.0001421702   0.0000512076  -0.0000736019   0.0000943819  -0.0000569033
        0.0001218267   0.0000626312  -0.0000759910   0.0000129935   0.0000310542
       -0.0000045187   0.0000760358  -0.0000021988   0.0000417552   0.0000477120
       -0.0000027481   0.0000322745  -0.0000430065   0.0000149763  -0.0000398293
        0.0000324444  -0.0000155796   0.0000079651  -0.0000365573  -0.0000614986
        0.0000437400  -0.0000400627   0.0000021457   0.0000368839  -0.0000003623