 Entering Gaussian System
 *********************************************
 Gaussian 98:
 frequency output generated by the xtb code
 *********************************************
                         Standard orientation:
 --------------------------------------------------------------------
  Center     Atomic     Atomic              Coordinates (Angstroms)
  Number     Number      Type              X           Y           Z
 --------------------------------------------------------------------
    1          6             0       13.206093   -3.346223   -3.048040
    2          6             0       13.677897   -2.790035   -1.737983
    3          6             0       14.638094   -3.466605   -0.991519
    4          6             0       15.087429   -2.943350    0.207903
    5          6             0       14.585568   -1.747379    0.685982
    6          6             0       13.626974   -1.054723   -0.051007
    7          7             0       13.104921    0.158484    0.419199
    8          6             0       13.939921    1.075245    1.065491
    9          6             0       15.261185    1.245555    0.650165
   10          6             0       16.083891    2.148871    1.294868
   11          6             0       15.605863    2.902371    2.355021
   12          6             0       14.293525    2.740429    2.769511
   13          6             0       13.465718    1.833401    2.136794
   14          6             0       11.748925    0.447271    0.230678
   15          6             0       11.338087    1.749295   -0.065661
   16          6             0       10.003067    2.047102   -0.263246
   17          6             0        9.065016    1.029858   -0.175295
   18          6             0        9.472980   -0.280819    0.119796
   19          6             0       10.798620   -0.575335    0.328653
   20          6             0        8.284726   -1.216030    0.162195
   21          6             0        8.407208   -2.305343   -0.909079
   22          6             0        8.120933   -1.846756    1.548965
   23          6             0        7.145461   -0.268448   -0.145907
   24          6             0        5.801909   -0.544104   -0.244247
   25          6             0        4.904845    0.488244   -0.535713
   26          6             0        3.466714    0.211471   -0.656337
   27          6             0        3.022780   -0.938138   -1.311697
   28          6             0        1.674722   -1.213389   -1.452479
   29          6             0        0.752203   -0.324377   -0.923997
   30          6             0        1.186126    0.832340   -0.258043
   31          6             0        2.528296    1.101494   -0.125250
   32          6             0        0.006025    1.643322    0.231473
   33          6             0       -0.014092    3.034008   -0.412453
   34          6             0        0.010780    1.762645    1.759326
   35          6             0       -1.157075    0.803193   -0.249538
   36          6             0       -2.504578    1.039328   -0.107832
   37          6             0       -3.424337    0.127350   -0.634344
   38          6             0       -4.868207    0.368725   -0.506128
   39          6             0       -5.387302    1.651699   -0.685658
   40          6             0       -6.743942    1.902229   -0.585871
   41          6             0       -7.598670    0.850525   -0.295059
   42          6             0       -7.087871   -0.443826   -0.108569
   43          6             0       -5.738453   -0.686159   -0.213887
   44          6             0       -8.202130   -1.420119    0.201450
   45          6             0       -8.290110   -2.519249   -0.862487
   46          6             0       -8.026086   -2.037606    1.593226
   47          6             0       -9.413832   -0.515159    0.162430
   48          6             0      -10.731922   -0.844236    0.368089
   49          6             0      -11.704785    0.159767    0.303137
   50          7             0      -13.049928   -0.155023    0.523666
   51          6             0      -13.398078   -1.111623    1.483455
   52          6             0      -14.473491   -1.973900    1.266137
   53          6             0      -14.818418   -2.912965    2.219019
   54          6             0      -14.095103   -3.018294    3.396277
   55          6             0      -13.022532   -2.168575    3.615428
   56          6             0      -12.676690   -1.219213    2.673349
   57          6             0      -14.052595    0.499479   -0.205404
   58          6             0      -15.249986    0.864352    0.407008
   59          6             0      -16.229869    1.505942   -0.326968
   60          6             0      -16.028608    1.800662   -1.663631
   61          6             0      -14.836350    1.448704   -2.289472
   62          6             0      -14.626432    1.755171   -3.742115
   63          6             0      -13.861277    0.794442   -1.554765
   64          6             0      -11.325525    1.474489    0.020327
   65          6             0      -10.001404    1.801830   -0.201774
   66          6             0       -9.038939    0.806613   -0.126849
   67          6             0       -2.956559   -1.010373   -1.293867
   68          6             0       -1.603136   -1.252836   -1.442986
   69          6             0       -0.699277   -0.342160   -0.919160
   70          6             0        5.391353    1.783165   -0.720606
   71          6             0        6.741771    2.067351   -0.626935
   72          6             0        7.623387    1.037654   -0.337673
   73          6             0       13.185861   -1.585630   -1.262633
   74          1             0       13.977497   -3.216796   -3.807777
   75          1             0       12.305020   -2.839686   -3.384911
   76          1             0       13.001639   -4.411763   -2.960480
   77          1             0       15.032644   -4.404892   -1.353541
   78          1             0       15.829605   -3.476979    0.784239
   79          1             0       14.928830   -1.346500    1.628504
   80          1             0       15.634875    0.666080   -0.181640
   81          1             0       17.104121    2.271280    0.960581
   82          1             0       16.250865    3.609857    2.854328
   83          1             0       13.912759    3.319263    3.598715
   84          1             0       12.445908    1.702952    2.468914
   85          1             0       12.082423    2.528430   -0.146320
   86          1             0        9.702897    3.058272   -0.495640
   87          1             0       11.119978   -1.578906    0.565793
   88          1             0        7.519781   -2.933892   -0.910375
   89          1             0        9.276823   -2.928808   -0.714076
   90          1             0        8.515508   -1.854750   -1.893942
   91          1             0        8.979941   -2.471193    1.783348
   92          1             0        7.224053   -2.460980    1.580112
   93          1             0        8.036738   -1.070866    2.307548
   94          1             0        5.428993   -1.544723   -0.080148
   95          1             0        3.750339   -1.613406   -1.738951
   96          1             0        1.350204   -2.104309   -1.970447
   97          1             0        2.866438    1.982497    0.400828
   98          1             0       -0.016924    2.946769   -1.497477
   99          1             0       -0.903589    3.579076   -0.105123
  100          1             0        0.863279    3.601800   -0.111452
  101          1             0        0.025634    0.774343    2.215032
  102          1             0        0.889079    2.311415    2.091394
  103          1             0       -0.878585    2.288421    2.098995
  104          1             0       -2.860749    1.911329    0.421340
  105          1             0       -4.714881    2.460912   -0.932727
  106          1             0       -7.127465    2.901025   -0.736132
  107          1             0       -5.340413   -1.677707   -0.053823
  108          1             0       -7.382295   -3.118021   -0.860829
  109          1             0       -9.137557   -3.170734   -0.662150
  110          1             0       -8.414874   -2.079336   -1.850162
  111          1             0       -8.873164   -2.676793    1.831903
  112          1             0       -7.957434   -1.254721    2.346211
  113          1             0       -7.117242   -2.633710    1.629090
  114          1             0      -11.029371   -1.861086    0.578676
  115          1             0      -15.034307   -1.901381    0.345523
  116          1             0      -15.653388   -3.573902    2.035885
  117          1             0      -14.365423   -3.755823    4.137188
  118          1             0      -12.455377   -2.238251    4.532527
  119          1             0      -11.847331   -0.550738    2.853717
  120          1             0      -15.404167    0.645955    1.453575
  121          1             0      -17.155605    1.787932    0.153864
  122          1             0      -16.798208    2.307653   -2.227279
  123          1             0      -14.894179    2.788469   -3.956309
  124          1             0      -13.590555    1.592816   -4.029287
  125          1             0      -15.259495    1.113836   -4.355816
  126          1             0      -12.933671    0.505212   -2.028471
  127          1             0      -12.084988    2.241944   -0.019586
  128          1             0       -9.725466    2.823532   -0.417450
  129          1             0       -3.670142   -1.702349   -1.717965
  130          1             0       -1.260266   -2.134980   -1.964152
  131          1             0        4.698167    2.574969   -0.966724
  132          1             0        7.099867    3.075009   -0.780826
  133          1             0       12.447270   -1.042242   -1.835207
 --------------------------------------------------------------------
     1 basis functions        1 primitive gaussians
     1 alpha electrons        1 beta electrons
 
 Harmonic frequencies (cm**-1), IR intensities (km*mol⁻¹),
 Raman scattering activities (A**4/amu), Raman depolarization ratios,
 reduced masses (AMU), force constants (mDyne/A) and normal coordinates:
                      1                      2                      3
                        a                      a                      a 
 Frequencies --     3.7760                 6.8195                10.8661
 Red. masses --    11.1819                11.0724                11.0096
 Frc consts  --     0.0000                 0.0000                 0.0000
 IR Inten    --     0.0111                 0.0287                 0.0363
 Raman Activ --     0.0000                 0.0000                 0.0000
 Depolar     --     0.0000                 0.0000                 0.0000
 Atom AN      X      Y      Z        X      Y      Z        X      Y      Z
   1   6     0.06  -0.03   0.07     0.17   0.10  -0.01    -0.13   0.04  -0.02
   2   6     0.02  -0.04   0.09     0.13   0.10   0.01    -0.07   0.03  -0.04
   3   6    -0.02  -0.05   0.12     0.14   0.12   0.02    -0.03   0.03  -0.09
   4   6    -0.05  -0.06   0.14     0.10   0.13   0.03     0.02   0.03  -0.10
   5   6    -0.05  -0.05   0.12     0.05   0.10   0.04     0.03   0.02  -0.07
   6   6    -0.02  -0.04   0.09     0.04   0.08   0.03    -0.00   0.02  -0.02
   7   7    -0.03  -0.04   0.08    -0.01   0.07   0.03     0.01   0.01   0.01
   8   6    -0.04  -0.04   0.11    -0.05   0.08   0.06     0.03   0.01  -0.02
   9   6    -0.02  -0.06   0.15    -0.05   0.13   0.10     0.02   0.02  -0.07
  10   6    -0.03  -0.07   0.18    -0.09   0.14   0.13     0.04   0.02  -0.10
  11   6    -0.06  -0.06   0.16    -0.14   0.11   0.13     0.08   0.02  -0.08
  12   6    -0.07  -0.05   0.12    -0.14   0.06   0.10     0.09   0.01  -0.03
  13   6    -0.06  -0.04   0.09    -0.10   0.04   0.06     0.07   0.01   0.00
  14   6    -0.02  -0.02   0.04    -0.01   0.03  -0.00     0.00   0.01   0.06
  15   6     0.00  -0.02   0.03    -0.03   0.02  -0.00    -0.01   0.01   0.07
  16   6     0.01  -0.01  -0.00    -0.03  -0.00  -0.03    -0.01   0.01   0.11
  17   6    -0.00   0.00  -0.03    -0.01  -0.03  -0.05    -0.01   0.01   0.12
  18   6    -0.02  -0.00  -0.02     0.01  -0.02  -0.05     0.00   0.01   0.11
  19   6    -0.03  -0.02   0.01     0.01   0.01  -0.03     0.01   0.01   0.08
  20   6    -0.03   0.01  -0.06     0.03  -0.04  -0.07     0.01   0.00   0.13
  21   6    -0.01   0.01  -0.06     0.06  -0.03  -0.08     0.00  -0.01   0.13
  22   6    -0.06  -0.00  -0.06     0.03  -0.06  -0.08     0.02   0.01   0.13
  23   6    -0.01   0.02  -0.07     0.01  -0.06  -0.07    -0.00  -0.00   0.13
  24   6    -0.01   0.03  -0.10     0.01  -0.08  -0.07     0.00  -0.01   0.13
  25   6     0.00   0.04  -0.11    -0.00  -0.09  -0.07    -0.00  -0.02   0.12
  26   6    -0.00   0.05  -0.12    -0.00  -0.11  -0.05    -0.00  -0.03   0.09
  27   6    -0.00   0.06  -0.13    -0.00  -0.11  -0.05     0.02  -0.04   0.09
  28   6    -0.00   0.06  -0.14    -0.00  -0.12  -0.04     0.03  -0.04   0.04
  29   6    -0.00   0.06  -0.14    -0.00  -0.12  -0.03     0.01  -0.04   0.01
  30   6     0.00   0.06  -0.13     0.00  -0.12  -0.03    -0.01  -0.03   0.02
  31   6     0.00   0.06  -0.13     0.00  -0.11  -0.04    -0.02  -0.03   0.06
  32   6     0.00   0.06  -0.13     0.00  -0.12  -0.02    -0.03  -0.03  -0.03
  33   6     0.00   0.06  -0.14     0.00  -0.12  -0.01    -0.01  -0.04  -0.04
  34   6     0.01   0.07  -0.13     0.01  -0.13  -0.02    -0.08  -0.02  -0.03
  35   6     0.00   0.06  -0.13     0.00  -0.12  -0.02    -0.01  -0.03  -0.06
  36   6     0.00   0.06  -0.12     0.00  -0.11  -0.01    -0.02  -0.03  -0.11
  37   6    -0.00   0.06  -0.11    -0.00  -0.11  -0.02    -0.00  -0.04  -0.13
  38   6    -0.00   0.05  -0.09     0.00  -0.09  -0.02    -0.00  -0.04  -0.16
  39   6    -0.01   0.04  -0.08     0.02  -0.08  -0.02    -0.00  -0.04  -0.17
  40   6    -0.01   0.03  -0.06     0.03  -0.06  -0.02    -0.00  -0.04  -0.17
  41   6    -0.00   0.02  -0.04     0.01  -0.05  -0.01    -0.00  -0.03  -0.16
  42   6     0.01   0.03  -0.05    -0.01  -0.05  -0.02    -0.01  -0.03  -0.15
  43   6     0.01   0.04  -0.08    -0.02  -0.08  -0.02    -0.01  -0.03  -0.15
  44   6     0.03   0.02  -0.03    -0.03  -0.03  -0.01    -0.01  -0.02  -0.13
  45   6     0.01   0.02  -0.03    -0.05  -0.03  -0.02    -0.03  -0.02  -0.14
  46   6     0.06   0.01  -0.04    -0.03  -0.04  -0.02     0.01  -0.03  -0.14
  47   6     0.02   0.01  -0.01    -0.01  -0.01  -0.00    -0.00  -0.01  -0.11
  48   6     0.03  -0.00   0.02    -0.02   0.01   0.01     0.00  -0.00  -0.07
  49   6     0.02  -0.01   0.04     0.00   0.03   0.02     0.01   0.01  -0.04
  50   7     0.03  -0.03   0.08    -0.00   0.07   0.03     0.02   0.02   0.02
  51   6     0.06  -0.03   0.08    -0.02   0.07   0.03     0.05   0.03   0.04
  52   6     0.07  -0.05   0.10    -0.05   0.11   0.04     0.03   0.03   0.08
  53   6     0.10  -0.05   0.11    -0.07   0.11   0.04     0.06   0.04   0.10
  54   6     0.12  -0.04   0.10    -0.06   0.09   0.03     0.10   0.04   0.08
  55   6     0.11  -0.02   0.08    -0.03   0.05   0.02     0.12   0.04   0.03
  56   6     0.08  -0.02   0.07    -0.01   0.05   0.02     0.09   0.03   0.01
  57   6     0.00  -0.04   0.09     0.01   0.09   0.04    -0.01   0.03   0.06
  58   6     0.01  -0.06   0.11     0.03   0.13   0.05     0.02   0.04   0.12
  59   6    -0.02  -0.07   0.13     0.04   0.17   0.06    -0.01   0.05   0.16
  60   6    -0.04  -0.07   0.13     0.03   0.16   0.06    -0.06   0.05   0.15
  61   6    -0.05  -0.05   0.11     0.01   0.12   0.05    -0.09   0.04   0.10
  62   6    -0.08  -0.04   0.10     0.01   0.11   0.05    -0.16   0.04   0.09
  63   6    -0.03  -0.03   0.09     0.00   0.09   0.04    -0.07   0.03   0.06
  64   6     0.00  -0.01   0.04     0.03   0.03   0.01     0.01   0.00  -0.06
  65   6    -0.01   0.00   0.01     0.03   0.00   0.00     0.01  -0.01  -0.11
  66   6     0.00   0.01  -0.01     0.01  -0.02  -0.01     0.00  -0.02  -0.13
  67   6    -0.00   0.06  -0.12    -0.01  -0.11  -0.01     0.02  -0.04  -0.11
  68   6    -0.00   0.06  -0.13    -0.01  -0.12  -0.02     0.02  -0.04  -0.06
  69   6    -0.00   0.06  -0.13    -0.00  -0.12  -0.02     0.01  -0.04  -0.04
  70   6     0.02   0.03  -0.10    -0.02  -0.09  -0.07    -0.01  -0.02   0.13
  71   6     0.02   0.02  -0.07    -0.03  -0.07  -0.06    -0.02  -0.01   0.14
  72   6     0.00   0.01  -0.06    -0.01  -0.05  -0.06    -0.01  -0.00   0.13
  73   6     0.02  -0.03   0.08     0.08   0.08   0.01    -0.05   0.03  -0.01
  74   1     0.03  -0.01   0.03     0.05   0.03   0.00    -0.05   0.02  -0.02
  75   1     0.02  -0.00   0.01     0.05   0.03  -0.01    -0.04   0.01   0.01
  76   1     0.01  -0.01   0.02     0.05   0.03  -0.00    -0.03   0.01  -0.01
  77   1    -0.00  -0.02   0.04     0.05   0.04   0.00    -0.01   0.01  -0.03
  78   1    -0.02  -0.02   0.05     0.03   0.04   0.01     0.01   0.01  -0.04
  79   1    -0.02  -0.02   0.04     0.01   0.03   0.01     0.02   0.00  -0.02
  80   1    -0.00  -0.02   0.05    -0.00   0.04   0.03    -0.00   0.01  -0.03
  81   1    -0.01  -0.02   0.06    -0.02   0.05   0.04     0.01   0.01  -0.04
  82   1    -0.02  -0.02   0.05    -0.05   0.03   0.05     0.03   0.00  -0.03
  83   1    -0.03  -0.02   0.03    -0.05   0.01   0.03     0.04   0.00  -0.00
  84   1    -0.02  -0.01   0.02    -0.03   0.00   0.01     0.02   0.00   0.01
  85   1     0.00  -0.01   0.02    -0.01   0.01   0.01    -0.00   0.00   0.02
  86   1     0.01  -0.00  -0.00    -0.01  -0.00  -0.01    -0.01   0.00   0.03
  87   1    -0.01  -0.01   0.00     0.01   0.00  -0.01     0.00   0.00   0.02
  88   1    -0.01   0.01  -0.02     0.02  -0.01  -0.03     0.00  -0.00   0.04
  89   1    -0.01   0.00  -0.01     0.02  -0.00  -0.02     0.00   0.00   0.04
  90   1     0.00   0.00  -0.02     0.02  -0.00  -0.02    -0.00  -0.00   0.04
  91   1    -0.02  -0.00  -0.01     0.01  -0.01  -0.02     0.01   0.00   0.04
  92   1    -0.02   0.00  -0.02     0.01  -0.02  -0.03     0.01   0.00   0.04
  93   1    -0.02  -0.00  -0.02     0.00  -0.02  -0.02     0.01   0.00   0.04
  94   1    -0.01   0.01  -0.03     0.01  -0.03  -0.02     0.00  -0.01   0.04
  95   1    -0.00   0.02  -0.04    -0.00  -0.03  -0.02     0.01  -0.01   0.03
  96   1    -0.00   0.02  -0.04    -0.00  -0.03  -0.01     0.01  -0.01   0.01
  97   1     0.00   0.02  -0.04     0.00  -0.03  -0.01    -0.01  -0.01   0.02
  98   1    -0.00   0.02  -0.04    -0.00  -0.03  -0.00     0.01  -0.01  -0.01
  99   1     0.00   0.02  -0.04     0.00  -0.03   0.00    -0.01  -0.01  -0.02
 100   1     0.00   0.02  -0.04     0.00  -0.03  -0.00    -0.01  -0.01  -0.00
 101   1     0.00   0.02  -0.04     0.00  -0.04  -0.01    -0.03  -0.00  -0.01
 102   1     0.00   0.02  -0.04     0.00  -0.04  -0.01    -0.03  -0.00  -0.00
 103   1     0.00   0.02  -0.04     0.00  -0.04  -0.00    -0.03  -0.00  -0.02
 104   1     0.00   0.02  -0.03     0.00  -0.03  -0.00    -0.01  -0.01  -0.04
 105   1    -0.01   0.01  -0.03     0.01  -0.03  -0.01    -0.00  -0.01  -0.05
 106   1    -0.01   0.01  -0.01     0.01  -0.02  -0.01     0.00  -0.01  -0.05
 107   1     0.01   0.01  -0.02    -0.01  -0.02  -0.01    -0.00  -0.01  -0.04
 108   1     0.01   0.01  -0.02    -0.02  -0.01  -0.01    -0.01  -0.01  -0.05
 109   1     0.01   0.00  -0.01    -0.02  -0.00  -0.00    -0.01  -0.00  -0.04
 110   1    -0.00   0.01  -0.01    -0.02  -0.01  -0.00    -0.01  -0.00  -0.04
 111   1     0.02   0.00  -0.01    -0.01  -0.01  -0.00     0.00  -0.01  -0.04
 112   1     0.02   0.00  -0.01    -0.00  -0.01  -0.00     0.01  -0.01  -0.04
 113   1     0.02   0.01  -0.02    -0.01  -0.02  -0.01     0.00  -0.01  -0.05
 114   1     0.01  -0.00   0.01    -0.01   0.01   0.00     0.00   0.00  -0.01
 115   1     0.01  -0.02   0.03    -0.02   0.04   0.01    -0.00   0.01   0.03
 116   1     0.03  -0.02   0.04    -0.03   0.04   0.01     0.01   0.01   0.04
 117   1     0.04  -0.01   0.03    -0.02   0.03   0.01     0.04   0.01   0.03
 118   1     0.04  -0.00   0.02    -0.01   0.01   0.00     0.04   0.01   0.00
 119   1     0.02  -0.00   0.02     0.00   0.01   0.00     0.03   0.01  -0.01
 120   1     0.01  -0.02   0.03     0.01   0.04   0.02     0.02   0.01   0.04
 121   1    -0.00  -0.03   0.04     0.02   0.06   0.02     0.01   0.02   0.06
 122   1    -0.02  -0.02   0.04     0.01   0.05   0.02    -0.02   0.02   0.05
 123   1    -0.03  -0.01   0.03     0.00   0.03   0.01    -0.05   0.01   0.03
 124   1    -0.02  -0.01   0.02     0.00   0.03   0.01    -0.05   0.01   0.01
 125   1    -0.03  -0.01   0.03    -0.00   0.03   0.02    -0.05   0.01   0.03
 126   1    -0.01  -0.00   0.02    -0.00   0.02   0.01    -0.03   0.01   0.00
 127   1    -0.00  -0.00   0.02     0.01   0.01   0.01     0.00   0.00  -0.01
 128   1    -0.01   0.00   0.00     0.01  -0.00   0.00     0.00  -0.00  -0.04
 129   1    -0.00   0.02  -0.03    -0.00  -0.03  -0.00     0.01  -0.01  -0.04
 130   1    -0.00   0.02  -0.04    -0.00  -0.03  -0.00     0.01  -0.01  -0.01
 131   1     0.01   0.01  -0.03    -0.01  -0.03  -0.02    -0.01  -0.01   0.04
 132   1     0.01   0.01  -0.02    -0.01  -0.02  -0.02    -0.01  -0.00   0.04
 133   1     0.01  -0.01   0.01     0.02   0.02   0.00    -0.02   0.01   0.01
                      4                      5                      6
                        a                      a                      a 
 Frequencies --    11.5773                18.4355                19.8466
 Red. masses --    10.6635                 9.9800                10.8692
 Frc consts  --     0.0000                 0.0000                 0.0000
 IR Inten    --     0.0377                 0.6443                 0.1294
 Raman Activ --     0.0000                 0.0000                 0.0000
 Depolar     --     0.0000                 0.0000                 0.0000
 Atom AN      X      Y      Z        X      Y      Z        X      Y      Z
   1   6    -0.02   0.16  -0.18     0.03  -0.04   0.05    -0.15   0.07  -0.02
   2   6     0.00   0.10  -0.17    -0.00  -0.03   0.06    -0.14   0.02  -0.01
   3   6     0.03   0.08  -0.23    -0.04  -0.04   0.10    -0.19  -0.04  -0.00
   4   6     0.05   0.03  -0.21    -0.07  -0.03   0.11    -0.17  -0.08   0.01
   5   6     0.04  -0.01  -0.13    -0.06  -0.01   0.07    -0.10  -0.06   0.02
   6   6     0.01   0.01  -0.07    -0.02  -0.01   0.03    -0.06   0.01   0.01
   7   7     0.00  -0.02   0.00    -0.01   0.01  -0.00    -0.01   0.03   0.03
   8   6    -0.01  -0.05   0.06     0.01   0.01  -0.02     0.04  -0.01   0.02
   9   6    -0.01  -0.00   0.08     0.01  -0.02  -0.04     0.05  -0.09   0.03
  10   6    -0.03  -0.03   0.15     0.03  -0.02  -0.06     0.09  -0.13   0.03
  11   6    -0.05  -0.12   0.20     0.05   0.01  -0.08     0.13  -0.10   0.02
  12   6    -0.04  -0.17   0.18     0.05   0.04  -0.06     0.12  -0.02   0.01
  13   6    -0.03  -0.13   0.11     0.03   0.04  -0.03     0.07   0.02   0.01
  14   6    -0.00  -0.02   0.02    -0.01   0.02  -0.00    -0.00   0.06   0.04
  15   6    -0.00  -0.01   0.07    -0.01   0.02   0.03     0.01   0.06   0.06
  16   6    -0.00  -0.00   0.08    -0.01   0.03   0.04     0.01   0.07   0.05
  17   6    -0.00  -0.00   0.04    -0.01   0.03   0.01     0.00   0.08   0.03
  18   6     0.00  -0.01   0.00    -0.01   0.02  -0.04    -0.01   0.08   0.03
  19   6     0.00  -0.02  -0.01    -0.01   0.01  -0.04    -0.01   0.07   0.04
  20   6    -0.00  -0.01  -0.02    -0.00   0.01  -0.08    -0.01   0.08   0.01
  21   6    -0.00   0.01  -0.04     0.01   0.05  -0.12     0.00   0.08   0.01
  22   6     0.00  -0.04  -0.03    -0.01  -0.04  -0.11    -0.04   0.08   0.01
  23   6    -0.00  -0.01   0.01    -0.01   0.02  -0.05    -0.00   0.09  -0.01
  24   6    -0.00  -0.00   0.00    -0.00   0.02  -0.07     0.00   0.09  -0.04
  25   6    -0.00   0.00   0.03    -0.01   0.03  -0.01     0.01   0.09  -0.05
  26   6    -0.00   0.01   0.02    -0.01   0.03  -0.02     0.01   0.07  -0.08
  27   6     0.00   0.00   0.02    -0.00   0.08  -0.12     0.04   0.06  -0.08
  28   6     0.00   0.00   0.02    -0.00   0.08  -0.13     0.04   0.03  -0.07
  29   6    -0.00   0.01   0.01    -0.00   0.03  -0.04     0.02   0.01  -0.06
  30   6    -0.00   0.01   0.00    -0.01  -0.03   0.06    -0.00   0.03  -0.08
  31   6    -0.00   0.01   0.01    -0.01  -0.03   0.07    -0.01   0.06  -0.08
  32   6    -0.00   0.02  -0.01    -0.01  -0.10   0.17    -0.02   0.00  -0.07
  33   6     0.00   0.01  -0.04    -0.02   0.00   0.39    -0.06  -0.01  -0.10
  34   6    -0.01   0.05  -0.02    -0.01  -0.34   0.19     0.00   0.03  -0.08
  35   6    -0.00   0.01  -0.00    -0.01  -0.04   0.06     0.00  -0.04  -0.04
  36   6    -0.00   0.02  -0.01    -0.01  -0.05   0.06    -0.00  -0.08  -0.02
  37   6    -0.00   0.01   0.00    -0.00  -0.00  -0.03     0.01  -0.10  -0.00
  38   6    -0.00   0.01  -0.01    -0.00  -0.00  -0.02     0.01  -0.12   0.00
  39   6    -0.01  -0.00  -0.05     0.00   0.01   0.02     0.02  -0.11  -0.01
  40   6    -0.01  -0.00  -0.06     0.00   0.01   0.02     0.02  -0.11   0.00
  41   6    -0.00   0.00  -0.03    -0.00  -0.00  -0.02     0.02  -0.10   0.02
  42   6     0.00   0.01   0.02    -0.01  -0.01  -0.06     0.01  -0.11   0.02
  43   6     0.00   0.01   0.03    -0.01  -0.01  -0.07     0.01  -0.11   0.01
  44   6     0.01   0.02   0.06    -0.01  -0.02  -0.08     0.00  -0.10   0.03
  45   6     0.01  -0.02   0.09    -0.02   0.02  -0.11    -0.01  -0.10   0.03
  46   6     0.01   0.06   0.08     0.00  -0.06  -0.10     0.01  -0.09   0.03
  47   6     0.00   0.01   0.02    -0.00  -0.01  -0.04     0.01  -0.09   0.03
  48   6     0.00   0.01   0.03    -0.00  -0.01  -0.03     0.00  -0.07   0.04
  49   6    -0.00   0.01  -0.01     0.00   0.00  -0.01     0.02  -0.06   0.04
  50   7    -0.00   0.01   0.00     0.00   0.00   0.01     0.01  -0.03   0.02
  51   6     0.00   0.06   0.05     0.01   0.04   0.05    -0.05  -0.00   0.02
  52   6     0.00   0.05   0.10    -0.01   0.06   0.11    -0.11   0.08   0.03
  53   6     0.00   0.10   0.16     0.00   0.10   0.16    -0.18   0.10   0.04
  54   6     0.01   0.17   0.16     0.03   0.13   0.14    -0.17   0.05   0.03
  55   6     0.01   0.18   0.11     0.06   0.11   0.08    -0.11  -0.03   0.02
  56   6     0.01   0.12   0.06     0.05   0.07   0.03    -0.04  -0.06   0.01
  57   6     0.00  -0.04  -0.05     0.00  -0.02  -0.02     0.05   0.02   0.01
  58   6    -0.01  -0.02  -0.08     0.00   0.00  -0.04     0.08   0.13   0.00
  59   6    -0.01  -0.06  -0.12     0.01  -0.02  -0.06     0.13   0.19  -0.01
  60   6     0.01  -0.14  -0.14     0.02  -0.06  -0.07     0.15   0.15  -0.01
  61   6     0.02  -0.16  -0.11     0.02  -0.08  -0.05     0.12   0.05  -0.01
  62   6     0.03  -0.24  -0.12     0.03  -0.13  -0.06     0.14  -0.00  -0.01
  63   6     0.01  -0.11  -0.06     0.01  -0.06  -0.02     0.07  -0.02   0.00
  64   6    -0.01  -0.00  -0.06     0.00   0.00   0.00     0.03  -0.06   0.04
  65   6    -0.01  -0.01  -0.07     0.00   0.00   0.00     0.04  -0.08   0.04
  66   6    -0.00   0.00  -0.03    -0.00  -0.00  -0.02     0.02  -0.09   0.03
  67   6     0.00  -0.00   0.02    -0.00   0.05  -0.11     0.03  -0.10   0.00
  68   6     0.00  -0.00   0.02     0.00   0.07  -0.13     0.04  -0.06  -0.02
  69   6    -0.00   0.01   0.01    -0.00   0.02  -0.04     0.02  -0.03  -0.04
  70   6     0.00   0.01   0.06    -0.01   0.04   0.06     0.01   0.09  -0.04
  71   6    -0.00   0.01   0.07    -0.01   0.04   0.06     0.01   0.09  -0.01
  72   6    -0.00  -0.00   0.04    -0.01   0.03   0.01     0.01   0.09   0.01
  73   6    -0.01   0.07  -0.09     0.01  -0.01   0.03    -0.07   0.05   0.00
  74   1    -0.01   0.06  -0.06     0.02  -0.02   0.02    -0.04   0.02  -0.01
  75   1    -0.01   0.05  -0.04     0.01  -0.01   0.01    -0.04   0.03  -0.00
  76   1    -0.01   0.05  -0.07     0.00  -0.01   0.02    -0.05   0.02  -0.01
  77   1     0.01   0.03  -0.08    -0.01  -0.02   0.04    -0.07  -0.02  -0.00
  78   1     0.02   0.00  -0.07    -0.03  -0.01   0.04    -0.06  -0.04   0.00
  79   1     0.02  -0.02  -0.03    -0.02  -0.00   0.02    -0.03  -0.03   0.01
  80   1    -0.00   0.02   0.01    -0.00  -0.01  -0.01     0.01  -0.03   0.01
  81   1    -0.01   0.00   0.05     0.01  -0.01  -0.02     0.03  -0.05   0.01
  82   1    -0.02  -0.04   0.07     0.02   0.00  -0.03     0.05  -0.04   0.01
  83   1    -0.02  -0.07   0.06     0.02   0.02  -0.02     0.04   0.00   0.00
  84   1    -0.01  -0.05   0.03     0.01   0.02  -0.01     0.02   0.02   0.00
  85   1    -0.00  -0.00   0.03    -0.00   0.01   0.01     0.01   0.02   0.02
  86   1    -0.00   0.00   0.03    -0.00   0.01   0.02     0.01   0.02   0.02
  87   1     0.00  -0.01  -0.01    -0.00   0.00  -0.02    -0.01   0.02   0.01
  88   1    -0.00   0.00  -0.02     0.00   0.02  -0.05    -0.00   0.03  -0.00
  89   1    -0.00   0.00  -0.02     0.00   0.01  -0.04    -0.00   0.02   0.01
  90   1    -0.00   0.01  -0.01     0.01   0.03  -0.03     0.01   0.02   0.00
  91   1     0.00  -0.01  -0.01    -0.00  -0.01  -0.04    -0.01   0.02   0.01
  92   1     0.00  -0.01  -0.01    -0.00  -0.01  -0.04    -0.01   0.03  -0.00
  93   1     0.00  -0.02  -0.00    -0.01  -0.02  -0.02    -0.01   0.02   0.00
  94   1     0.00  -0.00  -0.01    -0.00   0.00  -0.03     0.00   0.02  -0.01
  95   1    -0.00   0.00   0.01     0.00   0.04  -0.05     0.01   0.02  -0.02
  96   1     0.00   0.00   0.01     0.00   0.04  -0.06     0.02   0.01  -0.02
  97   1    -0.00   0.00   0.00    -0.00  -0.02   0.04    -0.01   0.02  -0.03
  98   1     0.00  -0.00  -0.01    -0.01   0.05   0.11    -0.02  -0.01  -0.03
  99   1    -0.00   0.00  -0.02    -0.00  -0.01   0.14    -0.02  -0.01  -0.03
 100   1    -0.00   0.00  -0.01    -0.00  -0.01   0.13    -0.02   0.01  -0.04
 101   1    -0.00   0.02   0.00     0.00  -0.12   0.01     0.01   0.01  -0.02
 102   1    -0.00   0.02  -0.01    -0.00  -0.11   0.08    -0.00   0.02  -0.03
 103   1    -0.00   0.02  -0.01    -0.00  -0.12   0.08    -0.00   0.00  -0.02
 104   1    -0.00   0.01  -0.01    -0.00  -0.03   0.04    -0.00  -0.02  -0.01
 105   1    -0.00  -0.00  -0.02     0.00   0.00   0.02     0.00  -0.03  -0.01
 106   1    -0.00  -0.00  -0.03     0.00   0.00   0.02     0.01  -0.03  -0.00
 107   1     0.00   0.01   0.02    -0.00  -0.01  -0.03     0.00  -0.03   0.00
 108   1     0.00  -0.00   0.03    -0.01   0.00  -0.04    -0.01  -0.03   0.01
 109   1     0.00  -0.00   0.03    -0.01   0.00  -0.04    -0.00  -0.03   0.01
 110   1     0.00  -0.01   0.02    -0.01   0.01  -0.03    -0.00  -0.03   0.01
 111   1     0.00   0.02   0.03    -0.00  -0.02  -0.03     0.00  -0.03   0.01
 112   1    -0.00   0.03   0.02     0.00  -0.02  -0.02     0.01  -0.03   0.01
 113   1     0.00   0.02   0.03    -0.00  -0.02  -0.04     0.00  -0.03   0.01
 114   1     0.00   0.01   0.02    -0.00  -0.00  -0.01    -0.00  -0.02   0.01
 115   1    -0.00  -0.00   0.03    -0.01   0.01   0.04    -0.03   0.03   0.01
 116   1     0.00   0.03   0.06    -0.01   0.03   0.06    -0.07   0.05   0.01
 117   1     0.00   0.06   0.06     0.01   0.05   0.05    -0.06   0.02   0.01
 118   1     0.00   0.07   0.03     0.02   0.04   0.02    -0.03  -0.02   0.00
 119   1     0.00   0.04   0.00     0.02   0.02  -0.00     0.00  -0.03   0.00
 120   1    -0.00   0.01  -0.02    -0.00   0.01  -0.01     0.02   0.05   0.00
 121   1    -0.00  -0.01  -0.04     0.00  -0.00  -0.02     0.04   0.08  -0.00
 122   1     0.00  -0.05  -0.05     0.01  -0.02  -0.03     0.05   0.06  -0.00
 123   1     0.01  -0.07  -0.05     0.01  -0.04  -0.03     0.05  -0.00  -0.01
 124   1     0.01  -0.08  -0.03     0.01  -0.04  -0.01     0.04  -0.01   0.00
 125   1     0.01  -0.07  -0.03     0.01  -0.04  -0.01     0.04  -0.00  -0.00
 126   1     0.01  -0.04  -0.01     0.01  -0.02  -0.00     0.01  -0.03   0.00
 127   1    -0.00  -0.00  -0.03     0.00   0.00   0.00     0.01  -0.01   0.01
 128   1    -0.00  -0.00  -0.03     0.00   0.00   0.00     0.01  -0.02   0.01
 129   1     0.00  -0.00   0.01    -0.00   0.03  -0.05     0.01  -0.04   0.01
 130   1     0.00  -0.00   0.01     0.00   0.03  -0.06     0.02  -0.02  -0.00
 131   1     0.00   0.00   0.02    -0.01   0.01   0.03     0.00   0.03  -0.01
 132   1    -0.00   0.00   0.03    -0.01   0.01   0.03     0.00   0.03   0.00
 133   1    -0.01   0.02  -0.01     0.01  -0.00  -0.00    -0.01   0.03  -0.00
                      7                      8                      9
                        a                      a                      a 
 Frequencies --    24.9470                29.0954                30.6039
 Red. masses --    10.7056                10.5412                10.1036
 Frc consts  --     0.0000                 0.0000                 0.0000
 IR Inten    --     0.3469                 0.4588                 0.2112
 Raman Activ --     0.0000                 0.0000                 0.0000
 Depolar     --     0.0000                 0.0000                 0.0000
 Atom AN      X      Y      Z        X      Y      Z        X      Y      Z
   1   6    -0.13  -0.05   0.07    -0.11   0.19  -0.07     0.13   0.01   0.03
   2   6    -0.04  -0.01   0.02    -0.12   0.11  -0.03     0.08   0.01   0.04
   3   6     0.07   0.06  -0.06    -0.19   0.02  -0.02     0.08   0.02   0.06
   4   6     0.14   0.10  -0.10    -0.19  -0.05   0.01     0.04   0.02   0.07
   5   6     0.11   0.07  -0.07    -0.12  -0.03   0.03     0.01   0.01   0.07
   6   6     0.00   0.00   0.02    -0.06   0.05   0.03     0.01  -0.01   0.05
   7   7    -0.02  -0.03   0.06    -0.02   0.07   0.06    -0.00  -0.01   0.06
   8   6    -0.02   0.01   0.01     0.02   0.04   0.03     0.03   0.01  -0.00
   9   6    -0.06   0.10  -0.09     0.04  -0.06   0.04    -0.00   0.02  -0.12
  10   6    -0.07   0.14  -0.14     0.09  -0.08   0.02     0.04   0.03  -0.18
  11   6    -0.04   0.10  -0.10     0.12  -0.01  -0.01     0.12   0.02  -0.14
  12   6    -0.00   0.02  -0.00     0.10   0.08  -0.03     0.16  -0.00  -0.03
  13   6     0.01  -0.03   0.05     0.06   0.11  -0.00     0.11  -0.01   0.04
  14   6    -0.03  -0.04   0.08    -0.02   0.07   0.08    -0.00  -0.01   0.08
  15   6    -0.04  -0.04   0.09    -0.04   0.06   0.08    -0.02   0.01   0.20
  16   6    -0.04  -0.04   0.10    -0.04   0.03   0.06    -0.02   0.02   0.22
  17   6    -0.03  -0.05   0.09    -0.02   0.01   0.03    -0.01  -0.00   0.11
  18   6    -0.03  -0.05   0.09    -0.00   0.02   0.05     0.00  -0.03  -0.01
  19   6    -0.02  -0.04   0.09    -0.00   0.05   0.07     0.00  -0.03  -0.02
  20   6    -0.02  -0.05   0.08     0.02  -0.00   0.02     0.01  -0.05  -0.13
  21   6    -0.00  -0.06   0.09     0.07  -0.00   0.02     0.05   0.08  -0.25
  22   6    -0.05  -0.04   0.08    -0.01  -0.00   0.01     0.00  -0.20  -0.21
  23   6    -0.02  -0.06   0.05     0.00  -0.03  -0.02     0.00  -0.03  -0.04
  24   6    -0.02  -0.06   0.01     0.01  -0.06  -0.05     0.01  -0.03  -0.08
  25   6    -0.01  -0.06  -0.01    -0.00  -0.08  -0.07    -0.01  -0.01   0.02
  26   6    -0.01  -0.05  -0.04     0.00  -0.09  -0.07    -0.00  -0.01  -0.01
  27   6    -0.02  -0.02  -0.08    -0.01  -0.09  -0.06    -0.01   0.01  -0.04
  28   6    -0.02   0.01  -0.12    -0.01  -0.09  -0.04    -0.01   0.02  -0.05
  29   6    -0.02   0.01  -0.12    -0.00  -0.09  -0.04    -0.01   0.01  -0.04
  30   6    -0.01  -0.01  -0.08     0.01  -0.09  -0.04    -0.01   0.00  -0.03
  31   6    -0.01  -0.04  -0.04     0.01  -0.09  -0.06    -0.01  -0.01  -0.00
  32   6    -0.00  -0.01  -0.07     0.02  -0.09  -0.02    -0.01   0.01  -0.05
  33   6     0.03   0.01  -0.05     0.02  -0.08  -0.00     0.00  -0.00  -0.07
  34   6    -0.02  -0.04  -0.07     0.03  -0.11  -0.02    -0.03   0.04  -0.05
  35   6    -0.01   0.02  -0.10     0.01  -0.08  -0.02    -0.01   0.01  -0.05
  36   6    -0.00   0.03  -0.09     0.02  -0.06  -0.01    -0.01   0.01  -0.04
  37   6    -0.01   0.05  -0.11     0.00  -0.04  -0.01    -0.01   0.00  -0.03
  38   6    -0.01   0.05  -0.06     0.01  -0.02  -0.00    -0.01   0.00  -0.02
  39   6    -0.02   0.06   0.02     0.03  -0.01  -0.01    -0.02  -0.01  -0.09
  40   6    -0.01   0.05   0.08     0.03   0.01   0.00    -0.02  -0.01  -0.10
  41   6     0.00   0.04   0.08     0.02   0.03   0.03    -0.01  -0.00  -0.02
  42   6     0.01   0.03  -0.00    -0.00   0.03   0.04    -0.00   0.01   0.06
  43   6     0.00   0.03  -0.07    -0.01   0.00   0.02    -0.00   0.01   0.06
  44   6     0.02   0.02   0.00    -0.01   0.05   0.06     0.01   0.03   0.13
  45   6    -0.02   0.05  -0.03    -0.03   0.03   0.09     0.02  -0.06   0.22
  46   6     0.06  -0.02  -0.02    -0.02   0.08   0.08     0.01   0.14   0.18
  47   6     0.01   0.02   0.07     0.00   0.07   0.05    -0.00   0.01   0.06
  48   6     0.02   0.01   0.08    -0.00   0.08   0.04    -0.00   0.01   0.06
  49   6     0.02   0.01   0.12     0.01   0.09   0.02    -0.01  -0.00  -0.01
  50   7     0.01  -0.00   0.08     0.01   0.09   0.02    -0.01   0.00  -0.01
  51   6    -0.02  -0.02   0.05     0.04   0.05   0.00    -0.03  -0.01  -0.02
  52   6    -0.02  -0.00   0.02     0.14  -0.06  -0.06    -0.02  -0.01  -0.06
  53   6    -0.05  -0.01   0.00     0.20  -0.10  -0.07    -0.04  -0.02  -0.08
  54   6    -0.07  -0.04   0.01     0.15  -0.02  -0.04    -0.08  -0.03  -0.06
  55   6    -0.06  -0.06   0.04     0.04   0.09   0.02    -0.09  -0.02  -0.02
  56   6    -0.03  -0.04   0.06    -0.01   0.13   0.04    -0.06  -0.01  -0.00
  57   6     0.04  -0.02   0.02    -0.01   0.02  -0.01    -0.02   0.01   0.00
  58   6     0.00  -0.02  -0.06    -0.08  -0.13  -0.06     0.00   0.03   0.03
  59   6     0.05  -0.02  -0.12    -0.12  -0.21  -0.09    -0.01   0.04   0.05
  60   6     0.13  -0.02  -0.11    -0.07  -0.12  -0.06    -0.04   0.02   0.04
  61   6     0.17  -0.02  -0.03     0.01   0.05  -0.01    -0.06  -0.01   0.01
  62   6     0.27  -0.01  -0.02     0.06   0.15   0.02    -0.10  -0.03   0.00
  63   6     0.13  -0.01   0.03     0.03   0.11   0.02    -0.05  -0.01  -0.01
  64   6     0.01   0.02   0.18     0.02   0.08   0.02    -0.02  -0.01  -0.07
  65   6     0.01   0.04   0.18     0.03   0.07   0.03    -0.02  -0.01  -0.08
  66   6     0.01   0.04   0.12     0.02   0.06   0.03    -0.01  -0.00  -0.02
  67   6    -0.03   0.07  -0.15    -0.02  -0.05  -0.01    -0.01  -0.00  -0.02
  68   6    -0.03   0.06  -0.17    -0.02  -0.07  -0.02    -0.01   0.00  -0.03
  69   6    -0.02   0.04  -0.14    -0.00  -0.08  -0.02    -0.01   0.01  -0.04
  70   6    -0.01  -0.06   0.01    -0.02  -0.07  -0.08    -0.01   0.01   0.16
  71   6    -0.02  -0.05   0.05    -0.03  -0.04  -0.05    -0.02   0.02   0.20
  72   6    -0.02  -0.05   0.07    -0.02  -0.02  -0.01    -0.01  -0.00   0.10
  73   6    -0.07  -0.03   0.06    -0.05   0.12  -0.01     0.05  -0.00   0.04
  74   1    -0.06  -0.01   0.00    -0.03   0.06  -0.01     0.04   0.00   0.02
  75   1    -0.05  -0.03   0.04    -0.03   0.07  -0.02     0.04   0.00   0.00
  76   1    -0.02  -0.02   0.03    -0.04   0.05  -0.04     0.04   0.00   0.01
  77   1     0.03   0.02  -0.03    -0.07   0.00  -0.01     0.03   0.01   0.02
  78   1     0.07   0.04  -0.05    -0.07  -0.03   0.00     0.01   0.01   0.02
  79   1     0.05   0.03  -0.03    -0.04  -0.02   0.02    -0.00   0.00   0.02
  80   1    -0.03   0.04  -0.04     0.00  -0.03   0.02    -0.02   0.01  -0.04
  81   1    -0.03   0.06  -0.06     0.03  -0.05   0.01     0.00   0.01  -0.08
  82   1    -0.02   0.04  -0.04     0.05  -0.01  -0.01     0.04   0.01  -0.06
  83   1     0.01  -0.00   0.01     0.04   0.04  -0.02     0.06  -0.00   0.00
  84   1     0.01  -0.03   0.03     0.01   0.05  -0.00     0.04  -0.01   0.04
  85   1    -0.01  -0.01   0.03    -0.01   0.02   0.03    -0.01   0.01   0.08
  86   1    -0.01  -0.01   0.03    -0.02   0.01   0.02    -0.01   0.01   0.09
  87   1    -0.00  -0.01   0.03     0.00   0.02   0.02     0.00  -0.01  -0.03
  88   1    -0.00  -0.02   0.02     0.02  -0.01   0.00     0.01   0.02  -0.10
  89   1    -0.00  -0.02   0.03     0.02   0.01   0.01     0.01   0.02  -0.09
  90   1     0.00  -0.02   0.03     0.03  -0.00   0.01     0.02   0.05  -0.06
  91   1    -0.01  -0.01   0.03    -0.00   0.00   0.01     0.00  -0.06  -0.07
  92   1    -0.01  -0.01   0.02     0.00  -0.01  -0.00     0.00  -0.07  -0.08
  93   1    -0.02  -0.01   0.02    -0.01  -0.00   0.00    -0.01  -0.08  -0.04
  94   1    -0.01  -0.02  -0.00     0.01  -0.02  -0.01     0.01  -0.02  -0.05
  95   1    -0.01  -0.01  -0.02    -0.00  -0.03  -0.02    -0.00   0.00  -0.01
  96   1    -0.01   0.01  -0.04    -0.00  -0.03  -0.01    -0.00   0.01  -0.02
  97   1    -0.00  -0.02  -0.00     0.00  -0.03  -0.02    -0.00  -0.01   0.01
  98   1     0.01   0.01  -0.01     0.00  -0.02  -0.00     0.01  -0.01  -0.02
  99   1     0.01   0.00  -0.01     0.01  -0.02   0.01     0.00   0.00  -0.03
 100   1     0.01  -0.00  -0.01     0.01  -0.03  -0.00     0.00   0.00  -0.02
 101   1    -0.01  -0.01  -0.03     0.01  -0.03  -0.01    -0.01   0.01  -0.01
 102   1    -0.00  -0.02  -0.01     0.01  -0.04  -0.01    -0.01   0.01  -0.01
 103   1    -0.00  -0.01  -0.02     0.01  -0.03  -0.00    -0.01   0.01  -0.02
 104   1     0.00   0.00  -0.02     0.01  -0.02  -0.00    -0.00   0.00  -0.02
 105   1    -0.01   0.02   0.01     0.01  -0.01  -0.01    -0.01  -0.01  -0.04
 106   1    -0.00   0.02   0.04     0.01   0.01  -0.00    -0.01  -0.01  -0.05
 107   1     0.00   0.01  -0.04    -0.01  -0.00   0.01     0.00   0.01   0.03
 108   1    -0.01   0.02  -0.02    -0.01   0.00   0.03     0.01  -0.02   0.08
 109   1    -0.00   0.01  -0.00    -0.01   0.01   0.03     0.01  -0.01   0.08
 110   1    -0.02   0.02  -0.00    -0.01   0.00   0.02     0.01  -0.04   0.05
 111   1     0.02  -0.01  -0.00    -0.01   0.03   0.03     0.01   0.04   0.06
 112   1     0.03  -0.01   0.00    -0.00   0.03   0.02    -0.00   0.06   0.04
 113   1     0.02  -0.01  -0.02    -0.01   0.02   0.03     0.01   0.05   0.07
 114   1     0.01   0.00   0.01    -0.00   0.02   0.01     0.00   0.01   0.03
 115   1    -0.00   0.01   0.00     0.05  -0.04  -0.03     0.00  -0.00  -0.02
 116   1    -0.02   0.00  -0.01     0.08  -0.06  -0.03    -0.01  -0.01  -0.03
 117   1    -0.02  -0.01  -0.00     0.05  -0.02  -0.02    -0.03  -0.01  -0.02
 118   1    -0.02  -0.02   0.01     0.00   0.04   0.01    -0.03  -0.01  -0.00
 119   1    -0.01  -0.02   0.02    -0.03   0.06   0.02    -0.02  -0.00   0.01
 120   1    -0.02  -0.01  -0.02    -0.04  -0.06  -0.02     0.01   0.01   0.01
 121   1     0.01  -0.01  -0.05    -0.05  -0.10  -0.04     0.00   0.02   0.02
 122   1     0.05  -0.01  -0.04    -0.03  -0.05  -0.02    -0.01   0.01   0.02
 123   1     0.08  -0.00  -0.01     0.01   0.05   0.03    -0.03  -0.01  -0.00
 124   1     0.08  -0.00   0.01     0.02   0.06   0.02    -0.03  -0.01  -0.01
 125   1     0.09  -0.00  -0.02     0.03   0.05  -0.01    -0.04  -0.01   0.01
 126   1     0.05  -0.00   0.03     0.03   0.07   0.01    -0.02  -0.01  -0.01
 127   1     0.00   0.01   0.06     0.01   0.03   0.00    -0.01  -0.01  -0.03
 128   1     0.00   0.01   0.07     0.01   0.02   0.01    -0.01  -0.01  -0.04
 129   1    -0.01   0.03  -0.05    -0.01  -0.01  -0.00    -0.00  -0.00  -0.00
 130   1    -0.01   0.02  -0.06    -0.01  -0.02  -0.00    -0.00  -0.00  -0.01
 131   1    -0.00  -0.02  -0.00    -0.01  -0.03  -0.03    -0.00   0.01   0.07
 132   1    -0.00  -0.02   0.02    -0.01  -0.01  -0.02    -0.01   0.01   0.09
 133   1    -0.04  -0.02   0.03    -0.00   0.05  -0.00     0.01  -0.00   0.01
                     10                     11                     12
                        a                      a                      a 
 Frequencies --    31.8816                34.8678                37.2809
 Red. masses --     9.9972                10.0612                10.4438
 Frc consts  --     0.0000                 0.0000                 0.0000
 IR Inten    --     1.7029                 0.8823                 0.3555
 Raman Activ --     0.0000                 0.0000                 0.0000
 Depolar     --     0.0000                 0.0000                 0.0000
 Atom AN      X      Y      Z        X      Y      Z        X      Y      Z
   1   6     0.30   0.14  -0.14    -0.13  -0.14   0.13     0.06  -0.14   0.03
   2   6     0.14   0.06  -0.04    -0.05  -0.07   0.07     0.04  -0.08   0.01
   3   6     0.01  -0.00   0.06     0.03  -0.01   0.03     0.03  -0.05   0.05
   4   6    -0.12  -0.07   0.14     0.10   0.05  -0.02     0.01  -0.00   0.04
   5   6    -0.13  -0.06   0.11     0.09   0.05  -0.03     0.00   0.01  -0.02
   6   6    -0.00   0.00   0.01     0.01  -0.01   0.01     0.01  -0.01  -0.06
   7   7    -0.00   0.02  -0.02     0.00  -0.02   0.01     0.01   0.00  -0.12
   8   6     0.01   0.01  -0.03     0.01  -0.01   0.00    -0.03  -0.01  -0.05
   9   6     0.04  -0.08   0.02    -0.03   0.07  -0.08    -0.01   0.02   0.00
  10   6     0.07  -0.10   0.01    -0.03   0.08  -0.09    -0.05   0.00   0.07
  11   6     0.07  -0.02  -0.05     0.01  -0.00  -0.01    -0.09  -0.04   0.08
  12   6     0.04   0.07  -0.10     0.04  -0.08   0.07    -0.11  -0.07   0.02
  13   6     0.02   0.09  -0.08     0.04  -0.09   0.07    -0.07  -0.06  -0.04
  14   6    -0.00   0.01  -0.03     0.00  -0.01   0.03     0.01   0.00  -0.12
  15   6    -0.02   0.01  -0.01     0.01   0.01   0.09     0.02   0.01  -0.12
  16   6    -0.02  -0.00   0.01     0.01   0.03   0.09     0.01   0.03  -0.07
  17   6    -0.01  -0.02   0.00     0.01   0.03   0.03     0.00   0.04  -0.03
  18   6     0.01  -0.02  -0.03    -0.00   0.01  -0.02    -0.00   0.03  -0.06
  19   6     0.01  -0.01  -0.06    -0.01  -0.00  -0.02    -0.00   0.01  -0.11
  20   6     0.02  -0.03  -0.03    -0.00   0.01  -0.10    -0.01   0.05  -0.02
  21   6     0.00   0.01  -0.08     0.01   0.08  -0.16    -0.08   0.05  -0.03
  22   6     0.06  -0.08  -0.05    -0.03  -0.07  -0.14     0.04   0.04  -0.01
  23   6    -0.00  -0.03   0.03     0.00   0.03  -0.06    -0.01   0.07   0.04
  24   6    -0.00  -0.04   0.06     0.00   0.04  -0.08    -0.02   0.08   0.08
  25   6    -0.02  -0.04   0.11     0.00   0.06  -0.03    -0.02   0.08   0.11
  26   6    -0.02  -0.05   0.11     0.01   0.05  -0.04    -0.02   0.07   0.10
  27   6    -0.02  -0.06   0.14     0.01   0.04  -0.01     0.02   0.07   0.07
  28   6    -0.02  -0.05   0.12     0.01   0.01   0.02     0.03   0.04   0.04
  29   6    -0.02  -0.02   0.06     0.01   0.00   0.03     0.00   0.02   0.03
  30   6    -0.03  -0.00   0.03     0.00   0.03  -0.02    -0.04   0.02   0.05
  31   6    -0.03  -0.02   0.06    -0.00   0.05  -0.05    -0.05   0.04   0.09
  32   6    -0.03   0.05  -0.05    -0.01   0.03  -0.04    -0.07  -0.01   0.02
  33   6     0.01  -0.01  -0.19    -0.06  -0.02  -0.16    -0.07   0.00   0.06
  34   6    -0.07   0.19  -0.07     0.03   0.17  -0.05    -0.13  -0.05   0.03
  35   6    -0.03   0.03  -0.03     0.00  -0.02   0.04    -0.04  -0.02  -0.03
  36   6    -0.03   0.04  -0.05    -0.00  -0.05   0.07    -0.04  -0.04  -0.08
  37   6    -0.03   0.03  -0.04     0.00  -0.08   0.11    -0.01  -0.06  -0.11
  38   6    -0.03   0.03  -0.04     0.00  -0.08   0.10    -0.01  -0.07  -0.13
  39   6    -0.03   0.04   0.03     0.02  -0.06   0.14    -0.01  -0.08  -0.21
  40   6    -0.03   0.04   0.06     0.02  -0.04   0.12    -0.01  -0.07  -0.19
  41   6    -0.03   0.02   0.02     0.00  -0.05   0.04     0.00  -0.05  -0.08
  42   6    -0.03   0.01  -0.06    -0.02  -0.06  -0.01    -0.00  -0.04  -0.03
  43   6    -0.03   0.02  -0.09    -0.02  -0.08   0.02    -0.01  -0.06  -0.06
  44   6    -0.03  -0.01  -0.11    -0.05  -0.06  -0.09     0.00  -0.02   0.07
  45   6    -0.06   0.08  -0.19    -0.05   0.02  -0.18    -0.04  -0.09   0.14
  46   6     0.00  -0.11  -0.16    -0.09  -0.16  -0.14     0.04   0.07   0.10
  47   6    -0.02   0.00  -0.02    -0.03  -0.04  -0.06     0.01  -0.01   0.05
  48   6    -0.02  -0.01  -0.00    -0.04  -0.02  -0.08     0.01   0.01   0.09
  49   6    -0.02   0.00   0.06    -0.02   0.01  -0.04     0.01   0.02   0.06
  50   7    -0.02  -0.01   0.06    -0.02   0.02  -0.03     0.01   0.03   0.05
  51   6    -0.02  -0.00   0.05     0.01   0.04   0.00     0.01   0.01   0.03
  52   6    -0.04   0.02   0.07     0.05  -0.02   0.04     0.07  -0.06  -0.03
  53   6    -0.04   0.02   0.08     0.10   0.01   0.08     0.08  -0.08  -0.05
  54   6    -0.02   0.01   0.06     0.11   0.08   0.08     0.02  -0.03  -0.00
  55   6    -0.00  -0.01   0.04     0.08   0.13   0.04    -0.05   0.04   0.06
  56   6    -0.00  -0.02   0.04     0.03   0.11   0.00    -0.05   0.06   0.07
  57   6     0.00  -0.02   0.01    -0.03  -0.00  -0.03     0.02   0.01   0.02
  58   6    -0.03  -0.03  -0.04    -0.07  -0.10  -0.06    -0.04  -0.09  -0.05
  59   6     0.00  -0.03  -0.08    -0.08  -0.13  -0.07    -0.02  -0.10  -0.08
  60   6     0.06  -0.03  -0.08    -0.05  -0.04  -0.04     0.06   0.01  -0.04
  61   6     0.09  -0.02  -0.02    -0.00   0.07  -0.01     0.13   0.11   0.02
  62   6     0.16  -0.02  -0.01     0.05   0.18   0.02     0.23   0.24   0.06
  63   6     0.06  -0.02   0.02     0.01   0.09  -0.01     0.10   0.10   0.05
  64   6    -0.02   0.01   0.13     0.01   0.01   0.01     0.03   0.01   0.04
  65   6    -0.02   0.03   0.12     0.02  -0.01   0.04     0.02  -0.01  -0.01
  66   6    -0.03   0.02   0.05    -0.00  -0.03   0.01     0.01  -0.03  -0.02
  67   6    -0.02   0.02  -0.01     0.01  -0.09   0.14     0.03  -0.06  -0.09
  68   6    -0.02  -0.00   0.02     0.01  -0.07   0.12     0.04  -0.03  -0.05
  69   6    -0.02   0.00   0.02     0.01  -0.03   0.07     0.00  -0.01  -0.02
  70   6    -0.03  -0.04   0.12     0.01   0.06   0.02    -0.02   0.09   0.14
  71   6    -0.03  -0.03   0.09     0.01   0.06   0.05    -0.01   0.08   0.10
  72   6    -0.02  -0.03   0.04     0.01   0.04   0.01    -0.01   0.06   0.04
  73   6     0.12   0.06  -0.06    -0.05  -0.07   0.06     0.03  -0.06  -0.05
  74   1     0.12   0.05  -0.01    -0.05  -0.05   0.02     0.02  -0.06   0.01
  75   1     0.11   0.05  -0.07    -0.05  -0.05   0.05     0.02  -0.04  -0.01
  76   1     0.08   0.04  -0.06    -0.03  -0.04   0.06     0.01  -0.04   0.02
  77   1     0.01  -0.00   0.02     0.01  -0.00   0.01     0.01  -0.02   0.03
  78   1    -0.06  -0.04   0.06     0.05   0.03  -0.02     0.00   0.01   0.02
  79   1    -0.07  -0.03   0.05     0.04   0.03  -0.02    -0.00   0.01  -0.01
  80   1     0.01  -0.04   0.02    -0.02   0.04  -0.04     0.01   0.01  -0.00
  81   1     0.03  -0.05   0.01    -0.02   0.04  -0.04    -0.01   0.01   0.03
  82   1     0.03  -0.01  -0.02     0.00   0.00  -0.01    -0.03  -0.02   0.04
  83   1     0.01   0.04  -0.04     0.02  -0.04   0.04    -0.04  -0.03   0.01
  84   1    -0.00   0.05  -0.03     0.02  -0.04   0.04    -0.02  -0.02  -0.02
  85   1    -0.01   0.01  -0.00     0.00   0.00   0.04     0.01  -0.00  -0.04
  86   1    -0.01  -0.00   0.01     0.01   0.01   0.04     0.01   0.01  -0.02
  87   1     0.01  -0.00  -0.02    -0.01  -0.00  -0.02    -0.00   0.00  -0.03
  88   1     0.00  -0.00  -0.02     0.00   0.03  -0.07    -0.02   0.02   0.00
  89   1     0.00   0.00  -0.03    -0.00   0.02  -0.05    -0.02   0.01  -0.02
  90   1    -0.01   0.01  -0.02     0.01   0.04  -0.04    -0.03   0.02  -0.01
  91   1     0.02  -0.02  -0.03    -0.01  -0.02  -0.05     0.01   0.01  -0.01
  92   1     0.02  -0.03  -0.01    -0.01  -0.02  -0.06     0.01   0.02   0.01
  93   1     0.02  -0.03  -0.01    -0.01  -0.03  -0.03     0.02   0.01  -0.00
  94   1     0.00  -0.01   0.02     0.00   0.01  -0.03    -0.01   0.02   0.02
  95   1    -0.01  -0.02   0.05     0.00   0.01  -0.00     0.01   0.03   0.02
  96   1    -0.01  -0.02   0.04     0.01  -0.00   0.01     0.02   0.01   0.01
  97   1    -0.01  -0.00   0.01    -0.00   0.02  -0.02    -0.02   0.01   0.03
  98   1     0.01  -0.03  -0.05    -0.02  -0.03  -0.04    -0.01   0.01   0.02
  99   1    -0.00   0.01  -0.08    -0.02  -0.01  -0.06    -0.03  -0.01   0.01
 100   1     0.00   0.00  -0.06    -0.02   0.01  -0.07    -0.03   0.00   0.03
 101   1    -0.03   0.07   0.01     0.02   0.06   0.01    -0.03  -0.02   0.00
 102   1    -0.02   0.06  -0.03     0.01   0.06  -0.04    -0.04  -0.01   0.02
 103   1    -0.02   0.07  -0.04     0.01   0.05  -0.02    -0.04  -0.02   0.00
 104   1    -0.01   0.02  -0.02    -0.00  -0.01   0.02    -0.02  -0.01  -0.03
 105   1    -0.01   0.02   0.02     0.01  -0.02   0.06    -0.00  -0.03  -0.08
 106   1    -0.01   0.01   0.03     0.01  -0.01   0.05    -0.00  -0.02  -0.07
 107   1    -0.01   0.00  -0.04    -0.01  -0.03  -0.00    -0.00  -0.01  -0.00
 108   1    -0.02   0.02  -0.07    -0.02   0.00  -0.06    -0.01  -0.03   0.05
 109   1    -0.01   0.02  -0.06    -0.02   0.00  -0.07    -0.01  -0.02   0.06
 110   1    -0.02   0.04  -0.04    -0.01   0.03  -0.04    -0.02  -0.04   0.03
 111   1    -0.00  -0.03  -0.05    -0.03  -0.04  -0.06     0.01   0.03   0.05
 112   1     0.01  -0.05  -0.03    -0.02  -0.06  -0.02     0.02   0.03   0.02
 113   1    -0.00  -0.04  -0.06    -0.03  -0.06  -0.05     0.01   0.02   0.03
 114   1    -0.01  -0.00  -0.01    -0.02  -0.00  -0.04     0.00   0.01   0.04
 115   1    -0.02   0.01   0.02     0.01  -0.02   0.01     0.04  -0.03  -0.02
 116   1    -0.02   0.01   0.03     0.04  -0.01   0.03     0.04  -0.04  -0.03
 117   1    -0.01   0.00   0.02     0.04   0.03   0.03     0.01  -0.01  -0.01
 118   1     0.00  -0.01   0.01     0.02   0.06   0.01    -0.03   0.02   0.03
 119   1     0.00  -0.01   0.01     0.00   0.04  -0.01    -0.03   0.03   0.03
 120   1    -0.02  -0.01  -0.01    -0.03  -0.05  -0.02    -0.03  -0.05  -0.02
 121   1    -0.01  -0.01  -0.04    -0.04  -0.06  -0.02    -0.02  -0.05  -0.04
 122   1     0.02  -0.01  -0.03    -0.02  -0.02  -0.01     0.02   0.00  -0.02
 123   1     0.05  -0.00  -0.01     0.01   0.06   0.03     0.07   0.07   0.04
 124   1     0.05  -0.00   0.01     0.02   0.06   0.01     0.07   0.08   0.04
 125   1     0.05  -0.00  -0.01     0.02   0.06  -0.01     0.08   0.08  -0.01
 126   1     0.02  -0.00   0.02     0.01   0.05   0.00     0.04   0.05   0.03
 127   1    -0.01   0.00   0.05     0.01   0.01   0.01     0.01   0.00   0.01
 128   1    -0.01   0.01   0.05     0.01  -0.00   0.03     0.01  -0.01  -0.01
 129   1    -0.01   0.00  -0.00     0.01  -0.03   0.05     0.01  -0.02  -0.03
 130   1    -0.01  -0.00   0.01     0.01  -0.02   0.04     0.02  -0.01  -0.01
 131   1    -0.01  -0.01   0.04     0.00   0.02   0.02    -0.01   0.03   0.05
 132   1    -0.01  -0.01   0.03     0.00   0.02   0.03    -0.00   0.02   0.03
 133   1     0.06   0.03  -0.04    -0.03  -0.03   0.02     0.01  -0.03  -0.02
                     13                     14                     15
                        a                      a                      a 
 Frequencies --    41.6283                48.6832                52.9359
 Red. masses --    10.3777                10.6105                10.6300
 Frc consts  --     0.0000                 0.0000                 0.0000
 IR Inten    --     0.2369                 0.0628                 0.2530
 Raman Activ --     0.0000                 0.0000                 0.0000
 Depolar     --     0.0000                 0.0000                 0.0000
 Atom AN      X      Y      Z        X      Y      Z        X      Y      Z
   1   6     0.33   0.13  -0.15     0.10  -0.08   0.02     0.05   0.10  -0.08
   2   6     0.20   0.06  -0.07     0.08  -0.03   0.01     0.01   0.02  -0.03
   3   6     0.21   0.06  -0.07     0.10   0.01   0.03     0.01   0.01  -0.05
   4   6     0.11  -0.00  -0.00     0.08   0.04   0.02    -0.01  -0.05  -0.02
   5   6     0.01  -0.06   0.05     0.04   0.04  -0.01    -0.04  -0.08   0.04
   6   6     0.01  -0.07   0.05     0.03   0.00  -0.03    -0.05  -0.07   0.06
   7   7    -0.02  -0.10   0.09     0.03   0.01  -0.06    -0.07  -0.10   0.12
   8   6     0.00  -0.06   0.02     0.04  -0.01  -0.03    -0.06  -0.05   0.05
   9   6    -0.01  -0.08  -0.04     0.03   0.01  -0.05    -0.08  -0.03  -0.00
  10   6     0.01  -0.04  -0.11     0.05  -0.05  -0.00    -0.10   0.05  -0.09
  11   6     0.04   0.00  -0.12     0.08  -0.12   0.06    -0.10   0.11  -0.14
  12   6     0.05   0.01  -0.07     0.09  -0.13   0.07    -0.08   0.08  -0.07
  13   6     0.04  -0.02  -0.00     0.06  -0.07   0.02    -0.06  -0.01   0.02
  14   6    -0.01  -0.08   0.06     0.03   0.02  -0.04    -0.06  -0.07   0.07
  15   6     0.02  -0.07   0.03     0.03   0.03  -0.02    -0.02  -0.06   0.06
  16   6     0.03  -0.05   0.02     0.03   0.04  -0.00    -0.01  -0.04   0.03
  17   6     0.00  -0.03   0.04     0.02   0.05   0.00    -0.03  -0.02   0.01
  18   6    -0.03  -0.03   0.07     0.01   0.05  -0.00    -0.06  -0.03   0.02
  19   6    -0.03  -0.06   0.07     0.02   0.03  -0.03    -0.07  -0.06   0.05
  20   6    -0.06   0.01   0.12     0.01   0.06   0.03    -0.08  -0.01  -0.02
  21   6    -0.09  -0.07   0.21    -0.02   0.02   0.07    -0.09   0.01  -0.04
  22   6    -0.09   0.12   0.17     0.02   0.12   0.06    -0.12  -0.03  -0.03
  23   6    -0.03   0.03   0.05     0.01   0.06   0.02    -0.05   0.02  -0.02
  24   6    -0.03   0.06   0.02     0.01   0.06   0.01    -0.06   0.05  -0.03
  25   6    -0.00   0.07  -0.04     0.01   0.05  -0.01    -0.03   0.07  -0.04
  26   6    -0.00   0.09  -0.08     0.01   0.04  -0.03    -0.03   0.08  -0.03
  27   6     0.01   0.10  -0.12     0.03   0.03  -0.03    -0.01   0.06  -0.00
  28   6     0.01   0.10  -0.13     0.04  -0.01  -0.03    -0.01   0.02   0.05
  29   6    -0.00   0.07  -0.09     0.02  -0.03  -0.03    -0.01   0.00   0.07
  30   6    -0.01   0.06  -0.07    -0.01  -0.02  -0.03    -0.02   0.03   0.02
  31   6    -0.01   0.07  -0.07    -0.01   0.01  -0.03    -0.03   0.07  -0.02
  32   6    -0.02   0.02  -0.02    -0.02  -0.05  -0.02    -0.03   0.01   0.04
  33   6    -0.07   0.04   0.03    -0.06  -0.05  -0.02    -0.08   0.01   0.03
  34   6     0.02  -0.04  -0.01    -0.02  -0.05  -0.02    -0.01   0.02   0.04
  35   6    -0.01   0.00  -0.01    -0.01  -0.07  -0.02    -0.02  -0.02   0.07
  36   6    -0.01  -0.04   0.04    -0.01  -0.09  -0.02    -0.02  -0.03   0.05
  37   6    -0.01  -0.04   0.04    -0.00  -0.09  -0.02    -0.00  -0.06   0.05
  38   6    -0.01  -0.06   0.05    -0.00  -0.07  -0.03     0.00  -0.05  -0.00
  39   6    -0.01  -0.06   0.06     0.03  -0.05   0.01     0.02  -0.05  -0.07
  40   6    -0.01  -0.05   0.05     0.04  -0.01   0.03     0.02  -0.03  -0.10
  41   6    -0.01  -0.05   0.03     0.01   0.02   0.03     0.01  -0.01  -0.07
  42   6    -0.02  -0.06   0.03    -0.03  -0.00  -0.02    -0.01  -0.01  -0.02
  43   6    -0.01  -0.06   0.04    -0.04  -0.05  -0.05    -0.01  -0.03   0.02
  44   6    -0.03  -0.05   0.02    -0.06   0.03  -0.02    -0.02   0.01  -0.00
  45   6    -0.01  -0.06   0.03    -0.15   0.09  -0.08    -0.03   0.00   0.01
  46   6    -0.05  -0.04   0.03    -0.04  -0.05  -0.06    -0.03   0.03   0.00
  47   6    -0.02  -0.05  -0.00    -0.03   0.08   0.05     0.00   0.03  -0.02
  48   6    -0.03  -0.04  -0.03    -0.03   0.12   0.09     0.00   0.06   0.02
  49   6    -0.02  -0.03  -0.05    -0.01   0.14   0.11     0.02   0.07   0.04
  50   7    -0.03  -0.03  -0.06    -0.01   0.19   0.14     0.03   0.11   0.10
  51   6    -0.02   0.01  -0.02    -0.03   0.09   0.04     0.06   0.05   0.04
  52   6     0.00  -0.03  -0.00     0.01   0.08  -0.08     0.06   0.05   0.04
  53   6     0.00   0.01   0.04    -0.01  -0.01  -0.18     0.16  -0.06  -0.03
  54   6    -0.02   0.09   0.06    -0.06  -0.09  -0.15     0.26  -0.17  -0.10
  55   6    -0.05   0.12   0.04    -0.10  -0.07  -0.03     0.24  -0.15  -0.08
  56   6    -0.04   0.08  -0.00    -0.08   0.02   0.06     0.14  -0.04  -0.01
  57   6    -0.04  -0.02  -0.03    -0.02   0.11   0.07     0.04   0.07   0.04
  58   6    -0.05  -0.08  -0.03    -0.03   0.09   0.05     0.04   0.14   0.01
  59   6    -0.07  -0.07  -0.01    -0.08  -0.04  -0.00     0.08   0.13  -0.04
  60   6    -0.06   0.00   0.01    -0.12  -0.17  -0.03     0.11   0.05  -0.06
  61   6    -0.04   0.08   0.01    -0.09  -0.14  -0.01     0.10  -0.04  -0.03
  62   6    -0.03   0.17   0.03    -0.14  -0.29  -0.05     0.13  -0.15  -0.05
  63   6    -0.03   0.06  -0.02    -0.03   0.02   0.05     0.07  -0.02   0.03
  64   6    -0.01  -0.03  -0.04     0.03   0.13   0.11     0.03   0.06   0.01
  65   6    -0.01  -0.04  -0.02     0.03   0.10   0.10     0.03   0.04  -0.04
  66   6    -0.01  -0.05   0.00     0.01   0.07   0.07     0.02   0.02  -0.05
  67   6     0.00  -0.02   0.00     0.01  -0.09  -0.01     0.01  -0.08   0.11
  68   6     0.00   0.02  -0.05     0.02  -0.08  -0.01     0.02  -0.07   0.13
  69   6    -0.00   0.03  -0.06     0.01  -0.06  -0.02    -0.01  -0.03   0.10
  70   6     0.03   0.05  -0.06     0.01   0.05  -0.00    -0.00   0.06  -0.04
  71   6     0.04   0.02  -0.03     0.01   0.06   0.01     0.00   0.03  -0.02
  72   6     0.01   0.01   0.02     0.02   0.06   0.01    -0.03   0.01  -0.02
  73   6     0.09  -0.02  -0.00     0.04  -0.04  -0.01    -0.03  -0.02   0.03
  74   1     0.11   0.07  -0.02     0.04  -0.04   0.01    -0.00   0.10  -0.03
  75   1     0.09   0.03  -0.05     0.03  -0.02  -0.01    -0.02  -0.01   0.01
  76   1     0.11   0.03  -0.07     0.02  -0.02   0.02     0.07   0.01  -0.06
  77   1     0.09   0.04  -0.04     0.04   0.00   0.01     0.01   0.01  -0.03
  78   1     0.03   0.00  -0.00     0.03   0.02   0.01    -0.00  -0.02  -0.01
  79   1    -0.02  -0.03   0.03     0.01   0.02  -0.00    -0.02  -0.03   0.02
  80   1    -0.01  -0.03  -0.01     0.00   0.02  -0.03    -0.02  -0.02   0.01
  81   1    -0.00  -0.02  -0.04     0.01  -0.01  -0.00    -0.03   0.02  -0.04
  82   1     0.02   0.01  -0.05     0.03  -0.05   0.03    -0.03   0.05  -0.06
  83   1     0.02   0.01  -0.02     0.03  -0.05   0.03    -0.02   0.03  -0.03
  84   1     0.01  -0.00   0.01     0.02  -0.02   0.01    -0.01  -0.01   0.02
  85   1     0.01  -0.03   0.01     0.01   0.01  -0.00    -0.00  -0.02   0.02
  86   1     0.01  -0.01  -0.00     0.01   0.01   0.00     0.00  -0.01   0.01
  87   1    -0.01  -0.02   0.02     0.00   0.01  -0.01    -0.03  -0.02   0.01
  88   1    -0.03  -0.02   0.08    -0.01   0.01   0.03    -0.03   0.01  -0.02
  89   1    -0.03  -0.02   0.07    -0.01   0.01   0.02    -0.03  -0.00  -0.01
  90   1    -0.03  -0.04   0.05    -0.01  -0.00   0.02    -0.02   0.01  -0.01
  91   1    -0.03   0.03   0.06     0.00   0.03   0.02    -0.04  -0.02  -0.01
  92   1    -0.03   0.05   0.06     0.00   0.04   0.03    -0.04  -0.00  -0.02
  93   1    -0.02   0.05   0.03     0.01   0.04   0.01    -0.04  -0.01  -0.01
  94   1    -0.02   0.02   0.01     0.00   0.02   0.00    -0.02   0.02  -0.01
  95   1     0.00   0.03  -0.04     0.01   0.01  -0.01    -0.00   0.02  -0.00
  96   1     0.00   0.03  -0.05     0.02  -0.00  -0.01    -0.00   0.00   0.02
  97   1    -0.00   0.02  -0.02    -0.01   0.01  -0.01    -0.01   0.03  -0.01
  98   1    -0.03   0.02   0.01    -0.02  -0.01  -0.01    -0.03  -0.00   0.01
  99   1    -0.02   0.00   0.02    -0.02  -0.02  -0.00    -0.03  -0.00   0.01
 100   1    -0.02   0.01   0.01    -0.02  -0.01  -0.01    -0.03   0.01   0.00
 101   1     0.02  -0.02  -0.01     0.01  -0.01  -0.01     0.01   0.01   0.01
 102   1     0.00  -0.01  -0.00    -0.01  -0.01  -0.01    -0.01   0.02   0.00
 103   1     0.00  -0.02   0.01    -0.01  -0.02  -0.00    -0.01  -0.00   0.01
 104   1    -0.01  -0.02   0.02    -0.00  -0.03  -0.00    -0.01  -0.01   0.00
 105   1    -0.00  -0.02   0.02     0.02  -0.02   0.00     0.01  -0.02  -0.03
 106   1    -0.00  -0.02   0.01     0.02   0.00   0.02     0.01  -0.01  -0.04
 107   1    -0.00  -0.02   0.01    -0.02  -0.02  -0.02    -0.01  -0.01   0.02
 108   1    -0.00  -0.02   0.02    -0.05   0.02  -0.05    -0.01  -0.00   0.01
 109   1    -0.01  -0.02   0.01    -0.05   0.03  -0.02    -0.01   0.00   0.00
 110   1     0.00  -0.02   0.01    -0.05   0.04  -0.01    -0.01  -0.00   0.00
 111   1    -0.02  -0.01   0.01    -0.02  -0.01  -0.02    -0.01   0.01   0.00
 112   1    -0.02  -0.01   0.01     0.01  -0.03  -0.01    -0.01   0.01  -0.00
 113   1    -0.02  -0.01   0.01    -0.02  -0.03  -0.04    -0.01   0.00   0.00
 114   1    -0.01  -0.01  -0.01    -0.02   0.04   0.02    -0.00   0.02   0.01
 115   1     0.01  -0.03  -0.01     0.01   0.04  -0.03    -0.00   0.04   0.03
 116   1     0.01  -0.01   0.02     0.01  -0.01  -0.08     0.05  -0.02  -0.01
 117   1    -0.01   0.04   0.03    -0.02  -0.05  -0.07     0.10  -0.08  -0.05
 118   1    -0.02   0.05   0.02    -0.04  -0.04  -0.00     0.09  -0.07  -0.04
 119   1    -0.02   0.03  -0.01    -0.03   0.01   0.04     0.04  -0.01   0.00
 120   1    -0.02  -0.04  -0.01    -0.00   0.05   0.02     0.01   0.06   0.00
 121   1    -0.02  -0.04  -0.00    -0.03  -0.02  -0.01     0.02   0.06  -0.02
 122   1    -0.02   0.00   0.01    -0.05  -0.09  -0.02     0.04   0.01  -0.03
 123   1    -0.01   0.05   0.03    -0.05  -0.09  -0.04     0.04  -0.05  -0.04
 124   1    -0.01   0.06   0.01    -0.04  -0.09  -0.02     0.04  -0.05  -0.00
 125   1    -0.00   0.06  -0.01    -0.04  -0.11   0.01     0.04  -0.06  -0.00
 126   1    -0.01   0.03  -0.01    -0.00   0.01   0.02     0.02  -0.03   0.02
 127   1    -0.00  -0.01  -0.02     0.01   0.04   0.04     0.01   0.02   0.01
 128   1     0.00  -0.01  -0.00     0.02   0.03   0.03     0.01   0.01  -0.02
 129   1     0.00  -0.01   0.00     0.01  -0.03  -0.00     0.01  -0.03   0.04
 130   1     0.00   0.01  -0.02     0.01  -0.02  -0.00     0.01  -0.03   0.05
 131   1     0.02   0.02  -0.03     0.00   0.02  -0.00     0.00   0.02  -0.01
 132   1     0.02   0.00  -0.01     0.00   0.02   0.00     0.01   0.01  -0.01
 133   1     0.02  -0.01   0.00     0.01  -0.02  -0.01    -0.01  -0.00   0.01
                     16                     17                     18
                        a                      a                      a 
 Frequencies --    56.6376                57.6928                59.4696
 Red. masses --     1.8952                10.5340                10.0547
 Frc consts  --     0.0000                 0.0000                 0.0000
 IR Inten    --     0.3566                 0.9153                 0.6759
 Raman Activ --     0.0000                 0.0000                 0.0000
 Depolar     --     0.0000                 0.0000                 0.0000
 Atom AN      X      Y      Z        X      Y      Z        X      Y      Z
   1   6     0.02  -0.04  -0.01     0.09  -0.02   0.05     0.10  -0.08   0.01
   2   6     0.02   0.03  -0.04     0.06   0.02   0.04     0.03  -0.04   0.01
   3   6    -0.00   0.01  -0.01     0.11   0.09   0.03    -0.02  -0.02   0.10
   4   6    -0.03  -0.01  -0.00     0.09   0.11   0.03    -0.06   0.04   0.09
   5   6    -0.03  -0.00  -0.01     0.02   0.09   0.02    -0.06   0.07  -0.00
   6   6    -0.01   0.00  -0.02    -0.02   0.04   0.02    -0.01   0.05  -0.08
   7   7    -0.01   0.01  -0.02    -0.03   0.04   0.01    -0.01   0.09  -0.18
   8   6    -0.02   0.00  -0.01     0.02   0.01  -0.01    -0.01   0.04  -0.10
   9   6    -0.02   0.02  -0.02    -0.01   0.02  -0.13    -0.01   0.06  -0.09
  10   6    -0.03   0.02  -0.02     0.08  -0.08  -0.10     0.01  -0.02   0.00
  11   6    -0.03   0.01  -0.01     0.21  -0.21   0.05     0.02  -0.13   0.09
  12   6    -0.02  -0.01   0.00     0.24  -0.20   0.15     0.02  -0.14   0.07
  13   6    -0.02  -0.01  -0.00     0.14  -0.09   0.11    -0.00  -0.05  -0.03
  14   6    -0.01   0.00  -0.01    -0.02   0.05   0.03    -0.02   0.06  -0.10
  15   6    -0.02   0.00   0.01    -0.03   0.05   0.06    -0.05   0.07  -0.03
  16   6    -0.02   0.00   0.03    -0.03   0.04   0.00    -0.07   0.05   0.04
  17   6    -0.02   0.00   0.03    -0.03   0.03  -0.06    -0.05   0.04   0.05
  18   6    -0.01  -0.00   0.01    -0.02   0.04  -0.02    -0.01   0.03  -0.01
  19   6    -0.01  -0.00  -0.01    -0.03   0.05   0.01     0.00   0.04  -0.09
  20   6    -0.01  -0.00   0.02    -0.02   0.04  -0.01    -0.00   0.02   0.05
  21   6    -0.02  -0.02   0.03     0.00  -0.01   0.04    -0.02  -0.03   0.10
  22   6    -0.01   0.01   0.03    -0.04   0.10   0.01     0.05   0.08   0.08
  23   6    -0.01  -0.00   0.02    -0.02   0.02  -0.07    -0.02  -0.00   0.06
  24   6    -0.01  -0.01   0.00    -0.02   0.00  -0.06    -0.01  -0.03   0.03
  25   6    -0.01  -0.00   0.01    -0.03  -0.02  -0.11    -0.03  -0.05   0.04
  26   6    -0.01  -0.00  -0.01    -0.03  -0.03  -0.03    -0.02  -0.06  -0.01
  27   6    -0.00   0.01  -0.03    -0.06  -0.08   0.06    -0.02  -0.02  -0.07
  28   6    -0.01   0.01  -0.04    -0.06  -0.09   0.13    -0.02   0.00  -0.11
  29   6    -0.01   0.00  -0.03    -0.04  -0.05   0.10    -0.03  -0.01  -0.10
  30   6    -0.01  -0.00  -0.02    -0.02  -0.02   0.03    -0.02  -0.04  -0.05
  31   6    -0.01  -0.01  -0.01    -0.02  -0.01  -0.04    -0.03  -0.06  -0.00
  32   6    -0.00  -0.00  -0.01    -0.01  -0.01   0.04    -0.01  -0.03  -0.05
  33   6    -0.01  -0.01  -0.02     0.01   0.02   0.10    -0.01  -0.05  -0.09
  34   6     0.01   0.01  -0.01    -0.00  -0.06   0.05    -0.01   0.01  -0.05
  35   6    -0.00  -0.01  -0.00    -0.03   0.02   0.04    -0.02  -0.03  -0.04
  36   6     0.00  -0.01   0.01    -0.03   0.06  -0.02    -0.01  -0.03   0.01
  37   6    -0.00  -0.01   0.02    -0.04   0.06  -0.00    -0.02  -0.02   0.01
  38   6     0.00  -0.01   0.03    -0.04   0.07  -0.05    -0.01  -0.01   0.08
  39   6     0.01  -0.01   0.04    -0.06   0.06  -0.11     0.00   0.01   0.15
  40   6     0.01  -0.00   0.04    -0.07   0.03  -0.14     0.00   0.01   0.17
  41   6     0.01  -0.00   0.03    -0.05   0.03  -0.10    -0.00   0.01   0.12
  42   6     0.00  -0.00   0.02    -0.03   0.05  -0.05    -0.01  -0.00   0.08
  43   6    -0.00  -0.01   0.02    -0.03   0.07  -0.02    -0.02  -0.01   0.06
  44   6    -0.00  -0.00   0.02    -0.01   0.03  -0.03    -0.02  -0.00   0.06
  45   6     0.01  -0.01   0.03     0.01   0.01  -0.01     0.03  -0.05   0.11
  46   6    -0.02   0.01   0.02     0.01   0.06  -0.02    -0.07   0.06   0.10
  47   6    -0.00  -0.00  -0.00    -0.02   0.01  -0.04    -0.02  -0.01  -0.00
  48   6    -0.00   0.00  -0.02    -0.01  -0.01  -0.00    -0.02  -0.01  -0.08
  49   6     0.00   0.00  -0.02    -0.03  -0.03   0.01    -0.02  -0.01  -0.07
  50   7     0.00   0.01  -0.01    -0.03  -0.06   0.03    -0.02  -0.01  -0.07
  51   6     0.02   0.01  -0.01    -0.02  -0.05   0.03     0.03   0.00  -0.03
  52   6     0.01   0.01   0.02    -0.05  -0.02   0.07     0.00   0.02   0.07
  53   6     0.05  -0.01   0.02    -0.03  -0.02   0.08     0.11  -0.01   0.08
  54   6     0.09  -0.03  -0.01     0.02  -0.06   0.04     0.25  -0.05  -0.01
  55   6     0.09  -0.02  -0.03     0.05  -0.08   0.01     0.26  -0.05  -0.09
  56   6     0.05  -0.00  -0.03     0.03  -0.08   0.00     0.15  -0.01  -0.10
  57   6     0.00   0.01  -0.01    -0.02  -0.05   0.01    -0.02   0.00  -0.05
  58   6     0.01   0.03  -0.01    -0.02  -0.03  -0.01     0.01   0.07  -0.03
  59   6     0.02   0.05  -0.01     0.02   0.02  -0.03     0.04   0.13  -0.02
  60   6     0.02   0.03  -0.01     0.07   0.06  -0.01     0.04   0.11  -0.03
  61   6     0.01   0.00  -0.02     0.08   0.03   0.01     0.00   0.03  -0.05
  62   6     0.00  -0.02  -0.02     0.15   0.08   0.03    -0.01  -0.01  -0.06
  63   6    -0.00  -0.01  -0.02     0.03  -0.03   0.02    -0.02  -0.03  -0.06
  64   6     0.00   0.00  -0.01    -0.06  -0.03  -0.00    -0.01  -0.00  -0.03
  65   6     0.01   0.00   0.00    -0.07  -0.01  -0.05    -0.00   0.00   0.03
  66   6     0.00   0.00   0.01    -0.05   0.01  -0.07    -0.01   0.00   0.06
  67   6    -0.01  -0.01   0.00    -0.05   0.02   0.06    -0.04   0.01  -0.05
  68   6    -0.01   0.00  -0.02    -0.05  -0.03   0.11    -0.05   0.02  -0.11
  69   6    -0.00   0.00  -0.02    -0.04  -0.03   0.10    -0.03  -0.00  -0.10
  70   6    -0.01  -0.00   0.03    -0.03  -0.03  -0.20    -0.06  -0.03   0.10
  71   6    -0.01   0.00   0.04    -0.03  -0.02  -0.20    -0.07   0.00   0.13
  72   6    -0.02  -0.00   0.04    -0.02   0.01  -0.12    -0.05   0.01   0.09
  73   6     0.01   0.02  -0.04    -0.01  -0.00   0.03     0.03  -0.01  -0.07
  74   1     0.21  -0.53   0.12     0.04  -0.04   0.02    -0.02   0.11  -0.02
  75   1     0.30   0.34  -0.27     0.04   0.01  -0.01    -0.05  -0.13   0.05
  76   1    -0.51   0.10   0.17    -0.00   0.00   0.03     0.17  -0.05  -0.03
  77   1    -0.00   0.00  -0.01     0.05   0.03   0.01    -0.01  -0.01   0.05
  78   1    -0.01  -0.00   0.00     0.03   0.05   0.01    -0.03   0.02   0.04
  79   1    -0.01  -0.00   0.00     0.00   0.03   0.00    -0.03   0.03  -0.00
  80   1    -0.01   0.01  -0.01    -0.03   0.03  -0.07    -0.01   0.04  -0.04
  81   1    -0.01   0.01  -0.01     0.01  -0.02  -0.05     0.00  -0.00   0.00
  82   1    -0.01   0.00  -0.00     0.08  -0.09   0.03     0.01  -0.06   0.05
  83   1    -0.01  -0.01   0.00     0.10  -0.08   0.07     0.01  -0.06   0.04
  84   1    -0.00  -0.01   0.00     0.05  -0.03   0.05    -0.00  -0.02  -0.01
  85   1    -0.01   0.00   0.00    -0.01   0.02   0.03    -0.02   0.02  -0.01
  86   1    -0.01   0.00   0.01    -0.01   0.01   0.00    -0.03   0.02   0.03
  87   1    -0.00  -0.00  -0.01    -0.01   0.01   0.00     0.01   0.01  -0.04
  88   1    -0.00  -0.01   0.01     0.00  -0.00   0.02    -0.00  -0.01   0.05
  89   1    -0.00  -0.00   0.01     0.00   0.00   0.02    -0.00  -0.00   0.03
  90   1    -0.01  -0.01   0.01     0.00  -0.02   0.01    -0.02  -0.02   0.02
  91   1    -0.00   0.00   0.01    -0.01   0.03   0.02     0.02   0.03   0.02
  92   1    -0.00   0.00   0.01    -0.01   0.03   0.01     0.02   0.02   0.04
  93   1    -0.00   0.01   0.01    -0.02   0.04  -0.01     0.02   0.03   0.01
  94   1    -0.00  -0.00  -0.00    -0.00   0.00  -0.00     0.00  -0.01  -0.00
  95   1    -0.00   0.00  -0.01    -0.02  -0.03   0.02    -0.01  -0.00  -0.02
  96   1    -0.00   0.00  -0.01    -0.02  -0.03   0.05    -0.01   0.01  -0.04
  97   1    -0.00  -0.00   0.00     0.00   0.01  -0.03    -0.01  -0.03   0.01
  98   1    -0.00  -0.01  -0.01    -0.00   0.02   0.03    -0.00  -0.02  -0.02
  99   1    -0.00  -0.00  -0.01     0.01   0.01   0.04    -0.00  -0.01  -0.03
 100   1    -0.00  -0.00  -0.01     0.01  -0.00   0.03    -0.00  -0.01  -0.03
 101   1     0.00   0.00  -0.00    -0.01  -0.02   0.00    -0.01   0.00  -0.01
 102   1     0.00   0.00  -0.01     0.00  -0.03   0.02    -0.00   0.00  -0.02
 103   1     0.00   0.00  -0.00     0.00  -0.02   0.02    -0.00   0.01  -0.02
 104   1     0.00  -0.01   0.01    -0.01   0.03  -0.02     0.00  -0.02   0.02
 105   1     0.00  -0.00   0.01    -0.02   0.02  -0.04     0.00   0.00   0.05
 106   1     0.00   0.00   0.01    -0.02   0.01  -0.05     0.00   0.01   0.06
 107   1    -0.00  -0.00   0.01    -0.00   0.02   0.01    -0.01  -0.01   0.01
 108   1     0.00  -0.00   0.01     0.01   0.01  -0.00     0.01  -0.01   0.05
 109   1     0.00  -0.00   0.01     0.01   0.00   0.00     0.01  -0.01   0.03
 110   1     0.01  -0.01   0.01    -0.00  -0.00  -0.00     0.02  -0.03   0.02
 111   1    -0.01   0.00   0.01     0.01   0.01  -0.00    -0.02   0.01   0.02
 112   1    -0.01   0.01   0.01    -0.00   0.02  -0.01    -0.04   0.03   0.02
 113   1    -0.01   0.00   0.01     0.01   0.02  -0.00    -0.02   0.02   0.05
 114   1    -0.00  -0.00  -0.01     0.00  -0.01   0.00    -0.01  -0.01  -0.04
 115   1    -0.01   0.01   0.01    -0.02  -0.00   0.03    -0.03   0.01   0.04
 116   1     0.01  -0.00   0.01    -0.02   0.00   0.03     0.03  -0.00   0.04
 117   1     0.04  -0.01  -0.01     0.01  -0.02   0.01     0.10  -0.02  -0.00
 118   1     0.04  -0.01  -0.02     0.02  -0.03  -0.01     0.11  -0.02  -0.05
 119   1     0.02   0.00  -0.01     0.01  -0.03  -0.01     0.05  -0.00  -0.05
 120   1     0.00   0.01  -0.00    -0.02  -0.01  -0.01     0.01   0.02  -0.01
 121   1     0.01   0.02  -0.00     0.00   0.01  -0.02     0.02   0.06  -0.00
 122   1     0.01   0.01  -0.00     0.03   0.03  -0.01     0.02   0.05  -0.00
 123   1     0.00  -0.01  -0.01     0.05   0.03   0.02     0.00  -0.00  -0.02
 124   1     0.00  -0.01  -0.01     0.05   0.02   0.02    -0.00  -0.01  -0.02
 125   1     0.00  -0.01  -0.00     0.05   0.03  -0.01    -0.01  -0.01  -0.01
 126   1    -0.00  -0.01  -0.01     0.01  -0.01   0.01    -0.01  -0.02  -0.02
 127   1     0.00   0.00  -0.00    -0.02  -0.01   0.01    -0.00  -0.00  -0.01
 128   1     0.00   0.00   0.00    -0.03  -0.00  -0.02     0.00   0.00   0.02
 129   1    -0.00  -0.00   0.00    -0.02   0.01   0.02    -0.02   0.01  -0.02
 130   1    -0.00   0.00  -0.01    -0.02  -0.02   0.05    -0.02   0.01  -0.04
 131   1    -0.00   0.00   0.01    -0.01  -0.01  -0.07    -0.02  -0.01   0.03
 132   1    -0.00   0.00   0.02    -0.01  -0.01  -0.08    -0.03   0.01   0.05
 133   1     0.01   0.01  -0.01    -0.01  -0.01   0.01     0.02  -0.01  -0.04
                     19                     20                     21
                        a                      a                      a 
 Frequencies --    71.4905                75.1753                76.8852
 Red. masses --    10.0933                 1.2082                 9.8020
 Frc consts  --     0.0000                 0.0000                 0.0000
 IR Inten    --     0.6742                 0.5280                 1.8500
 Raman Activ --     0.0000                 0.0000                 0.0000
 Depolar     --     0.0000                 0.0000                 0.0000
 Atom AN      X      Y      Z        X      Y      Z        X      Y      Z
   1   6     0.11   0.04  -0.10     0.00   0.00  -0.00    -0.02  -0.02   0.05
   2   6    -0.02  -0.01  -0.03    -0.00  -0.00  -0.00     0.01   0.02   0.02
   3   6    -0.17  -0.10   0.09    -0.01  -0.01   0.00     0.08   0.07  -0.02
   4   6    -0.23  -0.11   0.12    -0.01  -0.01   0.00     0.08   0.09  -0.03
   5   6    -0.16  -0.05   0.04    -0.00  -0.01   0.00     0.03   0.06  -0.01
   6   6    -0.05  -0.00  -0.05     0.00  -0.00  -0.00    -0.02   0.02   0.01
   7   7    -0.04   0.02  -0.08     0.00  -0.00  -0.00    -0.03   0.02   0.01
   8   6    -0.05   0.00  -0.04     0.00  -0.00  -0.00    -0.01   0.02  -0.01
   9   6    -0.12   0.19  -0.18    -0.00   0.01  -0.00     0.01  -0.07   0.03
  10   6    -0.16   0.23  -0.18    -0.01   0.01  -0.01     0.06  -0.13   0.05
  11   6    -0.13   0.05  -0.04    -0.01   0.01  -0.00     0.08  -0.08   0.03
  12   6    -0.05  -0.17   0.12    -0.01  -0.00   0.00     0.04   0.03  -0.03
  13   6    -0.02  -0.19   0.11    -0.00  -0.01   0.00     0.00   0.08  -0.04
  14   6    -0.03   0.01  -0.03     0.00  -0.00  -0.00    -0.03   0.01   0.00
  15   6    -0.04   0.03   0.07     0.00   0.00   0.00    -0.04   0.00  -0.03
  16   6    -0.05   0.03   0.10     0.00   0.00   0.00    -0.04  -0.01  -0.04
  17   6    -0.03   0.01   0.05     0.00   0.00   0.00    -0.03  -0.01  -0.02
  18   6    -0.02   0.00  -0.01     0.00   0.00   0.00    -0.03  -0.01   0.00
  19   6    -0.02  -0.00  -0.06     0.00  -0.00  -0.00    -0.03   0.01   0.02
  20   6    -0.02   0.00   0.02     0.00   0.00   0.00    -0.02  -0.01  -0.01
  21   6    -0.04  -0.06   0.08    -0.00   0.00   0.00    -0.02   0.01  -0.03
  22   6    -0.01   0.08   0.06     0.00   0.01   0.00    -0.02  -0.04  -0.02
  23   6    -0.02  -0.00  -0.00     0.00   0.00   0.00    -0.03  -0.02  -0.00
  24   6    -0.01  -0.01  -0.03     0.00   0.00  -0.00    -0.03  -0.02   0.02
  25   6    -0.00  -0.01  -0.04     0.00   0.00  -0.00    -0.03  -0.02   0.02
  26   6     0.01  -0.02  -0.04     0.00   0.00  -0.00    -0.03  -0.01   0.02
  27   6     0.00  -0.03  -0.02     0.00   0.00  -0.00    -0.04  -0.00   0.01
  28   6    -0.00  -0.03   0.02     0.01  -0.00   0.00    -0.04   0.02  -0.01
  29   6     0.02  -0.02   0.03     0.00  -0.00   0.00    -0.03   0.02  -0.01
  30   6     0.03  -0.01   0.01     0.00  -0.00  -0.00    -0.03   0.01   0.02
  31   6     0.03  -0.01  -0.03     0.00   0.00  -0.00    -0.03  -0.01   0.03
  32   6     0.04   0.00   0.01     0.00  -0.00  -0.00    -0.02   0.02   0.01
  33   6     0.05  -0.00   0.01    -0.00  -0.00  -0.00    -0.02   0.01  -0.01
  34   6     0.06   0.01   0.01     0.00  -0.00  -0.00    -0.03   0.03   0.01
  35   6     0.03   0.01   0.03     0.00  -0.01  -0.00    -0.03   0.02   0.00
  36   6     0.04   0.02   0.02     0.00  -0.00  -0.00    -0.02   0.01   0.02
[...]
  20   6     0.00   0.00   0.00     0.00  -0.00   0.00     0.00   0.00   0.00
  21   6    -0.00   0.00   0.00     0.00  -0.00   0.00     0.00   0.00   0.00
  22   6    -0.00   0.00  -0.00     0.00  -0.00   0.00     0.00   0.00  -0.00
  23   6    -0.00   0.00  -0.00     0.00  -0.00   0.00    -0.00   0.00  -0.00
  24   6     0.01   0.02  -0.00    -0.00  -0.00   0.00     0.00   0.00  -0.00
  25   6     0.00   0.00   0.00    -0.00  -0.00  -0.00     0.00   0.00   0.00
  26   6    -0.00  -0.00  -0.00     0.00   0.00   0.00    -0.00  -0.00  -0.00
  27   6    -0.01   0.01   0.00     0.00  -0.00  -0.00    -0.00   0.00   0.00
  28   6     0.00   0.01   0.00    -0.00  -0.00  -0.00     0.00   0.00   0.00
  29   6     0.00   0.00   0.00    -0.00  -0.00  -0.00     0.00   0.00   0.00
  30   6     0.00  -0.00  -0.00    -0.00   0.00   0.00     0.00  -0.00  -0.00
  31   6    -0.00  -0.01  -0.00     0.00   0.00   0.00    -0.00  -0.00  -0.00
  32   6     0.00  -0.00  -0.00     0.00   0.00   0.00     0.00   0.00  -0.00
  33   6     0.00  -0.00  -0.00     0.00   0.00   0.00     0.00  -0.00  -0.00
  34   6     0.00  -0.00  -0.00     0.00   0.00   0.00     0.00   0.00   0.00
  35   6    -0.00  -0.00  -0.00     0.00   0.00   0.00    -0.00   0.00   0.00
  36   6     0.00  -0.00  -0.00    -0.00   0.01   0.00    -0.00   0.00   0.00
  37   6     0.00  -0.00  -0.00    -0.00   0.00   0.00    -0.00  -0.00  -0.00
  38   6    -0.00   0.00   0.00     0.00  -0.00  -0.00     0.00  -0.00   0.00
  39   6    -0.00  -0.00   0.00     0.02   0.02  -0.01     0.00   0.00  -0.00
  40   6     0.00  -0.00   0.00    -0.01   0.03  -0.00    -0.00   0.00  -0.00
  41   6     0.00  -0.00  -0.00    -0.00   0.00   0.00    -0.00   0.00  -0.00
  42   6     0.00   0.00  -0.00    -0.00  -0.00   0.00    -0.00  -0.00   0.00
  43   6    -0.00   0.00  -0.00     0.01  -0.01   0.00     0.00  -0.00   0.00
  44   6     0.00   0.00  -0.00     0.00  -0.00   0.00     0.00  -0.00   0.00
  45   6     0.00   0.00  -0.00    -0.00  -0.00  -0.00     0.00  -0.00  -0.00
  46   6     0.00   0.00  -0.00    -0.00  -0.00   0.00     0.00   0.00   0.00
  47   6    -0.00  -0.00   0.00     0.00  -0.00   0.00     0.00  -0.00   0.00
  48   6    -0.00  -0.00   0.00    -0.01  -0.05   0.01    -0.00  -0.00   0.00
  49   6    -0.00  -0.00   0.00    -0.01  -0.00   0.00    -0.00  -0.00   0.00
  50   7    -0.00   0.00  -0.00     0.00   0.00  -0.00     0.00   0.00  -0.00
  51   6     0.00   0.00  -0.00     0.00  -0.00   0.00     0.00   0.00   0.00
  52   6    -0.00   0.00  -0.00     0.00  -0.00   0.00     0.00  -0.00   0.00
  53   6    -0.00  -0.00  -0.00     0.01   0.01   0.00     0.00   0.00   0.00
  54   6     0.00   0.00  -0.00     0.00   0.01  -0.01     0.00   0.00  -0.00
  55   6    -0.00   0.00  -0.00    -0.00   0.00  -0.00     0.00  -0.00   0.00
  56   6    -0.00  -0.00  -0.00     0.01   0.01   0.00     0.00   0.00   0.00
  57   6    -0.00   0.00  -0.00    -0.00   0.00  -0.00    -0.00   0.00  -0.00
  58   6     0.00   0.00  -0.00     0.00   0.00  -0.02     0.00   0.00  -0.00
  59   6     0.00  -0.00  -0.00     0.01  -0.00  -0.01     0.00  -0.00  -0.00
  60   6     0.00  -0.00   0.00     0.01  -0.01   0.01     0.00  -0.00   0.00
  61   6    -0.00  -0.00   0.00     0.00  -0.00  -0.00    -0.00  -0.00   0.00
  62   6     0.00  -0.00   0.00     0.00  -0.00  -0.00     0.00  -0.00  -0.00
  63   6     0.00  -0.00  -0.00     0.01  -0.00  -0.01     0.00  -0.00  -0.00
  64   6    -0.00   0.00  -0.00    -0.14   0.15  -0.01    -0.00   0.00  -0.00
  65   6     0.00   0.00  -0.00     0.04   0.16  -0.03     0.00   0.00  -0.00
  66   6     0.00  -0.00  -0.00     0.01   0.00  -0.00     0.00   0.00  -0.00
  67   6     0.00   0.00   0.00    -0.01  -0.01  -0.00     0.00   0.00   0.00
  68   6    -0.00   0.00   0.00     0.00  -0.01  -0.00    -0.00   0.00   0.00
  69   6    -0.00   0.00   0.00     0.00  -0.00  -0.00     0.00   0.00  -0.00
  70   6     0.02  -0.02   0.01    -0.00   0.00  -0.00     0.00  -0.00   0.00
  71   6    -0.01  -0.04   0.01     0.00   0.00  -0.00    -0.00  -0.00   0.00
  72   6    -0.00  -0.00  -0.00     0.00   0.00   0.00    -0.00  -0.00   0.00
  73   6     0.00  -0.00   0.00    -0.00   0.00  -0.00     0.03  -0.02   0.02
  74   1     0.00  -0.00  -0.00    -0.00  -0.00   0.00     0.01   0.00  -0.01
  75   1    -0.00   0.00  -0.00     0.00  -0.00   0.00    -0.01   0.00  -0.00
  76   1     0.00   0.00  -0.00     0.00   0.00  -0.00    -0.00  -0.02   0.00
  77   1    -0.02   0.05   0.02    -0.00   0.00   0.00     0.17  -0.40  -0.15
  78   1    -0.04   0.03  -0.03    -0.00   0.00  -0.00     0.33  -0.24   0.26
  79   1    -0.03  -0.03  -0.07    -0.00  -0.00  -0.00     0.21   0.24   0.57
  80   1    -0.02   0.03   0.04     0.00  -0.00  -0.00     0.02  -0.02  -0.04
  81   1    -0.06  -0.01   0.02     0.00   0.00  -0.00    -0.02  -0.00   0.01
  82   1    -0.04  -0.05  -0.03     0.00   0.00   0.00    -0.06  -0.06  -0.04
  83   1    -0.01   0.01   0.01     0.00  -0.00  -0.00     0.02  -0.03  -0.04
  84   1    -0.10  -0.01   0.03     0.00   0.00  -0.00     0.03   0.00  -0.01
  85   1     0.44   0.47  -0.05    -0.00  -0.00   0.00     0.06   0.06  -0.01
  86   1    -0.16   0.55  -0.13     0.00  -0.00   0.00    -0.02   0.07  -0.02
  87   1     0.09  -0.28   0.07    -0.00   0.00  -0.00     0.01  -0.03   0.01
  88   1    -0.01  -0.00  -0.00     0.00   0.00   0.00    -0.00  -0.00   0.00
  89   1     0.01  -0.01   0.00    -0.00   0.00  -0.00     0.00  -0.00   0.00
  90   1     0.00   0.00  -0.00     0.00   0.00  -0.00     0.00   0.00  -0.00
  91   1     0.01  -0.01   0.00    -0.00   0.00  -0.00     0.00  -0.00   0.00
  92   1    -0.01  -0.00   0.00     0.00   0.00  -0.00    -0.00  -0.00   0.00
  93   1    -0.00   0.00   0.00     0.00   0.00   0.00    -0.00   0.00   0.00
  94   1    -0.02  -0.06   0.01     0.00   0.00  -0.00    -0.00  -0.01   0.00
  95   1     0.03  -0.03  -0.02    -0.01   0.01   0.00     0.00  -0.00  -0.00
  96   1    -0.01  -0.03  -0.02     0.00   0.01   0.01    -0.00  -0.00  -0.00
  97   1     0.01   0.02   0.01    -0.00  -0.01  -0.00     0.00   0.00   0.00
  98   1     0.00  -0.00  -0.00     0.00   0.00   0.00     0.00   0.00   0.00
  99   1    -0.00   0.00   0.00     0.00  -0.00  -0.00    -0.00   0.00   0.00
 100   1     0.00   0.00   0.00    -0.00  -0.00  -0.00    -0.00  -0.00  -0.00
 101   1     0.00  -0.00   0.00     0.00   0.00  -0.00     0.00   0.00  -0.00
 102   1     0.00   0.00   0.00    -0.00  -0.00  -0.00    -0.00  -0.00  -0.00
 103   1    -0.00   0.00   0.00     0.00  -0.00  -0.00    -0.00   0.00   0.00
 104   1    -0.00   0.01   0.00     0.01  -0.02  -0.01     0.00  -0.00  -0.00
 105   1     0.00   0.00  -0.00    -0.05  -0.06   0.02    -0.00  -0.00   0.00
 106   1    -0.00   0.00  -0.00     0.04  -0.11   0.02     0.00  -0.00   0.00
 107   1     0.00  -0.00   0.00    -0.02   0.05  -0.01    -0.00   0.00  -0.00
 108   1    -0.00   0.00  -0.00    -0.01   0.00   0.00    -0.00   0.00  -0.00
 109   1    -0.00  -0.00   0.00     0.01   0.01  -0.00     0.00   0.00  -0.00
 110   1     0.00  -0.00   0.00     0.00  -0.00   0.00     0.00  -0.00   0.00
 111   1    -0.00  -0.00   0.00     0.01   0.01  -0.00     0.00   0.00  -0.00
 112   1     0.00   0.00  -0.00    -0.00  -0.00  -0.00    -0.00  -0.00  -0.00
 113   1    -0.00   0.00   0.00    -0.01   0.00  -0.00    -0.00   0.00  -0.00
 114   1     0.00   0.00  -0.00     0.05   0.19  -0.04     0.00   0.00  -0.00
 115   1     0.00  -0.00   0.00    -0.01   0.00  -0.01    -0.00   0.00  -0.00
 116   1     0.00   0.00   0.00    -0.02  -0.02  -0.01    -0.00  -0.00  -0.00
 117   1    -0.00  -0.00   0.00    -0.01  -0.04   0.04    -0.00  -0.00   0.00
 118   1     0.00  -0.00   0.00     0.00  -0.00   0.01    -0.00   0.00  -0.00
 119   1     0.00   0.00   0.00    -0.03  -0.02  -0.01    -0.00  -0.00  -0.00
 120   1    -0.00  -0.00   0.00    -0.01  -0.01   0.06    -0.00  -0.00   0.00
 121   1    -0.00   0.00   0.00    -0.05   0.01   0.02    -0.00   0.00   0.00
 122   1    -0.00   0.00  -0.00    -0.03   0.02  -0.03    -0.00   0.00  -0.00
 123   1    -0.00   0.00  -0.00    -0.00   0.00  -0.00    -0.00   0.00  -0.00
 124   1    -0.00   0.00   0.00    -0.00   0.00   0.00    -0.00   0.00   0.00
 125   1    -0.00  -0.00  -0.00    -0.00  -0.00  -0.00     0.00  -0.00  -0.00
 126   1    -0.00   0.00   0.00    -0.04   0.01   0.02    -0.00   0.00   0.00
 127   1     0.00  -0.00   0.00     0.50  -0.51   0.03     0.00  -0.00   0.00
 128   1    -0.00  -0.00   0.00    -0.14  -0.54   0.11    -0.00  -0.00   0.00
 129   1    -0.01  -0.01  -0.01     0.02   0.02   0.01    -0.00  -0.00  -0.00
 130   1     0.00  -0.01  -0.01    -0.01   0.02   0.01     0.00  -0.00  -0.00
 131   1    -0.07   0.07  -0.02     0.00  -0.00   0.00    -0.01   0.01  -0.00
 132   1     0.04   0.13  -0.02    -0.00  -0.00   0.00     0.01   0.01  -0.00
 133   1    -0.00   0.00  -0.00     0.00  -0.00   0.00    -0.09   0.06  -0.07
                    391                    392                    393
                        a                      a                      a 
 Frequencies --  3088.9438              3092.5930              3093.3971
 Red. masses --     1.8966                 1.9198                 1.9175
 Frc consts  --     0.0000                 0.0000                 0.0000
 IR Inten    --    99.2872                87.6327                68.9587
 Raman Activ --     0.0000                 0.0000                 0.0000
 Depolar     --     0.0000                 0.0000                 0.0000
 Atom AN      X      Y      Z        X      Y      Z        X      Y      Z
   1   6    -0.00   0.00  -0.00    -0.00  -0.00  -0.00    -0.00  -0.00  -0.00
   2   6    -0.00  -0.00  -0.00    -0.00  -0.00  -0.00    -0.00  -0.00  -0.00
   3   6     0.00  -0.00  -0.00     0.00  -0.01  -0.00     0.00  -0.00  -0.00
   4   6     0.00  -0.00   0.00     0.01  -0.01   0.01     0.00  -0.00   0.00
   5   6     0.00   0.00   0.00     0.01   0.01   0.01     0.00   0.00   0.00
   6   6    -0.00   0.00   0.00    -0.00   0.00  -0.00    -0.00   0.00   0.00
   7   7    -0.00  -0.00  -0.00     0.00   0.00   0.00     0.00   0.00   0.00
   8   6     0.00   0.00   0.00    -0.01  -0.01  -0.00    -0.00  -0.00  -0.00
   9   6    -0.00   0.00   0.00     0.03  -0.05  -0.07     0.00  -0.00  -0.00
  10   6    -0.00  -0.00   0.00     0.11   0.01  -0.04     0.00   0.00  -0.00
  11   6    -0.00  -0.00  -0.00     0.11   0.12   0.09     0.00   0.00   0.00
  12   6     0.00  -0.00  -0.00    -0.04   0.06   0.09    -0.00   0.00   0.00
  13   6     0.00   0.00  -0.00    -0.09  -0.01   0.03    -0.00  -0.00   0.00
  14   6     0.00  -0.00   0.00    -0.00   0.00   0.00     0.00  -0.00   0.00
  15   6     0.00   0.00  -0.00     0.01   0.01  -0.00     0.00   0.00  -0.00
  16   6    -0.00   0.00  -0.00    -0.00   0.01  -0.00    -0.00   0.00  -0.00
  17   6    -0.00   0.00  -0.00    -0.00   0.00  -0.00    -0.00   0.00  -0.00
  18   6    -0.00  -0.00   0.00    -0.00  -0.00   0.00    -0.00  -0.00   0.00
  19   6     0.00  -0.00   0.00     0.00  -0.01   0.00     0.00  -0.00   0.00
  20   6    -0.00  -0.00  -0.00    -0.00  -0.00  -0.00    -0.00  -0.00  -0.00
  21   6    -0.00  -0.00  -0.00     0.00  -0.00  -0.00    -0.00  -0.00  -0.00
  22   6    -0.00  -0.00   0.00    -0.00  -0.00   0.00    -0.00   0.00   0.00
  23   6     0.00  -0.00   0.00     0.00  -0.00   0.00     0.00  -0.00   0.00
  24   6    -0.00  -0.00   0.00    -0.00  -0.00   0.00    -0.00  -0.00   0.00
  25   6    -0.00  -0.00  -0.00    -0.00  -0.00   0.00    -0.00  -0.00  -0.00
  26   6     0.00  -0.00  -0.00    -0.00  -0.00  -0.00     0.00  -0.00  -0.00
  27   6     0.00  -0.00  -0.00     0.00  -0.00  -0.00     0.00  -0.00  -0.00
  28   6    -0.00  -0.00  -0.00    -0.00  -0.00  -0.00    -0.00  -0.00  -0.00
  29   6    -0.00  -0.00  -0.00    -0.00  -0.00  -0.00    -0.00  -0.00  -0.00
  30   6     0.00   0.00   0.00    -0.00   0.00   0.00     0.00   0.00   0.00
  31   6     0.00   0.00   0.00     0.00   0.00   0.00     0.00   0.00   0.00
  32   6    -0.00   0.00   0.00    -0.00  -0.00   0.00    -0.00   0.00  -0.00
  33   6    -0.00   0.00  -0.00    -0.00  -0.00   0.00    -0.00   0.00  -0.00
  34   6    -0.00  -0.00   0.00    -0.00   0.00  -0.00    -0.00  -0.00   0.00
  35   6    -0.00  -0.00  -0.00     0.00  -0.00  -0.00    -0.00  -0.00  -0.00
  36   6     0.00  -0.00  -0.00     0.00  -0.00  -0.00    -0.00   0.00   0.00
  37   6    -0.00  -0.00  -0.00     0.00   0.00   0.00    -0.00   0.00   0.00
  38   6    -0.00   0.00  -0.00    -0.00   0.00   0.00    -0.00   0.00  -0.00
  39   6    -0.00  -0.00   0.00    -0.00  -0.00   0.00    -0.00  -0.00   0.00
  40   6     0.00  -0.00   0.00     0.00  -0.00   0.00     0.00  -0.00   0.00
  41   6     0.00  -0.00   0.00     0.00  -0.00  -0.00    -0.00  -0.00   0.00
  42   6     0.00   0.00  -0.00     0.00   0.00  -0.00     0.00   0.00  -0.00
  43   6    -0.00   0.00  -0.00    -0.00   0.00  -0.00    -0.00   0.00  -0.00
  44   6    -0.00   0.00  -0.00    -0.00   0.00   0.00    -0.00   0.00   0.00
  45   6     0.00   0.00   0.00    -0.00   0.00   0.00     0.00   0.00   0.00
  46   6     0.00   0.00  -0.00    -0.00  -0.00  -0.00    -0.00   0.00  -0.00
  47   6    -0.00   0.00  -0.00     0.00   0.00  -0.00    -0.00   0.00   0.00
  48   6     0.00   0.01  -0.00     0.00   0.00  -0.00     0.00   0.01  -0.00
  49   6     0.00   0.00  -0.00     0.00   0.00  -0.00    -0.00   0.00  -0.00
  50   7     0.00  -0.00   0.00    -0.00  -0.00   0.00     0.00   0.00  -0.00
  51   6     0.00   0.00  -0.00     0.00   0.00  -0.00    -0.00  -0.01   0.01
  52   6     0.01  -0.00   0.01    -0.00   0.00  -0.00     0.05  -0.01   0.08
  53   6    -0.00  -0.00  -0.00    -0.00  -0.00  -0.00     0.09   0.07   0.02
  54   6    -0.01  -0.02   0.02    -0.00  -0.00   0.00     0.05   0.13  -0.13
  55   6     0.01  -0.00   0.01     0.00  -0.00   0.00    -0.06   0.01  -0.10
  56   6     0.01   0.01   0.00     0.00   0.00   0.00    -0.08  -0.07  -0.02
  57   6    -0.01   0.00  -0.00    -0.00   0.00  -0.00    -0.00   0.00  -0.00
  58   6     0.03   0.04  -0.18     0.00   0.00  -0.00     0.00   0.00  -0.02
  59   6     0.13  -0.04  -0.07     0.00  -0.00  -0.00     0.01  -0.00  -0.01
  60   6     0.10  -0.06   0.07     0.00  -0.00   0.00     0.01  -0.00   0.01
  61   6    -0.00  -0.00   0.01    -0.00  -0.00   0.00    -0.00  -0.00   0.00
  62   6     0.00  -0.00   0.00    -0.00   0.00   0.00    -0.00  -0.00   0.00
  63   6    -0.03   0.01   0.02    -0.00   0.00   0.00    -0.01   0.00   0.00
  64   6     0.01  -0.01   0.00     0.00  -0.00   0.00     0.01  -0.01   0.00
  65   6    -0.00  -0.02   0.00    -0.00  -0.00   0.00    -0.00  -0.01   0.00
  66   6    -0.00  -0.00   0.00    -0.00  -0.00   0.00    -0.00  -0.00   0.00
  67   6     0.00   0.00   0.00     0.00   0.00   0.00     0.00   0.00   0.00
  68   6    -0.00   0.00   0.00    -0.00   0.00   0.00    -0.00   0.00   0.00
  69   6    -0.00   0.00   0.00    -0.00   0.00   0.00    -0.00   0.00   0.00
  70   6    -0.00   0.00  -0.00    -0.00   0.00  -0.00    -0.00   0.00  -0.00
  71   6     0.00   0.00  -0.00     0.00   0.00  -0.00     0.00   0.00  -0.00
  72   6     0.00   0.00   0.00    -0.00   0.00  -0.00     0.00   0.00   0.00
  73   6    -0.00   0.00  -0.00    -0.00   0.00  -0.00    -0.00   0.00  -0.00
  74   1    -0.00  -0.00   0.00    -0.00  -0.00   0.00    -0.00   0.00  -0.00
  75   1     0.00  -0.00   0.00     0.00  -0.00   0.00     0.00  -0.00   0.00
  76   1     0.00   0.00  -0.00     0.00   0.00  -0.00     0.00   0.00  -0.00
  77   1    -0.00   0.00   0.00    -0.01   0.03   0.01    -0.00   0.00   0.00
  78   1    -0.00   0.00  -0.00    -0.03   0.02  -0.02    -0.00   0.00  -0.00
  79   1    -0.00  -0.00  -0.00    -0.02  -0.02  -0.05    -0.00  -0.00  -0.00
  80   1     0.00  -0.00  -0.00    -0.11   0.17   0.24    -0.00   0.00   0.00
  81   1     0.00   0.00  -0.00    -0.35  -0.04   0.12    -0.00  -0.00   0.00
  82   1     0.00   0.00   0.00    -0.38  -0.42  -0.29    -0.00  -0.00  -0.00
  83   1    -0.00   0.00   0.00     0.14  -0.21  -0.30     0.00  -0.00  -0.00
  84   1    -0.00  -0.00   0.00     0.31   0.04  -0.10     0.00   0.00  -0.00
  85   1    -0.00  -0.00   0.00    -0.03  -0.03   0.00    -0.00  -0.00   0.00
  86   1     0.00  -0.00   0.00     0.01  -0.03   0.01     0.00  -0.00   0.00
  87   1    -0.00   0.00  -0.00    -0.01   0.03  -0.01    -0.00   0.00  -0.00
  88   1     0.00   0.00  -0.00     0.00   0.00  -0.00     0.00   0.00  -0.00
  89   1    -0.00   0.00  -0.00    -0.00   0.00  -0.00     0.00  -0.00   0.00
  90   1    -0.00  -0.00   0.00    -0.00  -0.00   0.00    -0.00  -0.00   0.00
  91   1    -0.00   0.00  -0.00    -0.00   0.00  -0.00     0.00  -0.00   0.00
  92   1     0.00   0.00  -0.00     0.00   0.00  -0.00     0.00   0.00  -0.00
  93   1    -0.00  -0.00  -0.00    -0.00  -0.00  -0.00    -0.00  -0.00  -0.00
  94   1     0.00   0.00  -0.00     0.00   0.00  -0.00     0.00   0.00  -0.00
  95   1    -0.00   0.00   0.00    -0.00   0.00   0.00    -0.00   0.00   0.00
  96   1     0.00   0.00   0.00     0.00   0.00   0.00     0.00   0.00   0.00
  97   1    -0.00  -0.00  -0.00    -0.00  -0.00  -0.00    -0.00  -0.00  -0.00
  98   1    -0.00   0.00   0.00    -0.00  -0.00  -0.00    -0.00   0.00   0.00
  99   1     0.00  -0.00  -0.00     0.00  -0.00  -0.00     0.00  -0.00  -0.00
 100   1     0.00   0.00   0.00     0.00   0.00   0.00     0.00   0.00   0.00
 101   1    -0.00   0.00  -0.00    -0.00  -0.00   0.00    -0.00   0.00  -0.00
 102   1     0.00   0.00   0.00     0.00   0.00   0.00     0.00   0.00   0.00
 103   1     0.00  -0.00  -0.00     0.00  -0.00  -0.00     0.00  -0.00  -0.00
 104   1    -0.00   0.00   0.00    -0.00   0.00   0.00     0.00  -0.00  -0.00
 105   1     0.01   0.01  -0.00     0.00   0.00  -0.00     0.00   0.00  -0.00
 106   1    -0.00   0.01  -0.00    -0.00   0.00  -0.00    -0.00   0.01  -0.00
 107   1     0.00  -0.01   0.00     0.00  -0.00   0.00     0.00  -0.01   0.00
 108   1     0.00  -0.00   0.00     0.00  -0.00   0.00     0.00  -0.00   0.00
 109   1    -0.00  -0.00   0.00    -0.00  -0.00   0.00    -0.00  -0.00   0.00
 110   1    -0.00   0.00  -0.00    -0.00   0.00  -0.00    -0.00   0.00  -0.00
 111   1    -0.00  -0.00   0.00    -0.00  -0.00   0.00    -0.00  -0.00  -0.00
 112   1     0.00   0.00   0.00    -0.00   0.00   0.00    -0.00   0.00   0.00
 113   1     0.00  -0.00   0.00     0.00  -0.00   0.00     0.00  -0.00   0.00
 114   1    -0.01  -0.03   0.01    -0.00  -0.00   0.00    -0.01  -0.03   0.01
 115   1    -0.02   0.00  -0.04     0.00  -0.00   0.00    -0.16   0.02  -0.25
 116   1     0.01   0.01   0.00     0.00   0.00   0.00    -0.28  -0.22  -0.06
 117   1     0.02   0.06  -0.06     0.00   0.00  -0.00    -0.16  -0.43   0.43
 118   1    -0.03   0.00  -0.04    -0.00   0.00  -0.00     0.20  -0.02   0.33
 119   1    -0.03  -0.03  -0.01    -0.00  -0.00  -0.00     0.29   0.23   0.06
 120   1    -0.09  -0.13   0.62    -0.00  -0.00   0.00    -0.01  -0.01   0.05
 121   1    -0.44   0.13   0.23    -0.00   0.00   0.00    -0.04   0.01   0.02
 122   1    -0.33   0.22  -0.24    -0.00   0.00  -0.00    -0.03   0.02  -0.02
 123   1    -0.00   0.02  -0.00     0.00  -0.00   0.00    -0.00   0.00  -0.00
 124   1     0.01  -0.00  -0.00     0.00  -0.00  -0.00     0.00  -0.00  -0.00
 125   1    -0.01  -0.01  -0.01    -0.00  -0.00  -0.00    -0.00  -0.00  -0.00
 126   1     0.10  -0.03  -0.05     0.00  -0.00  -0.00     0.02  -0.01  -0.01
 127   1    -0.04   0.04  -0.00    -0.00   0.00  -0.00    -0.03   0.03  -0.00
 128   1     0.01   0.05  -0.01     0.00   0.00  -0.00     0.01   0.03  -0.01
 129   1    -0.00  -0.00  -0.00    -0.00  -0.00  -0.00    -0.00  -0.00  -0.00
 130   1     0.00  -0.00  -0.00     0.00  -0.00  -0.00     0.00  -0.00  -0.00
 131   1     0.00  -0.00   0.00     0.00  -0.01   0.00     0.00  -0.00   0.00
 132   1    -0.00  -0.00   0.00    -0.00  -0.01   0.00    -0.00  -0.00   0.00
 133   1     0.00  -0.00   0.00     0.02  -0.01   0.01     0.00  -0.00   0.00
