$hessian                                                                        
        0.5844040627   0.1449599988   0.1453889436  -0.2077183736   0.0572444507
       -0.1478472293  -0.0544789991  -0.0236809533  -0.0121128812  -0.0035783409
        0.0171927586  -0.0139178901  -0.0017526070  -0.0005040195   0.0000495581
        0.0004480093  -0.0002207926   0.0003339695  -0.0000832224  -0.0001231874
       -0.0000812203  -0.0000066251  -0.0000325213  -0.0000153463  -0.0000010177
        0.0000431888   0.0000176007   0.0000234711  -0.0000218976   0.0000012440
        0.0000102333   0.0000115068   0.0000034732   0.0000058779   0.0000215320
        0.0000053944  -0.0000514944   0.0000349518  -0.0000006027   0.0000388303
       -0.0000163665   0.0000034083   0.0000016044   0.0000177856   0.0000089910
       -0.0000058103  -0.0000002622  -0.0000046969   0.0000059403  -0.0000053049
        0.0000020794  -0.0000078024   0.0000061919   0.0000036061  -0.0000082883
        0.0000033956   0.0000050880  -0.0000067912  -0.0000046674  -0.0000130850
        0.0000103947  -0.0000078709  -0.0000016392   0.0000036399   0.0000098718
        0.0000157965  -0.0000100547   0.0000030564  -0.0000043785  -0.0000091661
        0.0000011952  -0.0000034386   0.0000084544  -0.0000039527   0.0000034229
       -0.0000057087   0.0000041175   0.0000035308  -0.0000146427  -0.0000102949
       -0.0000082281   0.0000113159  -0.0000288943  -0.0000067776  -0.0000130903
        0.0000277405  -0.0000006632  -0.0000010574  -0.0000260626  -0.0000006578
        0.0000055762   0.0000263628  -0.0000036468  -0.0000437075  -0.0000335424
       -0.0000007222   0.0000360443   0.0000139511   0.0000018586  -0.0000155242
        0.0000100549  -0.0000107658  -0.0000046357  -0.0000038672   0.0000041840
        0.0000075148   0.0000051969   0.0000013406  -0.0000091357   0.0000001348
       -0.0000048367  -0.0000099111  -0.0000028709  -0.0000042562   0.0000049366
       -0.0000074422   0.0000118707   0.0000072700   0.0000063160   0.0000006477
       -0.0000046312   0.0000044269  -0.0000123474  -0.0000080893  -0.0000043007
        0.0000028555  -0.0000062755  -0.0000066888   0.0000023877   0.0000056316
        0.0000044407  -0.0000000312  -0.0000059280  -0.0000000779  -0.0000056142
        0.0000017321  -0.0000179914   0.0000088496   0.0000011110  -0.0000233208
        0.0000026930   0.0000134231   0.0000053486   0.0000005465  -0.0000012536
       -0.0000005741  -0.0000060945   0.0000835492  -0.0000774321   0.0000158929
       -0.0001662039  -0.0000131037   0.0000055597   0.0001663942   0.0000719092
       -0.0000261361  -0.0001871356  -0.0000067105   0.0000093565   0.0001319654
        0.0005903194  -0.0001500128   0.0000171997  -0.0000091734   0.0000440069
        0.0000651420  -0.0000790628   0.0000268930  -0.0000322890   0.0000629187
       -0.0000204189  -0.0000182295   0.0000260290  -0.0000191684   0.0001045728
       -0.0000671453   0.0000813528   0.0000533417   0.0000314991   0.0000435310
        0.0070837383  -0.0199531984   0.0223602388  -0.0927799907  -0.0649698361
        0.0331229540  -0.2303884207  -0.1160422303  -0.0100130646   0.0024366240
       -0.0003231367   0.0013202613  -0.0028650006  -0.0047892053  -0.0022960549
        0.0000781872  -0.0001374998  -0.0000238183   0.0000035883  -0.0000008047
       -0.0000043351  -0.0000050212  -0.0000017629   0.0000016565  -0.0000012784
       -0.0000039693   0.0000012442  -0.0000045424  -0.0000006040  -0.0000002451
       -0.0000013690  -0.0000034475  -0.0000022579   0.0000007812  -0.0000004338
        0.0000007258  -0.0000006116  -0.0000013699   0.0000008161  -0.0000003435
        0.0000010048   0.0000028796  -0.0000013411   0.0000019193  -0.0000002604
       -0.0000023238  -0.0000034184  -0.0000008557  -0.0000069147   0.0000033181
       -0.0000012738  -0.0000065161  -0.0000036028  -0.0000018864  -0.0000031676
        0.0000038501  -0.0000015003  -0.0000013567  -0.0000009675  -0.0000004017
        0.0000000098  -0.0000001061   0.0000021435  -0.0000003701   0.0000018249
       -0.0000004908   0.0000007749   0.0000010726  -0.0000014160  -0.0000011400
        0.0000019946  -0.0000040051  -0.0000038085  -0.0000001710  -0.0000017699
       -0.0000014647   0.0000031904   0.0000002175  -0.0000048837   0.0000002971
        0.0000007941   0.0000011802  -0.0000033936  -0.0000022754   0.0000226902
        0.0000215990   0.0000146877   0.0000091553   0.0000168795  -0.0000595588
        0.0000047963   0.0000054770  -0.0000029010   0.0000075363   0.0000070938
       -0.0000135591   0.0000258019  -0.0000216424  -0.0000394091  -0.0001303490
       -0.0000710161  -0.0000594087  -0.0028316370  -0.0051749795  -0.0018916001
        0.0019557902   0.0160369766  -0.0142334179
        0.1449599988   0.4507189795  -0.2228383265   0.0040149991  -0.0923681380
        0.0429448892   0.0167783987   0.0336169079  -0.0199881003   0.0168978515
       -0.0234019915   0.0260966200  -0.0009081360  -0.0006866745   0.0000527963
        0.0006305352  -0.0000682826   0.0000429452  -0.0001329194  -0.0001006812
        0.0000659461   0.0000972918   0.0000129423   0.0000021125  -0.0000533327
       -0.0000292217  -0.0000185241   0.0000288499  -0.0000177599   0.0000025281
       -0.0000033698   0.0000054165   0.0000012473   0.0000058670   0.0000149958
        0.0000016705  -0.0000263806   0.0000097740  -0.0000003238   0.0000220447
       -0.0000042260   0.0000053649   0.0000019642   0.0000063535   0.0000029135
       -0.0000020981   0.0000006300  -0.0000023501   0.0000014404  -0.0000001960
        0.0000015746  -0.0000028832   0.0000022792   0.0000004877  -0.0000018230
        0.0000019684   0.0000038773  -0.0000049232  -0.0000009773  -0.0000065313
        0.0000054452  -0.0000011762   0.0000011072   0.0000023874   0.0000019284
        0.0000049164  -0.0000042910   0.0000006550  -0.0000034514  -0.0000045704
        0.0000020836   0.0000001512   0.0000039206  -0.0000020540   0.0000010930
       -0.0000023077   0.0000025037   0.0000022340  -0.0000105213  -0.0000056083
       -0.0000074489   0.0000111663  -0.0000091943  -0.0000036865  -0.0000108113
        0.0000056898   0.0000003473   0.0000015952  -0.0000064750  -0.0000003830
       -0.0000023099   0.0000104611  -0.0000021058  -0.0000234880  -0.0000142235
        0.0000005137   0.0000168563   0.0000084694  -0.0000002625  -0.0000064253
        0.0000041161  -0.0000046721  -0.0000030164  -0.0000025335   0.0000027614
        0.0000042814   0.0000029522   0.0000011968  -0.0000054836   0.0000008997
       -0.0000032713  -0.0000050047  -0.0000018144  -0.0000010281   0.0000026969
       -0.0000038396   0.0000062247   0.0000032615   0.0000033709   0.0000007139
       -0.0000017552   0.0000022970  -0.0000062140  -0.0000056871  -0.0000020984
        0.0000014224  -0.0000027720  -0.0000037867   0.0000027429   0.0000040889
        0.0000037857  -0.0000005901  -0.0000037264   0.0000003434  -0.0000031314
        0.0000019560  -0.0000100271   0.0000060793   0.0000037669  -0.0000095735
        0.0000005914   0.0000099052  -0.0000009998  -0.0000014748   0.0000010632
        0.0000067910   0.0000090631   0.0000170519   0.0000000079   0.0000054584
       -0.0000353647   0.0000246083  -0.0000053173   0.0000451785   0.0000696972
       -0.0000253212   0.0000112856   0.0000061681  -0.0000455871   0.0000096055
        0.0001107337  -0.0001709793  -0.0000690118  -0.0001016603   0.0000948434
       -0.0000428217   0.0001362457  -0.0000055370   0.0000918903  -0.0000051553
       -0.0000686931  -0.0000198726  -0.0000529559   0.0001042607  -0.0000269574
        0.0000593296  -0.0000628924   0.0000920354  -0.0001805782  -0.0000025953
       -0.0603555195  -0.0334154012  -0.0038635225  -0.0118035386  -0.2154590448
        0.1488968844  -0.1160405045  -0.1088299358  -0.0003063279   0.0158631281
       -0.0073806286   0.0170517984  -0.0052113293   0.0020840232   0.0027209149
       -0.0000772223   0.0000589240  -0.0000713891   0.0000005314   0.0000028172
       -0.0000020919  -0.0000025553   0.0000001487   0.0000004814   0.0000009517
       -0.0000033970   0.0000007139  -0.0000010337  -0.0000001346   0.0000004483
       -0.0000001322  -0.0000012212  -0.0000006054   0.0000008660  -0.0000001763
        0.0000002634  -0.0000002966  -0.0000004129   0.0000007515  -0.0000000925
        0.0000006173   0.0000014587  -0.0000008040   0.0000009363   0.0000002772
       -0.0000008876  -0.0000024363  -0.0000001209  -0.0000030222   0.0000019129
       -0.0000009799  -0.0000039232  -0.0000018648  -0.0000011992  -0.0000016941
        0.0000016769  -0.0000004769  -0.0000010392  -0.0000006832  -0.0000002556
        0.0000001071  -0.0000001168   0.0000015655  -0.0000002375   0.0000013130
        0.0000002163   0.0000006119   0.0000007483  -0.0000002693  -0.0000001605
        0.0000013527  -0.0000021116  -0.0000016924   0.0000001310  -0.0000008805
       -0.0000004022   0.0000010767   0.0000002601  -0.0000020974   0.0000004048
        0.0000007704   0.0000016828  -0.0000009112  -0.0000005100  -0.0000110301
        0.0000203261   0.0000041685   0.0000164811   0.0000287584  -0.0000579588
        0.0000007454  -0.0000072639  -0.0000152087   0.0000123988   0.0000140591
       -0.0000050581   0.0000213499  -0.0000075745  -0.0000269023  -0.0000030591
        0.0000032298  -0.0000506078  -0.0047823920   0.0019650882   0.0027765689
        0.0000291966  -0.0068378238   0.0067570383
        0.1453889436  -0.2228383265   0.4090558901  -0.0981567628   0.0751811463
       -0.1754574814  -0.0491062135  -0.0444847145   0.0126447456  -0.0142501606
        0.0263833712  -0.0388786415  -0.0000936681   0.0001832642  -0.0003975221
       -0.0003679052  -0.0000551004   0.0002440188   0.0001242302   0.0000100857
       -0.0000964780  -0.0001094579  -0.0000194310  -0.0000007752   0.0000622498
        0.0000576137   0.0000237868  -0.0000143050   0.0000067403  -0.0000019439
        0.0000070844  -0.0000002218   0.0000018090  -0.0000033751  -0.0000022432
        0.0000013728  -0.0000035418   0.0000088293   0.0000001229   0.0000020324
        0.0000001881   0.0000029519   0.0000008069  -0.0000013369  -0.0000021543
       -0.0000011322  -0.0000002248  -0.0000006940   0.0000003852  -0.0000011798
       -0.0000004983  -0.0000015425   0.0000013290   0.0000012342  -0.0000019707
       -0.0000001787  -0.0000007538  -0.0000032941  -0.0000011595  -0.0000031002
        0.0000029228  -0.0000016628   0.0000012294   0.0000000998   0.0000018208
        0.0000025040  -0.0000009658   0.0000005797   0.0000003851  -0.0000011377
       -0.0000001442  -0.0000009004  -0.0000000777  -0.0000008487  -0.0000006465
        0.0000004621   0.0000002778   0.0000012803  -0.0000024278  -0.0000000547
       -0.0000007724  -0.0000034475  -0.0000052998   0.0000002970   0.0000019221
        0.0000132485  -0.0000006014  -0.0000012091  -0.0000126393  -0.0000000991
        0.0000038785   0.0000065409   0.0000001618  -0.0000025162  -0.0000081932
       -0.0000016732   0.0000055578   0.0000010773   0.0000024666  -0.0000034174
        0.0000018582  -0.0000026896   0.0000003276   0.0000008293  -0.0000001437
        0.0000007286   0.0000009807  -0.0000004236  -0.0000011495  -0.0000012227
        0.0000006035  -0.0000015528   0.0000001192  -0.0000014716   0.0000004480
       -0.0000004750  -0.0000002633   0.0000011091   0.0000013086   0.0000006443
       -0.0000012418   0.0000003817  -0.0000027441   0.0000000470  -0.0000001812
       -0.0000000009  -0.0000001992  -0.0000001443  -0.0000003521  -0.0000011382
       -0.0000010632   0.0000006441  -0.0000010075  -0.0000001225  -0.0000007427
       -0.0000009999  -0.0000020660  -0.0000002717  -0.0000035661  -0.0000038457
        0.0000012462  -0.0000016111   0.0000040216   0.0000017878  -0.0000035189
       -0.0000082161  -0.0000105194   0.0000447123  -0.0000552532   0.0000027595
       -0.0000843461  -0.0000294767   0.0000080649   0.0000808742  -0.0000454140
        0.0000006101  -0.0001590883  -0.0000247985   0.0000657754   0.0000425487
        0.0002436213   0.0000861586   0.0001007806   0.0002163344  -0.0000137518
        0.0001078722  -0.0001992577   0.0000701788  -0.0001206950   0.0000398929
        0.0000665971   0.0000105547   0.0001034377  -0.0001463826   0.0001384791
       -0.0000971270   0.0000921767  -0.0000120452   0.0003516493   0.0000824956
        0.0598524641   0.0199316594   0.0183698786  -0.0163454423   0.1160387840
       -0.1663964292  -0.0100354681  -0.0003134008  -0.0399251779  -0.0136533517
        0.0073652806  -0.0141001224  -0.0017922974   0.0027348278   0.0042646028
        0.0001033764  -0.0001660874   0.0000301953   0.0000027262  -0.0000040029
       -0.0000019747  -0.0000016086  -0.0000000067   0.0000000849  -0.0000008376
       -0.0000008658  -0.0000002578  -0.0000013397  -0.0000002123   0.0000009183
       -0.0000010810  -0.0000004152   0.0000000704  -0.0000003394  -0.0000002039
        0.0000004126  -0.0000003934  -0.0000003117  -0.0000001722   0.0000000568
       -0.0000000416   0.0000003772   0.0000001277   0.0000005873   0.0000001158
       -0.0000008104   0.0000002286  -0.0000003506  -0.0000013195   0.0000001688
        0.0000000510  -0.0000005694  -0.0000005261  -0.0000001452  -0.0000007366
        0.0000002078  -0.0000006202   0.0000001975  -0.0000005000   0.0000003670
        0.0000004690  -0.0000001183   0.0000001651   0.0000007384   0.0000002068
       -0.0000007121  -0.0000005590  -0.0000005175  -0.0000007256  -0.0000006131
       -0.0000005543  -0.0000002217  -0.0000002271  -0.0000005631   0.0000001288
        0.0000002120   0.0000010115  -0.0000002918  -0.0000009681   0.0000000309
       -0.0000003957  -0.0000005417  -0.0000007787  -0.0000011095   0.0000207336
       -0.0000079137   0.0000092182  -0.0000181308  -0.0000159603   0.0000315544
       -0.0000019461   0.0000097626   0.0000207592  -0.0000125201  -0.0000041679
        0.0000009709  -0.0000246967   0.0000029892   0.0000334374  -0.0000452198
       -0.0000353638   0.0000589397  -0.0023056089   0.0026020767   0.0043202984
        0.0006571553   0.0169457660  -0.0141533454
       -0.2077183736   0.0040149991  -0.0981567628   0.5677357510   0.1367057396
        0.1434304282  -0.2632212766  -0.0918745946  -0.0434550405   0.0056551987
       -0.0593546663   0.0572093952   0.0045153814  -0.0012440879  -0.0012882422
       -0.0002019093   0.0006601018  -0.0006242216   0.0003418116   0.0001053078
        0.0002687093   0.0000625847   0.0000973368   0.0000897094  -0.0000450510
       -0.0000304885  -0.0000571511   0.0000240490  -0.0000057433  -0.0000025002
       -0.0000108536   0.0000096466  -0.0000016704   0.0000177131  -0.0000080647
        0.0000045599  -0.0000128780   0.0000070886  -0.0000013600   0.0000103012
       -0.0000144238  -0.0000041476  -0.0000009310   0.0000047646   0.0000009424
       -0.0000005454   0.0000011230   0.0000004950   0.0000008800  -0.0000020145
       -0.0000030531  -0.0000010933  -0.0000007260  -0.0000024910   0.0000008468
        0.0000019663   0.0000004234  -0.0000016718  -0.0000044546  -0.0000046478
        0.0000057029  -0.0000048026   0.0000013055  -0.0000001916   0.0000044308
        0.0000046733  -0.0000001366  -0.0000014386  -0.0000008535   0.0000004578
        0.0000009641   0.0000014266  -0.0000005203  -0.0000001332  -0.0000010964
        0.0000007890  -0.0000009768  -0.0000003765  -0.0000014405  -0.0000025212
        0.0000006125  -0.0000106459  -0.0000033520  -0.0000026774  -0.0000057101
       -0.0000220938   0.0000046878  -0.0000296338   0.0000210802   0.0000054407
        0.0000013191   0.0000104240  -0.0000091813  -0.0000201440  -0.0000056377
       -0.0000009229   0.0000096088   0.0000139412  -0.0000001158  -0.0000007712
        0.0000033726   0.0000039911   0.0000010846   0.0000018656  -0.0000019326
        0.0000009516  -0.0000002302  -0.0000005785  -0.0000005451  -0.0000038853
        0.0000038109  -0.0000011454   0.0000015474  -0.0000040533  -0.0000007193
       -0.0000050819   0.0000051150   0.0000055466   0.0000043647  -0.0000016618
       -0.0000028968   0.0000029635  -0.0000035529   0.0000023146  -0.0000024874
        0.0000025886  -0.0000038900   0.0000006945  -0.0000040415   0.0000008474
        0.0000005622   0.0000004126   0.0000028002  -0.0000000942   0.0000022046
       -0.0000010663  -0.0000028707  -0.0000026622   0.0000260500   0.0000056773
        0.0000044908  -0.0000132692  -0.0000367512  -0.0000026965   0.0000719864
        0.0000466209   0.0000237312  -0.0002063076   0.0000814708  -0.0000141406
        0.0003027577   0.0000197811  -0.0000403697  -0.0002797949  -0.0000426837
        0.0000234521   0.0004449769  -0.0001266996   0.0000502394  -0.0007803592
       -0.0012279346   0.0004964667  -0.0002258932  -0.0000804287  -0.0000721428
       -0.0001323284   0.0002075209  -0.0001059026   0.0001417066  -0.0000621859
       -0.0000693005  -0.0000247081  -0.0000952934   0.0001266885  -0.0001737838
        0.0001788497  -0.0001714078   0.0000725692  -0.0004039893   0.0001036239
       -0.0543421830  -0.0081149923  -0.0219843019   0.0368902647   0.0595267833
       -0.0332704451  -0.0215579986   0.0045956074  -0.0175863847  -0.0475255278
       -0.0301984447   0.0198710924  -0.0213864759  -0.0107000158  -0.0029717943
       -0.0002137549   0.0001099739  -0.0001710615  -0.0000057051  -0.0000002113
       -0.0000040011   0.0000000832  -0.0000015297   0.0000005245  -0.0000000098
        0.0000006706  -0.0000005091  -0.0000000959   0.0000001809  -0.0000000869
        0.0000004562  -0.0000002154  -0.0000013188   0.0000009769  -0.0000005100
       -0.0000002549   0.0000014706  -0.0000006188  -0.0000009113   0.0000013157
       -0.0000004383   0.0000001882   0.0000008562  -0.0000004510  -0.0000000780
        0.0000022756   0.0000007574  -0.0000009882   0.0000055008  -0.0000000076
        0.0000013469   0.0000044435  -0.0000000929   0.0000009078   0.0000031163
       -0.0000009606  -0.0000005315   0.0000004769  -0.0000003724   0.0000003499
        0.0000008397  -0.0000004115   0.0000000466   0.0000010267  -0.0000003156
       -0.0000005400   0.0000002006  -0.0000006476   0.0000005649  -0.0000002108
        0.0000001923   0.0000003564   0.0000004867  -0.0000000902  -0.0000002953
        0.0000017151  -0.0000009318   0.0000007146   0.0000011648   0.0000031189
        0.0000007288  -0.0000009621   0.0000055574  -0.0000002641  -0.0000746680
       -0.0000065693  -0.0000690993   0.0000218307   0.0000344436  -0.0000310050
        0.0000064959  -0.0000008534  -0.0000138440   0.0000014565   0.0000176659
       -0.0000038000   0.0000387816  -0.0000035577   0.0000004979   0.0000054831
       -0.0000486258  -0.0001349345  -0.0004760573   0.0000168959  -0.0002544040
        0.0022674291  -0.0027743537  -0.0011351349
        0.0572444507  -0.0923681380   0.0751811463   0.1367057396   0.4594306271
       -0.2345310131  -0.1452101699  -0.1407488157   0.0000954040  -0.0199079953
       -0.0335073763   0.0197524100  -0.0014073256   0.0000387659   0.0056670921
       -0.0007041722  -0.0002810837  -0.0003054670   0.0000656827   0.0001670140
       -0.0003898521  -0.0000645418   0.0000306929  -0.0000292023  -0.0000102922
        0.0000621182   0.0000750802   0.0000366928  -0.0000176596   0.0000044069
       -0.0000049075   0.0000035853   0.0000032192   0.0000224616   0.0000193076
        0.0000091949  -0.0000516909   0.0000455273  -0.0000023071   0.0000525285
       -0.0000278133   0.0000049537   0.0000024937   0.0000229644   0.0000114318
       -0.0000072152   0.0000026849  -0.0000029809   0.0000057248  -0.0000062448
       -0.0000002253  -0.0000079955   0.0000025134  -0.0000017353  -0.0000036288
        0.0000051960   0.0000092635  -0.0000083301  -0.0000067403  -0.0000172843
        0.0000131130  -0.0000086564   0.0000037611   0.0000050594   0.0000098383
        0.0000149223  -0.0000085417  -0.0000020162  -0.0000088761  -0.0000068724
        0.0000043746   0.0000024389   0.0000082349  -0.0000051529   0.0000011959
       -0.0000045444   0.0000030836   0.0000037256  -0.0000222302  -0.0000140635
       -0.0000155783   0.0000086697  -0.0000351501  -0.0000100022  -0.0000169069
        0.0000116854  -0.0000012200  -0.0000199331  -0.0000158338   0.0000032478
        0.0000105588   0.0000346650  -0.0000065943  -0.0000521293  -0.0000365643
       -0.0000020127   0.0000478547   0.0000252907   0.0000052940  -0.0000200611
        0.0000137013  -0.0000136638  -0.0000050740  -0.0000014038   0.0000010828
        0.0000089337   0.0000052381   0.0000012168  -0.0000069865  -0.0000038749
        0.0000011402  -0.0000090663   0.0000019109  -0.0000104721   0.0000054338
       -0.0000078702   0.0000117625   0.0000133221   0.0000061206   0.0000061771
       -0.0000088888   0.0000058135  -0.0000165543  -0.0000037804  -0.0000053189
        0.0000055996  -0.0000084980  -0.0000039295  -0.0000029553   0.0000057717
        0.0000040242   0.0000009948  -0.0000045375  -0.0000003545  -0.0000041820
        0.0000015972  -0.0000213793   0.0000081666   0.0000164581  -0.0000164827
        0.0000091739   0.0000066674  -0.0000146121   0.0000008067   0.0000375826
        0.0000285871  -0.0000219650  -0.0000412871  -0.0000456455   0.0000103149
        0.0000352020   0.0000180645   0.0000534984   0.0000109508   0.0000420424
        0.0000059674  -0.0000346570   0.0000182677  -0.0003347210  -0.0001432843
       -0.0003360205  -0.0000364204  -0.0000399503  -0.0000001278   0.0000831727
       -0.0000105815   0.0000057861  -0.0000143947   0.0000593021   0.0000131244
       -0.0000719234  -0.0000606425  -0.0000057930   0.0000436792  -0.0000170275
        0.0000486777  -0.0000141529   0.0001100500  -0.0001672802   0.0000990044
       -0.0071974286  -0.0014223355  -0.0079345728   0.0197688968  -0.0067362522
        0.0191527642  -0.0116447607   0.0035029945  -0.0094476745  -0.0301777839
       -0.1915024086   0.1265665174   0.0051032215   0.0037571251   0.0005080864
       -0.0001833808   0.0000032227   0.0002029723  -0.0000113383   0.0000072781
       -0.0000029477  -0.0000039270  -0.0000015682   0.0000008917  -0.0000002342
       -0.0000033132   0.0000022604  -0.0000033866  -0.0000001745   0.0000006045
       -0.0000004688  -0.0000027923  -0.0000024074   0.0000018030  -0.0000010893
       -0.0000002019   0.0000016128  -0.0000011926   0.0000003313   0.0000018521
        0.0000007555   0.0000025076  -0.0000003352   0.0000025487   0.0000002190
       -0.0000017397  -0.0000020538  -0.0000025385  -0.0000004484   0.0000019846
       -0.0000013697  -0.0000007422  -0.0000029236  -0.0000010748  -0.0000012174
        0.0000017703  -0.0000022121  -0.0000009199  -0.0000019351   0.0000002312
        0.0000017927  -0.0000002963   0.0000019136   0.0000017421   0.0000014174
       -0.0000007982   0.0000016666   0.0000007384  -0.0000014149  -0.0000003548
        0.0000022303  -0.0000037443  -0.0000025642  -0.0000002671  -0.0000020499
        0.0000004284   0.0000012119   0.0000015971  -0.0000010353   0.0000044253
        0.0000004619  -0.0000005030  -0.0000030153  -0.0000036025   0.0000152694
        0.0000328966   0.0000375511   0.0000160382   0.0000305993  -0.0000493462
       -0.0000014614   0.0000165528  -0.0000058527  -0.0000035453   0.0000182002
       -0.0000074399   0.0000081642  -0.0000042640  -0.0000184601  -0.0000429702
       -0.0000715449  -0.0001069315   0.0000480746   0.0004235872  -0.0006132998
       -0.0022968073  -0.0004720038   0.0064048397
       -0.1478472293   0.0429448892  -0.1754574814   0.1434304282  -0.2345310131
        0.4185278989   0.0043712810   0.0322104353  -0.0736231514   0.0223240358
       -0.0053342352   0.0181068218  -0.0008612563   0.0061869562   0.0013244692
       -0.0009495062  -0.0002727274   0.0000071114   0.0001202495   0.0002615147
       -0.0001853469  -0.0000533050   0.0000182063   0.0000410456   0.0000102092
       -0.0001099656   0.0000121539  -0.0000368061   0.0000137203   0.0000074351
       -0.0000142268  -0.0000132894  -0.0000019573  -0.0000191245  -0.0000301511
       -0.0000117958   0.0000695609  -0.0000625557   0.0000036679  -0.0000714932
        0.0000459239   0.0000030361   0.0000013307  -0.0000440650  -0.0000266685
        0.0000076667  -0.0000011851   0.0000025764  -0.0000077448   0.0000072341
       -0.0000035023   0.0000111929  -0.0000016218   0.0000040110   0.0000032827
       -0.0000068365  -0.0000158363   0.0000030137   0.0000066119   0.0000169860
       -0.0000116729   0.0000166366   0.0000062168  -0.0000033255  -0.0000179329
       -0.0000222587   0.0000107652   0.0000033284   0.0000127303   0.0000082954
       -0.0000058070  -0.0000041168  -0.0000097165   0.0000054785  -0.0000030114
        0.0000076144  -0.0000023734  -0.0000030600   0.0000253531   0.0000179565
        0.0000171600  -0.0000200250   0.0000533574   0.0000124680   0.0000249420
       -0.0000263192  -0.0000040939   0.0000175908   0.0000214866  -0.0000010909
       -0.0000153268  -0.0000486473   0.0000140550   0.0000701647   0.0000579266
        0.0000018738  -0.0000748802  -0.0000383390  -0.0000024910   0.0000309014
       -0.0000194635   0.0000192888   0.0000061604   0.0000030439  -0.0000027352
       -0.0000104851  -0.0000073554   0.0000000360   0.0000087592   0.0000047161
       -0.0000013725   0.0000103519  -0.0000026944   0.0000136572  -0.0000060020
        0.0000136583  -0.0000204154  -0.0000174724  -0.0000103675  -0.0000031620
        0.0000102793  -0.0000077124   0.0000213566   0.0000040105   0.0000082074
       -0.0000114403   0.0000119420   0.0000049911   0.0000052440  -0.0000094920
       -0.0000063626  -0.0000007068   0.0000057368   0.0000017508   0.0000045941
       -0.0000025519   0.0000360839  -0.0000175629  -0.0000142264   0.0000260246
       -0.0000098902  -0.0000183012   0.0000062140  -0.0000006134  -0.0000072456
       -0.0000079176  -0.0000007503  -0.0000832439   0.0001299253  -0.0000246467
        0.0001717693  -0.0000045122   0.0000233573  -0.0002103181  -0.0001227181
        0.0000070377   0.0001170355   0.0003971110  -0.0000133968   0.0011123094
        0.0005082970   0.0000969836   0.0000674932  -0.0001235703   0.0000238093
       -0.0000639155   0.0001217493  -0.0000578098   0.0000589227  -0.0000685661
       -0.0000039552   0.0000272530  -0.0000636392   0.0000581755  -0.0001236054
        0.0000693304  -0.0001041726   0.0000067783  -0.0001115471  -0.0001079851
       -0.0228795036  -0.0085577861  -0.0117087317   0.0034775193   0.0433224715
       -0.0363703533  -0.0025557090   0.0001780906  -0.0010393955   0.0199685540
        0.1266089822  -0.1394256456  -0.0181606675  -0.0092379272  -0.0015929132
       -0.0000542854  -0.0000765881  -0.0001053859   0.0000077813  -0.0000148567
        0.0000010206   0.0000002022   0.0000073015  -0.0000018177   0.0000003833
        0.0000011175  -0.0000036713   0.0000038535   0.0000008875   0.0000022291
       -0.0000001379   0.0000036986   0.0000031859  -0.0000015474   0.0000010987
        0.0000007307  -0.0000018863   0.0000012090  -0.0000008077  -0.0000014894
       -0.0000012610  -0.0000026530   0.0000008190  -0.0000027843   0.0000005036
        0.0000025559   0.0000025765   0.0000028078   0.0000025156  -0.0000028012
        0.0000005718   0.0000015691   0.0000024584   0.0000018556   0.0000025981
       -0.0000038742   0.0000030642   0.0000011175   0.0000016907  -0.0000000586
       -0.0000016592  -0.0000000774  -0.0000021984  -0.0000010702  -0.0000016812
        0.0000001942  -0.0000025405  -0.0000020669   0.0000020018  -0.0000001985
       -0.0000032932   0.0000050504   0.0000037899  -0.0000006280   0.0000029857
        0.0000006243  -0.0000015339  -0.0000024753   0.0000010876  -0.0000047356
       -0.0000010600  -0.0000012730   0.0000076584   0.0000033800   0.0000676785
        0.0000455736  -0.0000244987  -0.0000018468  -0.0000099541   0.0000369932
        0.0000025408  -0.0000208297   0.0000009800   0.0000080616  -0.0000059695
        0.0000134114  -0.0000013353   0.0000151551   0.0000330220   0.0000527882
        0.0000274047   0.0000467460  -0.0002064997  -0.0005671507   0.0001679812
       -0.0013385715   0.0061891501   0.0013041712
       -0.0544789991   0.0167783987  -0.0491062135  -0.2632212766  -0.1452101699
        0.0043712810   0.5811967478   0.1366462101   0.1552376226  -0.0880665230
       -0.0092423254  -0.0135860520  -0.0085150181  -0.0225742178   0.0149043059
       -0.0010283926  -0.0021537684   0.0006401242   0.0003086732   0.0002778596
       -0.0011244120  -0.0001098433   0.0000681596  -0.0002739146   0.0000485145
       -0.0001971886   0.0002671390  -0.0000561312   0.0000175599  -0.0000030777
       -0.0000393396  -0.0000406594  -0.0000074220  -0.0000355969  -0.0000212132
       -0.0000258712   0.0001007864  -0.0000934970   0.0000129690  -0.0001032362
        0.0000749088  -0.0000110833  -0.0000056656  -0.0000557016  -0.0000249055
        0.0000094558  -0.0000017703   0.0000001062  -0.0000110088   0.0000106672
       -0.0000022870   0.0000162726  -0.0000023976   0.0000085337   0.0000024294
       -0.0000101675  -0.0000225308   0.0000110258   0.0000101248   0.0000312869
       -0.0000211817   0.0000175408  -0.0000049768  -0.0000085828  -0.0000202248
       -0.0000258390   0.0000134334   0.0000077770   0.0000203012   0.0000115266
       -0.0000108815  -0.0000103470  -0.0000124876   0.0000116133  -0.0000011021
        0.0000060048   0.0000032644  -0.0000071908   0.0000454236   0.0000254552
        0.0000349681  -0.0000117862   0.0000805613   0.0000199484   0.0000431228
       -0.0000177514  -0.0000179554   0.0000632555   0.0000055085  -0.0000090289
       -0.0000266763  -0.0000872865   0.0000371416   0.0001210652   0.0000997305
        0.0000069566  -0.0001353173  -0.0000749508  -0.0000121751   0.0000590707
       -0.0000347690   0.0000354719   0.0000050632  -0.0000006077  -0.0000023576
       -0.0000179430  -0.0000135120   0.0000020094   0.0000135326   0.0000151478
       -0.0000122900   0.0000152092  -0.0000085652   0.0000267003  -0.0000095617