$hessian                                                                        
        0.5325441567  -0.0094512461   0.0105069760  -0.0559831128  -0.0092288688
        0.0102491107   0.0019146500   0.0038478009  -0.0043602572   0.0013806122
        0.0107027896  -0.0073227935  -0.0299607819  -0.0255042912   0.0212322449
        0.0021463342  -0.0019687231   0.0003360031  -0.0011712355  -0.0006092413
        0.0013876105  -0.0012288971   0.0011076864  -0.0002431808   0.0004499169
       -0.0003798038  -0.0002976053  -0.0002513099   0.0013685854   0.0005030998
        0.0000946479  -0.0001231564  -0.0000645270   0.0000406863  -0.0000093334
       -0.0001197630  -0.0000234151   0.0000095619   0.0000101163   0.0000270581
       -0.0000172901   0.0000028789  -0.0000185464   0.0000067541   0.0000059680
        0.0000180023   0.0000211891  -0.0000157630  -0.0000896737   0.0000401313
       -0.0000121516  -0.0001054311  -0.0000073235   0.0000401474  -0.0000036672
       -0.0000345282   0.0000104783  -0.0000204534   0.0000020667   0.0000119189
        0.0000477872  -0.0000257157  -0.0000279814  -0.0000024911   0.0000354824
       -0.0000198337   0.0001414523  -0.0000758973   0.0001279740  -0.0008114844
       -0.0012783736  -0.0003516394   0.0006230910   0.0004058211   0.0001364704
        0.0001712592  -0.0001642931  -0.0001097491   0.0000116530   0.0000645625
       -0.0000341497   0.0000097660  -0.0000571124   0.0000546672   0.0000024593
       -0.0000131960  -0.0000019550  -0.0000151869   0.0000331283  -0.0000186074
       -0.0000955289   0.0000019143  -0.0000340538  -0.0001064755  -0.0000423086
        0.0000081367  -0.0000000811  -0.0000434623   0.0000287016  -0.0000317857
       -0.0000040969  -0.0000109899   0.0000131655   0.0000647151  -0.0000297825
        0.0000399215  -0.0000253990   0.0000325528  -0.0000419316   0.0001452024
        0.0000304921   0.0004773284  -0.0001477564   0.0002703436  -0.0009855148
       -0.0011604733  -0.0009138754   0.0001668293   0.0033032685   0.0024438513
        0.0001390824  -0.0003385697  -0.0000426055   0.0001208449  -0.0015755000
        0.0001736177  -0.1031566570   0.1006738035   0.0255904370  -0.0704440454
       -0.0290885332  -0.0685437706  -0.2764681074  -0.0432963730   0.0122701416
        0.0000981629  -0.0000434965   0.0001352213   0.0001868474  -0.0003532287
       -0.0018265221   0.0003065692   0.0001750202  -0.0004136772   0.0003919369
        0.0005136510  -0.0003743860   0.0002038803  -0.0002655048  -0.0003179872
       -0.0008010933   0.0028208987  -0.0000476460   0.0000475981  -0.0000055768
       -0.0000306681   0.0000254222  -0.0000023381   0.0000001645   0.0000031074
       -0.0000066292   0.0000124878  -0.0000044275  -0.0000029533   0.0000071559
       -0.0000120000   0.0000060412   0.0000049564  -0.0000072703   0.0000069613
       -0.0000000838  -0.0000065504   0.0000076266   0.0000036001   0.0000003545
        0.0000032401  -0.0000089930   0.0000196902  -0.0000096475   0.0000121921
        0.0000128134   0.0000080398  -0.0000044399  -0.0000035598   0.0000042840
        0.0000021731  -0.0000016061  -0.0000075874   0.0000017682  -0.0000060656
       -0.0000035309   0.0000034725  -0.0000086391   0.0000030058   0.0000053495
       -0.0000047338   0.0000001446  -0.0000043046   0.0000048305  -0.0000038554
       -0.0000044004   0.0000122714   0.0000019614  -0.0000042799  -0.0000224293
       -0.0000101230  -0.0000400572
       -0.0094512461   0.4865633144   0.0465196890  -0.0078922704  -0.1105588107
        0.0550294466   0.0015101878   0.0029864696  -0.0035544965   0.0008895005
       -0.0270799903   0.0186157796  -0.0156896551  -0.0070998995   0.0084836895
        0.0015052416  -0.0024834866  -0.0011238035   0.0006838899   0.0011784438
        0.0005648230  -0.0006103147  -0.0004742774  -0.0001160534   0.0004126441
        0.0000816887   0.0001064836  -0.0001545858  -0.0011044329  -0.0004388827
       -0.0001560600   0.0001471265   0.0000452150   0.0000798777   0.0000521002
        0.0000233830  -0.0000040275   0.0000029211  -0.0000083807   0.0000127722
        0.0000123831  -0.0000087788   0.0000087165  -0.0000119159   0.0000123339
       -0.0000064994  -0.0000227159  -0.0000046457   0.0000277851   0.0000171892
       -0.0000045279   0.0000003544  -0.0000072593   0.0000019047   0.0000063805
        0.0000153263   0.0000158764  -0.0000291651   0.0000214188   0.0000002054
        0.0000204515   0.0000023890   0.0000271307  -0.0000353377  -0.0000088386
        0.0000012161  -0.0000357875  -0.0000580057  -0.0000182008   0.0007615039
        0.0007250337   0.0003185082  -0.0004828440  -0.0002727456  -0.0001356006
       -0.0001084556   0.0001096202   0.0001482591   0.0000054065  -0.0000148369
        0.0000119167   0.0000146710   0.0000262686  -0.0000293791  -0.0000919158
        0.0000330848  -0.0000165961   0.0000173086  -0.0001376459   0.0000198725
        0.0000229166   0.0000945197  -0.0000212037   0.0001122450  -0.0000715429
        0.0000459959  -0.0000472796   0.0001054784  -0.0000345917  -0.0000412942
       -0.0000652681   0.0000109253   0.0000471734  -0.0000067535   0.0000315019
       -0.0000291047   0.0000122701  -0.0000058714   0.0000965494  -0.0000954167
       -0.0000901258  -0.0006971747   0.0001957216  -0.0000963183   0.0000557368
        0.0008417350   0.0002149798   0.0004206137   0.0010543550   0.0005383967
       -0.0001447752  -0.0002109116  -0.0002625891   0.0001369731  -0.0003192750
        0.0000404739   0.1005025506  -0.2151910970  -0.0461870272  -0.0281424787
       -0.0759236300  -0.0781758508  -0.0438496311  -0.0502501113   0.0013043190
       -0.0005034889   0.0006990824  -0.0010361527  -0.0002814471   0.0000154112
       -0.0019377196   0.0001091689   0.0002321039  -0.0000590691  -0.0009513800
        0.0004197897   0.0003020186  -0.0005827201   0.0007967498   0.0010560166
        0.0026326954  -0.0050372746  -0.0000568023  -0.0000737548   0.0000200412
       -0.0000080266  -0.0000092309   0.0000063538  -0.0000403022   0.0000221518
       -0.0000049791   0.0000106301   0.0000130721   0.0000052483   0.0000158386
       -0.0000003770   0.0000103717   0.0000026676   0.0000071120   0.0000173843
        0.0000016952   0.0000067795  -0.0000196896  -0.0000108155  -0.0000071235
        0.0000069249  -0.0000182632  -0.0000179045  -0.0000311957  -0.0000097389
       -0.0000131070   0.0000379292   0.0000029209  -0.0000083624   0.0000001423
       -0.0000108331   0.0000100204   0.0000127446   0.0000087638  -0.0000034369
       -0.0000180830  -0.0000059938   0.0000020463   0.0000140430   0.0000072324
        0.0000133837  -0.0000065834  -0.0000036591   0.0000123154   0.0000019205
       -0.0000106635  -0.0000189034  -0.0000140357   0.0000083046  -0.0000090564
        0.0000256102  -0.0000074503
        0.0105069760   0.0465196890   0.4778681010   0.0057539424   0.0532397252
       -0.1216401844   0.0018089670   0.0168389715  -0.0280397151  -0.0006228055
        0.0015386453   0.0000731790   0.0151113533   0.0054305595  -0.0017285412
       -0.0041382908   0.0024379146   0.0011867452   0.0016605982  -0.0003098773
       -0.0008047852   0.0017069534  -0.0000263417  -0.0001714092  -0.0006842703
       -0.0000040412  -0.0000162436   0.0002810629   0.0000059489   0.0001534786
       -0.0000593445  -0.0000180891   0.0000276389   0.0000372578   0.0000279792
       -0.0000282695  -0.0000552585   0.0000520300   0.0000093712   0.0000329256
        0.0000510054  -0.0000242211   0.0000175365   0.0000512682  -0.0000399119
        0.0000405531  -0.0000542308   0.0000278676   0.0000445923  -0.0000006433
       -0.0000058550   0.0000845746  -0.0000268724  -0.0000105041   0.0000581196
        0.0000310789  -0.0000364085   0.0000243495  -0.0000620961   0.0000182250
       -0.0000634787  -0.0000303813   0.0000389579  -0.0000551163  -0.0000300570
        0.0000402755  -0.0000540109   0.0000280611  -0.0000543824   0.0003733065
        0.0000256709  -0.0000104451   0.0001079535   0.0000167254  -0.0000615224
       -0.0001380420  -0.0001644839   0.0000803272  -0.0000947457   0.0000757598
       -0.0000811627  -0.0001031201   0.0000150157  -0.0000586612   0.0000330057
        0.0000650158  -0.0000265495   0.0000670866  -0.0000729881   0.0000691373
        0.0001748539   0.0000334941   0.0000479937   0.0001338449   0.0000527364
        0.0000071184   0.0000073522   0.0000945881  -0.0000614159   0.0000297707
       -0.0000604685   0.0000510838   0.0000094669  -0.0000795919   0.0000354769
       -0.0000374354  -0.0000635970  -0.0000016997  -0.0001024437   0.0000106181
       -0.0000566387  -0.0005582464  -0.0001052019  -0.0000644554   0.0007085463
        0.0001760741   0.0000952313  -0.0018802514  -0.0013900959  -0.0005008721
        0.0004737379   0.0005324576   0.0000094025   0.0004009069   0.0004100065
        0.0000579650   0.0248808372  -0.0457393497  -0.0539633033  -0.0687515093
       -0.0792841667  -0.2259547623   0.0126509035   0.0015209261  -0.0430495899
        0.0000406794   0.0008729339   0.0008875499  -0.0015147477  -0.0010950132
       -0.0058678752   0.0008392116   0.0005185939   0.0003866670   0.0002076754
       -0.0002893462   0.0000093727   0.0003703651  -0.0010292724   0.0007175946
        0.0002044608  -0.0006969779   0.0004825721   0.0000896799  -0.0000295523
       -0.0000448761   0.0000082766  -0.0000199534   0.0000008981  -0.0000076097
       -0.0000165261   0.0000052125  -0.0000196545  -0.0000115741   0.0000037238
       -0.0000148499   0.0000082277   0.0000017663  -0.0000155237   0.0000027652
        0.0000036864  -0.0000128062   0.0000213885  -0.0000076767   0.0000128479
        0.0000131638  -0.0000046326   0.0000268004   0.0000071255  -0.0000053985
        0.0000144158  -0.0000041117   0.0000187210   0.0000093737  -0.0000195091
        0.0000141122  -0.0000085377  -0.0000155871   0.0000100285  -0.0000083989
       -0.0000014578   0.0000002230  -0.0000106639  -0.0000125615  -0.0000047070
       -0.0000184587   0.0000092213  -0.0000057079  -0.0000028192   0.0000160480
       -0.0000002102   0.0000035932   0.0000245529   0.0000088693  -0.0000162752
       -0.0000119694  -0.0000159802
       -0.0559831128  -0.0078922704   0.0057539424   0.4297124760  -0.0152300214
        0.0066265425  -0.0645444436  -0.0098272470  -0.0254037463  -0.0854196954
        0.0486786310   0.0100032449  -0.1553901946  -0.0253418804   0.0059324455
       -0.0372731287   0.0108788335   0.0047404076   0.0035607304  -0.0017536723
       -0.0004570032   0.0060501692  -0.0005554084   0.0001982912  -0.0021287026
        0.0001487178   0.0004208683   0.0007504363  -0.0032507853  -0.0009212071
       -0.0004314883   0.0003553986   0.0001215208  -0.0002356875   0.0000456740
        0.0002118793   0.0000006842   0.0000870445  -0.0000258590  -0.0000637563
        0.0001111103  -0.0000166538   0.0000622377  -0.0001403091   0.0000471381
        0.0000002175  -0.0000792379   0.0000015141   0.0002973835  -0.0002647559
        0.0000843749   0.0003520349   0.0000357488  -0.0001784229  -0.0000047252
        0.0000659420   0.0000474747  -0.0000257975   0.0000702426  -0.0000434540
       -0.0000546938   0.0000534979   0.0001179455  -0.0000738655  -0.0000343794
        0.0000244090  -0.0005395254   0.0003069708  -0.0003075905   0.0030247976
        0.0024396360   0.0006967191  -0.0011600952  -0.0008479403  -0.0004026249
       -0.0008149794  -0.0000772803   0.0003580159  -0.0000285994  -0.0000342451
        0.0000246109  -0.0003382820   0.0000721525  -0.0002137015   0.0001476627
        0.0000341930   0.0001124878   0.0001061995  -0.0001058602  -0.0000547903
        0.0006979778  -0.0002471107   0.0004917907   0.0005393417   0.0006124707
       -0.0002650251   0.0001183359   0.0000356728   0.0000666767   0.0001540022
        0.0001640477  -0.0000617490  -0.0001733810  -0.0002929203   0.0001092157
        0.0000022380   0.0000855520  -0.0000384791  -0.0002665561  -0.0003181718
       -0.0002010646  -0.0038823884   0.0001772924  -0.0007184504   0.0033676354
        0.0025439740   0.0018820071  -0.0111279809  -0.0165857569  -0.0112131656
       -0.0003451758   0.0009183401   0.0032344502   0.0003560697   0.0038131114
       -0.0003747822   0.0014279858   0.0093687955  -0.0086584709   0.0012484204
        0.0059800068  -0.0066507400  -0.0084999611  -0.0188665594   0.0197227021
        0.0028851299   0.0056534311   0.0125437178   0.0006896063   0.0023134261
        0.0042287449  -0.0121596802  -0.0103998170  -0.0251650448  -0.0198496318
        0.0234082290   0.0053674789   0.0030142823  -0.0036948472  -0.0001648226
        0.0020992517  -0.0026281333  -0.0013960209   0.0000652575  -0.0001674471
       -0.0001480392  -0.0000491143  -0.0000059504  -0.0001083565   0.0000859059
        0.0000015845   0.0000554225   0.0000646463   0.0000212557   0.0000616370
        0.0000235975   0.0000557008   0.0000397131   0.0000501328   0.0000774799
        0.0000134247   0.0000391006  -0.0000927011  -0.0000292752  -0.0000293108
       -0.0000054093  -0.0000337055  -0.0000876667  -0.0000745779  -0.0000527166
       -0.0000265944   0.0000958354   0.0000655170  -0.0000266661  -0.0000004998
       -0.0000588651   0.0000482986   0.0000446896   0.0000299211  -0.0000019296
       -0.0000681334  -0.0000028972   0.0000317412   0.0000302496  -0.0000189039
        0.0000485771  -0.0000189550  -0.0000082695   0.0000675489   0.0000016771
       -0.0000259079  -0.0000793801  -0.0000061457  -0.0000133486  -0.0000739224
        0.0001218141  -0.0000030981
       -0.0092288688  -0.1105588107   0.0532397252  -0.0152300214   0.4694606155
        0.0126636201  -0.0093718608  -0.0743524858  -0.0364526522   0.0481592942
       -0.1484092931  -0.0225948995  -0.0303325227  -0.0736811190  -0.0091620794
        0.0137337616   0.0168637983   0.0044177567  -0.0024851654  -0.0048277326
       -0.0011866442   0.0050414277   0.0000487857  -0.0018008703   0.0006370101
       -0.0007102411  -0.0001191713   0.0002498337   0.0037076669   0.0017297703
        0.0003186176  -0.0003002253  -0.0002003030  -0.0001184820  -0.0001345416
       -0.0003058593   0.0000089318  -0.0000098512   0.0000455593   0.0000063168
       -0.0000406233   0.0000490736  -0.0000433238  -0.0000234883   0.0000089987
        0.0000438766   0.0001083163  -0.0000320880  -0.0001967294  -0.0000314677
        0.0000165152  -0.0001046265   0.0000232950   0.0000219124  -0.0000823731
       -0.0000981974   0.0000265711   0.0000422471   0.0000234266  -0.0000214810
        0.0000609846  -0.0000153152  -0.0000913957   0.0001162459   0.0000708570
       -0.0000604410   0.0001512282   0.0000677873   0.0001895287  -0.0020056077
       -0.0033084571  -0.0010998892   0.0016254927   0.0010376568   0.0002900531
        0.0002267449  -0.0007191835  -0.0002403469   0.0000132580   0.0001644106
       -0.0001006266  -0.0000669950  -0.0001513130   0.0001073448   0.0001105754
       -0.0000446969   0.0000088892  -0.0000717737   0.0000752963   0.0000075030
       -0.0000048898  -0.0000559283   0.0000203896  -0.0001790832   0.0000687804
       -0.0000312973  -0.0000342981  -0.0001172138   0.0000125720  -0.0000355132
        0.0000384811  -0.0000106142  -0.0000217374   0.0000975286  -0.0000847754
        0.0001157843  -0.0000401853   0.0000561192  -0.0004112963   0.0004325084
        0.0000874384   0.0002773612  -0.0003079836   0.0005446906  -0.0026093765
       -0.0051883801  -0.0030502369  -0.0120186026  -0.0002345552   0.0000037752
        0.0006141793  -0.0001855728   0.0012850096   0.0018607807  -0.0021108388
        0.0007032332  -0.0019546765  -0.0231828187   0.0186180342   0.0012978070
        0.0052493452  -0.0044094905  -0.0031492541  -0.0052742715   0.0050609751
       -0.0036679419  -0.0130175860  -0.0227853701   0.0048163127   0.0058842680
        0.0176507368  -0.0033599175  -0.0031284456  -0.0061962919  -0.0007573884
        0.0028106118   0.0005348563   0.0065126362  -0.0128632979  -0.0061468521
        0.0112284634  -0.0230692919  -0.0011802208   0.0002937566  -0.0000473476
       -0.0001096059   0.0000303493  -0.0000185595   0.0000385679  -0.0000143091
        0.0000072262   0.0000119081  -0.0000123309  -0.0000088259  -0.0000081766
       -0.0000066999   0.0000106669   0.0000210562  -0.0000027067  -0.0000031136
        0.0000027149  -0.0000131863   0.0000225635   0.0000236253   0.0000059020
       -0.0000263720   0.0000309888   0.0000363219   0.0000524980   0.0000328419
        0.0000146070  -0.0000335530  -0.0000139946  -0.0000046468   0.0000179001
        0.0000049337  -0.0000118807  -0.0000203254  -0.0000095881   0.0000055617
        0.0000155057   0.0000093841   0.0000009133  -0.0000127906  -0.0000141143
       -0.0000125449   0.0000060933  -0.0000016887   0.0000001219  -0.0000213270
        0.0000069396   0.0000173833   0.0000236754  -0.0000246072  -0.0000534579
       -0.0000039379  -0.0000379399
        0.0102491107   0.0550294466  -0.1216401844   0.0066265425   0.0126636201
        0.4645965756  -0.0264995928  -0.0375929551  -0.1592833827   0.0097759741
       -0.0213010773  -0.0653858904   0.0008347409  -0.0078861507  -0.0471572195
        0.0100839513   0.0002933169  -0.0027204576  -0.0024374040   0.0011278591
       -0.0021466185  -0.0007135582  -0.0023985094   0.0021339833   0.0006303872
        0.0003705137   0.0008016110  -0.0005164548  -0.0005227622  -0.0005208080
        0.0002223590   0.0000620332  -0.0003083584  -0.0000165919  -0.0000299698
        0.0000114807   0.0001536886  -0.0001440291  -0.0000249209  -0.0001928828
       -0.0000768879   0.0000624129   0.0000655221  -0.0002457046   0.0001233505
        0.0000774795   0.0003375071  -0.0001802829  -0.0001750925  -0.0001869525
        0.0001557532  -0.0001734119   0.0003081729  -0.0000993071  -0.0000946830
       -0.0003267651   0.0001535826   0.0001511421   0.0001260405  -0.0001011102
        0.0000417387   0.0000420655  -0.0001021653   0.0001321394   0.0000965459
       -0.0001286379   0.0002318887  -0.0002609608   0.0002367432  -0.0010479310
        0.0007116264   0.0002497571  -0.0003540217  -0.0001096844   0.0001371002
        0.0002744159   0.0004364438  -0.0002406830   0.0001921095  -0.0002140837
        0.0002034682   0.0002231879   0.0000093896   0.0001059239   0.0000022021
       -0.0001529705   0.0000463126  -0.0001387611   0.0002940798  -0.0001229604
       -0.0003184937  -0.0001345474  -0.0000836406  -0.0002911628  -0.0000001224
       -0.0000559167   0.0000370029  -0.0002530494   0.0001084802   0.0000141424
        0.0001881777  -0.0000884508  -0.0000985753   0.0000908196  -0.0000791789
        0.0000224685   0.0000593696  -0.0000111419   0.0000825479  -0.0000543460
        0.0001693702   0.0004700935   0.0006072869   0.0001802362  -0.0038878676
       -0.0027945285  -0.0009760913  -0.0040982498   0.0000056878   0.0032407153
        0.0008458869   0.0000879572  -0.0026011008  -0.0017216768   0.0008628953
       -0.0012566075  -0.0007535885   0.0001700777   0.0022370445   0.0036792472
        0.0174842455  -0.0258360571   0.0019259740   0.0026213117  -0.0023294837
        0.0002822712  -0.0070418645  -0.0089706288  -0.0056962818  -0.0052804166
       -0.0259065162  -0.0025385740  -0.0009304092  -0.0013359296   0.0001122812
        0.0003594546   0.0001466004   0.0132822921  -0.0236858295  -0.0082888169
       -0.0091128842   0.0170838176   0.0025552611  -0.0000470775  -0.0000020285
        0.0001945985   0.0000125051   0.0000347049   0.0000821988  -0.0000290757
        0.0000412350  -0.0000445538   0.0000011563   0.0000120215  -0.0000366454
        0.0000200631  -0.0000393853  -0.0000188349   0.0000072715  -0.0000404419
       -0.0000186563   0.0000076849   0.0000111503   0.0000245625  -0.0000025337
       -0.0000214566   0.0000459000   0.0000165789   0.0000647961   0.0000225176
       -0.0000014088  -0.0000518576  -0.0000413102   0.0000033116   0.0000426368
       -0.0000094345  -0.0000060420   0.0000128683  -0.0000314449   0.0000196700
        0.0000344083   0.0000080607   0.0000156133  -0.0000012563  -0.0000033081
        0.0000083227  -0.0000024342   0.0000204276  -0.0000355116  -0.0000164039
        0.0000180254   0.0000361217  -0.0000113342  -0.0000218739   0.0001283027
        0.0000275913   0.0001365561
        0.0019146500   0.0015101878   0.0018089670  -0.0645444436  -0.0093718608
       -0.0264995928   0.5286908261  -0.0083095728  -0.0224515118   0.0023885990
        0.0063135813   0.0104059145  -0.0252544267  -0.0178658852  -0.0267244720
        0.0006515358   0.0011202192  -0.0001027672  -0.0056024473   0.0008060609
       -0.0031286219   0.0000333011   0.0000607859   0.0002580640   0.0000006810
       -0.0000619721  -0.0000481549   0.0000010555   0.0006049275   0.0002495073
        0.0001717434  -0.0001423367  -0.0000983929  -0.0000127285  -0.0000291484
        0.0000069747   0.0000059241   0.0000158080  -0.0000015447   0.0000101510
       -0.0000117460  -0.0000034860   0.0000009423  -0.0000066041   0.0000083003
        0.0000017199  -0.0000057874  -0.0000101327  -0.0000262667  -0.0000075050
        0.0000064910  -0.0000008645   0.0000106563  -0.0000166094   0.0000036584
       -0.0000066236   0.0000184682   0.0000024600   0.0000155958  -0.0000043065
       -0.0000198656   0.0000310661   0.0000012842  -0.0000118412  -0.0000392461
        0.0000248850  -0.0000150304   0.0001000294   0.0000053112  -0.0004942307
       -0.0004703678  -0.0003013301   0.0000923317   0.0001250952   0.0000221262
       -0.0000017205  -0.0001367182  -0.0000240974   0.0000053631   0.0000261607
       -0.0000128844  -0.0000204488  -0.0000035863   0.0000114275  -0.0000319054
        0.0000217497  -0.0000043779   0.0000129523  -0.0000498865   0.0000091553
       -0.0000078358   0.0000361248  -0.0000099847  -0.0000265941  -0.0000384397
        0.0000150149   0.0000031332   0.0000216155  -0.0000024290  -0.0000285348
       -0.0000372635   0.0000067107   0.0000370529   0.0000068583  -0.0000083410
        0.0000098973   0.0000151469  -0.0000039648  -0.0000373139   0.0000499955
        0.0000915703   0.0000721832   0.0003453182   0.0001336773  -0.0014695028
       -0.0019690608  -0.0007741998  -0.0032781465   0.0025692240   0.0009292473
        0.0007087482  -0.0003862800  -0.0016256848   0.0005904871  -0.0003605346
        0.0002628506   0.0000768249   0.0000259345  -0.0001530592   0.0003642728
       -0.0005876339   0.0009978937   0.0001989396  -0.0000246511   0.0004729208
       -0.1069339400   0.1045218235   0.0266429319  -0.0530750456  -0.0327538353
        0.0326969129  -0.2749840744  -0.0485618420   0.0047852040   0.0004636660
        0.0006318561   0.0006251324  -0.0007081834   0.0025970413   0.0012646761
        0.0000559677  -0.0003190313   0.0002092904  -0.0000254000  -0.0000368792
        0.0000243188   0.0000019046   0.0000031474  -0.0000247139   0.0000187756
       -0.0000023482   0.0000095306   0.0000078885   0.0000038085   0.0000143294
        0.0000001884   0.0000078892   0.0000040750   0.0000020625   0.0000131916
        0.0000007027   0.0000047881  -0.0000129906  -0.0000055349  -0.0000058984
        0.0000015103  -0.0000148718  -0.0000091220  -0.0000284847   0.0000012284
       -0.0000015788   0.0000264604  -0.0000088244  -0.0000050114   0.0000021029
       -0.0000070533   0.0000081015   0.0000033139  -0.0000004444  -0.0000048389
       -0.0000116632  -0.0000029880   0.0000024578   0.0000056736  -0.0000031652
        0.0000062533  -0.0000017233   0.0000019909   0.0000162534  -0.0000007326
       -0.0000078193  -0.0000051516  -0.0000050103   0.0000068619   0.0000046512
        0.0000072914   0.0000514138
        0.0038478009   0.0029864696   0.0168389715  -0.0098272470  -0.0743524858
       -0.0375929551  -0.0083095728   0.5152304660  -0.0278851091  -0.0014552341
       -0.0161585137  -0.0244812326  -0.0097989977  -0.0025096805  -0.0076004207
       -0.0002004764  -0.0054398313  -0.0019342932   0.0040432962   0.0030240934
        0.0024112067   0.0007999871  -0.0009177911   0.0000257151  -0.0002143853
        0.0002575221   0.0003346435   0.0003304983  -0.0021542491  -0.0007717672
       -0.0003520472   0.0003274635   0.0001659626   0.0000329238   0.0000554977
        0.0001157482  -0.0000417058   0.0000504539  -0.0000029137   0.0000390668
        0.0000656303  -0.0000320124   0.0000046658   0.0000842103  -0.0000418446
       -0.0000483288  -0.0001791221   0.0000878764   0.0001808763   0.0000572196
       -0.0000605414   0.0001250702  -0.0001155885   0.0000107394   0.0000600853
        0.0001680187  -0.0000580151  -0.0000865840  -0.0000403147   0.0000418585
       -0.0000214543  -0.0000065890   0.0000861845  -0.0000944800  -0.0000474490
        0.0000566514  -0.0002186060   0.0000495723  -0.0001873642   0.0011703811
        0.0017424470   0.0006479660  -0.0007193313  -0.0004356364  -0.0002435536
       -0.0003243306   0.0000213876   0.0002872856  -0.0000400024   0.0000200269
       -0.0000187837  -0.0000733301   0.0000491277  -0.0000936187  -0.0001041847
        0.0000882462  -0.0000319462   0.0000746851  -0.0002448595   0.0000716667
        0.0001902070   0.0001232058   0.0000290273   0.0002669118  -0.0000243192
        0.0000473571  -0.0000525624   0.0002100304  -0.0000883863  -0.0000171322
       -0.0001187527   0.0000453250   0.0000426938  -0.0000781802   0.0000640058
       -0.0000471314   0.0000126707  -0.0000188344   0.0000267499  -0.0001544219
       -0.0001815000  -0.0009348686   0.0003343016  -0.0001788952   0.0001203830
        0.0014515754   0.0004926868  -0.0015073787   0.0005090893  -0.0003106166
        0.0004673822   0.0000731389  -0.0002621198   0.0003659306   0.0001457158
        0.0001702832  -0.0000770827   0.0007807118   0.0006354294  -0.0004724188
       -0.0017768267   0.0036782921   0.0003890327   0.0003585800   0.0000230844
        0.1030999225  -0.2106232392  -0.0401461883  -0.0316309777  -0.1578872854
        0.1166457144  -0.0497304780  -0.0519876941   0.0023292812  -0.0010087793
        0.0004237133  -0.0001584657   0.0021926060  -0.0041703372  -0.0019737195
       -0.0002792713   0.0006734017  -0.0009025883  -0.0001485943   0.0000158692
        0.0000029721  -0.0000255790  -0.0000012820  -0.0000739701   0.0000302026
       -0.0000171059   0.0000155762   0.0000165027   0.0000018218   0.0000219618
        0.0000010542   0.0000172003   0.0000059245   0.0000084700   0.0000251599
        0.0000080488   0.0000092507  -0.0000280923  -0.0000202775  -0.0000079862
        0.0000169333  -0.0000319055  -0.0000476060  -0.0000543170  -0.0000314727
       -0.0000255581   0.0000568439   0.0000062508  -0.0000069278  -0.0000142832
       -0.0000126130   0.0000159398   0.0000163071   0.0000153395  -0.0000042489
       -0.0000256851  -0.0000085884   0.0000037195   0.0000132455   0.0000062281
        0.0000169554  -0.0000071605  -0.0000044048   0.0000206253   0.0000074214
       -0.0000107497  -0.0000425575  -0.0000211354   0.0000217370   0.0000035608
        0.0000474386   0.0000046655
       -0.0043602572  -0.0035544965  -0.0280397151  -0.0254037463  -0.0364526522
       -0.1592833827  -0.0224515118  -0.0278851091   0.4569782576   0.0005996514
       -0.0094373494  -0.0117637600  -0.0094286928  -0.0044758947  -0.0024941825
       -0.0007998210  -0.0020883990  -0.0001914862  -0.0004909781   0.0021030438
        0.0010455322   0.0009812043  -0.0004179238  -0.0001532954  -0.0003514892
        0.0000890214   0.0002084900   0.0003853363  -0.0012350046  -0.0003650623
       -0.0001901893   0.0001447571   0.0000974414  -0.0000088561   0.0000109644
        0.0001085209  -0.0000328359   0.0000733070  -0.0000176507   0.0000959177
        0.0000268052  -0.0000318321  -0.0000407594   0.0000796501  -0.0000272691
       -0.0000982564  -0.0001868009   0.0000941818   0.0001861308   0.0000689535
       -0.0000799220   0.0001383906  -0.0001551407   0.0000164117   0.0000183346
        0.0001977248  -0.0000509293  -0.0001120328  -0.0000022927   0.0000307920
       -0.0000034128   0.0000259108   0.0000701080  -0.0000778895  -0.0000951402
        0.0000765032  -0.0002422521   0.0001952995  -0.0001897851   0.0007784244
        0.0009761203   0.0002498046  -0.0004387656  -0.0002544818  -0.0001661704
       -0.0002808339  -0.0001105228   0.0002236931  -0.0000357160   0.0000599587
       -0.0000493413  -0.0000785007   0.0000305178  -0.0000683187  -0.0000943443
        0.0000651849  -0.0000053288   0.0000448074  -0.0002541928   0.0000531082
        0.0001987995   0.0001222793   0.0000461662   0.0002361117  -0.0000194306
        0.0000399153  -0.0000623868   0.0001739116  -0.0000625194  -0.0000497354
       -0.0001090106   0.0000268500   0.0000884640  -0.0000483609   0.0000520502
       -0.0000147948   0.0000212581  -0.0000079106   0.0000313225  -0.0000893662
       -0.0000723903  -0.0006108832   0.0002756901  -0.0001838377   0.0005707009
        0.0009522044   0.0003423060  -0.0014616266  -0.0000542672  -0.0001995088
        0.0005316279   0.0000963985   0.0000843663   0.0005999820   0.0001935191
        0.0000196083  -0.0000878805  -0.0012032127   0.0008683141   0.0006938006
        0.0029622306  -0.0038303360  -0.0005790943  -0.0005602275   0.0002081410
        0.0256691582  -0.0392992562  -0.0519339692   0.0323399143   0.1176697596
       -0.1599508673   0.0042917061   0.0016842941  -0.0421199147  -0.0006822449
        0.0004073061   0.0000451462   0.0007004381  -0.0016185901  -0.0002272549
       -0.0004722351   0.0008871061   0.0006709263  -0.0001386339  -0.0000036048
       -0.0000112420  -0.0000337360  -0.0000002323  -0.0000824337   0.0000453530
       -0.0000091433   0.0000250933   0.0000373386   0.0000113347   0.0000306556
        0.0000125605   0.0000223975   0.0000155710   0.0000209061   0.0000352938
        0.0000117771   0.0000182756  -0.0000525083  -0.0000174229  -0.0000163316
        0.0000058865  -0.0000364753  -0.0000620932  -0.0000619899  -0.0000315310
       -0.0000283689   0.0000640751   0.0000132631  -0.0000177568  -0.0000054891