$hessian                                                                        
        0.9684295757   0.5189708611   0.2184651181  -0.9316867888  -0.4887727027
       -0.2057825827  -0.0377562570  -0.0314713709  -0.0132179855   0.0081548554
       -0.0037828308  -0.0014549768  -0.0024485457  -0.0019953800  -0.0008116810
        0.0023227613   0.0010438318   0.0004589614  -0.0027398562  -0.0021006993
       -0.0008573890  -0.0027420244   0.0086786549   0.0034260047  -0.0007342883
        0.0007272770   0.0002948140  -0.0002322638  -0.0002024348  -0.0000779008
        0.0002936753  -0.0001044710  -0.0000414741  -0.0006705307   0.0002562344
        0.0000972666   0.0004089191  -0.0001272196  -0.0000477538  -0.0000541735
        0.0000028677   0.0000022559   0.0000717114  -0.0000000538   0.0000009930
       -0.0000761816  -0.0002584601  -0.0001022541   0.0000506801   0.0001887310
        0.0000599488  -0.0001022555  -0.0002130578  -0.0001024445   0.0001639451
        0.0006915709   0.0003127629  -0.0004862087   0.0001049879   0.0001206756
        0.0004786800   0.0003065518   0.0000643839  -0.0003219364  -0.0001997012
       -0.0000452850  -0.0000086693   0.0002237120   0.0001494539  -0.0001699858
       -0.0000979479   0.0001637493   0.0003652257   0.0002136048   0.0000373903
       -0.0003558776  -0.0002117617  -0.0000424791   0.0000861859   0.0000168272
       -0.0001223549  -0.0000233552  -0.0000315985   0.0000316816  -0.0000161898
        0.0000133486  -0.0000144165  -0.0000124830  -0.0000005766  -0.0000012347
        0.0000208566   0.0000009543  -0.0000033844  -0.0000159846  -0.0000190908
        0.0000318064   0.0000281954   0.0000530087   0.0001334664  -0.0000170146
        0.0000013207  -0.0000348009   0.0000070633   0.0000191095   0.0000052424
       -0.0000062749  -0.0000109950  -0.0000010258   0.0000045751  -0.0000197931
        0.0000131956  -0.0000300003  -0.0000003502  -0.0000379776  -0.0001191327
       -0.0000790227  -0.0001873239   0.0002111655  -0.0001045223  -0.0001246759
        0.0001957676  -0.0004113725  -0.0001397685  -0.0001599735   0.0001055218
        0.0000153927  -0.0000221250  -0.0001414737  -0.0001038701  -0.0001174329
        0.0000619561  -0.0001200481   0.0002579339  -0.0001595060  -0.0000251447
       -0.0002583075   0.0001633360   0.0000314258   0.0000247766  -0.0000423656
       -0.0001060972  -0.0000140679   0.0000024547   0.0000263662   0.0000087105
       -0.0000135938  -0.0000047109  -0.0000039523   0.0000129290   0.0000005133
        0.0000047056   0.0000132460  -0.0000083210  -0.0000182532  -0.0000054357
        0.0000309982   0.0000678772  -0.0000208252   0.0000952609  -0.0000153982
        0.0000183350  -0.0000206426   0.0000166871  -0.0000000086   0.0000025435
       -0.0000073205   0.0000014831   0.0000005444  -0.0000093630  -0.0000101132
        0.0000098588  -0.0000104350   0.0000237909  -0.0000264828  -0.0000740235
        0.0000566361   0.0001273616   0.0001219023   0.0000779008   0.0000831104
        0.0000106157  -0.0001949234  -0.0001056170  -0.0004171871  -0.0008078018
       -0.0003560465   0.0008254202  -0.0002222956  -0.0001054284  -0.0007396288
        0.0001773264   0.0000864197   0.0001338765   0.0001789483   0.0000976002
       -0.0002011082  -0.0001521889  -0.0000813636   0.0000373457  -0.0002674369
       -0.0001275248  -0.0000118414   0.0000000331   0.0000030851   0.0000069127
       -0.0000525830  -0.0000222867  -0.0000154637  -0.0000426168  -0.0000181366
       -0.0000108024  -0.0000452739  -0.0000131166   0.0000269667   0.0000158787
        0.0000043867  -0.0000076147  -0.0000281983  -0.0000118138   0.0000030407
        0.0000152422  -0.0000060726   0.0000079283  -0.0000051149   0.0000067424
       -0.0000047745  -0.0000049505   0.0000078085  -0.0000108002   0.0000004277
        0.0000026352   0.0000043279   0.0000005616  -0.0000085405  -0.0000012856
        0.0000018304   0.0000096469  -0.0000061198  -0.0000089794  -0.0000045790
       -0.0000050020   0.0000001194  -0.0000084594   0.0000011941   0.0000094217
       -0.0000041147   0.0000128067  -0.0000068571   0.0000077442  -0.0000284089
        0.0000064699   0.0000059894   0.0000267882   0.0000164588   0.0000022429
        0.0000329823  -0.0000186354  -0.0000042115  -0.0000018957   0.0000171053
        0.0000138077   0.0000039965  -0.0000041364  -0.0000084702  -0.0000002000
        0.0000051431   0.0000026166  -0.0000007190  -0.0000016315   0.0000054053
        0.0000031864  -0.0000095441   0.0000003110   0.0000118421   0.0000025019
       -0.0000085774   0.0000081127  -0.0000021577   0.0000045484  -0.0000036420
       -0.0000013922  -0.0000017881   0.0000011313   0.0000013827  -0.0000057101
        0.0000104267  -0.0000001159  -0.0000043765   0.0000064028  -0.0000164157
        0.0000053417  -0.0000197889  -0.0000095717  -0.0000082918   0.0000248722
       -0.0000223759   0.0000039069   0.0000266059   0.0000340369   0.0000182275
        0.5189708611   0.2994608664   0.1189039917  -0.4887381302  -0.3012495128
       -0.1128423964  -0.0306680414   0.0006922885  -0.0063870424   0.0027808349
       -0.0044920315  -0.0022517137  -0.0026199651  -0.0008308968   0.0002750786
        0.0010846950   0.0009849396   0.0003862779  -0.0014437450  -0.0002626470
        0.0006463447   0.0016837642   0.0053800192   0.0016416369  -0.0000935073
        0.0003283696   0.0001645713  -0.0000338315  -0.0001049342  -0.0000487214
        0.0000776950  -0.0000507398  -0.0000199138  -0.0002420684   0.0001363968
        0.0000617429   0.0001230515  -0.0000756966  -0.0000391001  -0.0000331345
       -0.0000090455  -0.0000009034   0.0000589038  -0.0000006647  -0.0000017064
       -0.0000135119  -0.0000125209  -0.0000372567  -0.0000261440   0.0000777667
        0.0000315875  -0.0000123256  -0.0000977733  -0.0000389421   0.0000565660
        0.0004059460   0.0001861720  -0.0002562285   0.0000596901   0.0000588169
        0.0002554526   0.0001862283   0.0000419634  -0.0001812006  -0.0001082481
       -0.0000229404  -0.0000024888   0.0001229618   0.0000805375  -0.0000957022
       -0.0000511729   0.0000896265   0.0002014252   0.0001154150   0.0000218970
       -0.0001976978  -0.0001124504  -0.0000251390   0.0000464346   0.0000069538
       -0.0000665646  -0.0000124386  -0.0000152166   0.0000168538  -0.0000085965
        0.0000090984  -0.0000066908  -0.0000083098  -0.0000003923  -0.0000015300
        0.0000123431   0.0000006458  -0.0000024426  -0.0000085536  -0.0000114900
        0.0000171006   0.0000166755   0.0000270225   0.0000740318  -0.0000105463
        0.0000023441  -0.0000196118   0.0000043089   0.0000106565   0.0000041897
       -0.0000051343  -0.0000043076  -0.0000014544   0.0000028718  -0.0000107984
        0.0000075710  -0.0000177597  -0.0000005037  -0.0000214544  -0.0000655169
       -0.0000436001  -0.0001026670   0.0001172130  -0.0000550853  -0.0000733077
        0.0001086209  -0.0002420816  -0.0000822143  -0.0000916758   0.0000632069
        0.0000103395  -0.0000106134  -0.0000821538  -0.0000644226  -0.0000660683
        0.0000409698  -0.0000699414   0.0001490407  -0.0000959004  -0.0000144456
       -0.0001458554   0.0001005072   0.0000178876   0.0000116618  -0.0000272461
       -0.0000593169  -0.0000051061   0.0000028260   0.0000142832   0.0000057707
       -0.0000073384   0.0000007176  -0.0000003487   0.0000091916   0.0000004490
        0.0000032489   0.0000071544  -0.0000031393  -0.0000085681  -0.0000036590
        0.0000168960   0.0000389170  -0.0000131144   0.0000545122  -0.0000081145
        0.0000087588  -0.0000113580   0.0000087975   0.0000013923   0.0000007668
       -0.0000020607   0.0000010348  -0.0000002577  -0.0000051666  -0.0000026113
        0.0000077623  -0.0000072669   0.0000154247  -0.0000143718  -0.0000441915
        0.0000321881   0.0000735892   0.0000725884   0.0000482577   0.0000438645
        0.0000154396  -0.0001165105  -0.0000644824  -0.0002643497  -0.0004917018
       -0.0001899058   0.0004736848  -0.0001210605  -0.0000750436  -0.0004650358
        0.0001763785  -0.0000906909  -0.0003920112   0.0001561460  -0.0000731287
       -0.0003934115  -0.0002439013  -0.0000992538   0.0002948781   0.0003538745
       -0.0000779990  -0.0000150232   0.0000866326   0.0000563384  -0.0000047195
       -0.0000258790  -0.0000113516  -0.0000142439  -0.0000130472  -0.0000079644
       -0.0000019297  -0.0000225176  -0.0000042571   0.0000159836   0.0000081195
        0.0000030409  -0.0000038443  -0.0000147986  -0.0000056093   0.0000018539
        0.0000074123  -0.0000034135   0.0000040292  -0.0000026677   0.0000029385
       -0.0000022545  -0.0000022141   0.0000046130  -0.0000069782   0.0000006527
        0.0000016364   0.0000020963   0.0000011739  -0.0000055141  -0.0000000773
        0.0000019843   0.0000059789  -0.0000027556  -0.0000033583  -0.0000024749
       -0.0000026399   0.0000004289  -0.0000051058   0.0000003724   0.0000057784
       -0.0000034563   0.0000093099  -0.0000029356   0.0000043325  -0.0000158077
        0.0000032443   0.0000042130   0.0000154931   0.0000082030   0.0000032796
        0.0000203957  -0.0000140576   0.0000000423  -0.0000041239   0.0000110209
        0.0000111168   0.0000014727  -0.0000005533  -0.0000060384  -0.0000009433
        0.0000050291   0.0000015799  -0.0000006204  -0.0000009995   0.0000035374
        0.0000021315  -0.0000052336  -0.0000003318   0.0000054566   0.0000009712
       -0.0000046045   0.0000048395  -0.0000007826   0.0000026697  -0.0000010977
       -0.0000004742  -0.0000007199   0.0000004620   0.0000014519  -0.0000040735
        0.0000064477   0.0000003883  -0.0000049222   0.0000054983  -0.0000113225
        0.0000030712  -0.0000123044  -0.0000054299  -0.0000044107   0.0000139190
       -0.0000139032   0.0000030909   0.0000082799   0.0000197710   0.0000131793
        0.2184651181   0.1189039917   0.0671909039  -0.2057418551  -0.1128254677
       -0.0807518891  -0.0129133527  -0.0064033314   0.0130875555   0.0011957505
       -0.0023198601   0.0002336248  -0.0010590947   0.0002833415  -0.0014784047
        0.0004533466   0.0003760797   0.0002301336  -0.0005915694   0.0006405496
       -0.0016509238   0.0006394181   0.0017360218   0.0020104647  -0.0000438733
        0.0001682624  -0.0000015333  -0.0000144787  -0.0000516795  -0.0000043931
        0.0000335459  -0.0000183676  -0.0000080393  -0.0000964269   0.0000637734
       -0.0000008295   0.0000488594  -0.0000401872   0.0000110001  -0.0000139954
       -0.0000032272  -0.0000067671   0.0000220768  -0.0000047792   0.0000031748
       -0.0000067478  -0.0000397148   0.0000700047  -0.0000114614   0.0000428095
       -0.0000091583  -0.0000048484  -0.0000319990  -0.0000423999   0.0000253810
        0.0001752650   0.0000656941  -0.0001010470   0.0000186725   0.0000495245
        0.0001133575   0.0000791502   0.0000164528  -0.0000779031  -0.0000465815
       -0.0000116640  -0.0000012494   0.0000509393   0.0000322957  -0.0000381378
       -0.0000221123   0.0000384569   0.0000839594   0.0000493286   0.0000086013
       -0.0000831894  -0.0000504733  -0.0000004881   0.0000232175   0.0000065778
       -0.0000322155  -0.0000041495  -0.0000074602   0.0000103049  -0.0000030708
        0.0000051396  -0.0000019725  -0.0000013233  -0.0000000185   0.0000040233
        0.0000033705   0.0000018179   0.0000028208  -0.0000042078  -0.0000064158
        0.0000080605   0.0000033662   0.0000115764   0.0000256729  -0.0000045141
        0.0000010870  -0.0000071451   0.0000004128   0.0000037848   0.0000040966
       -0.0000005420  -0.0000017108   0.0000031505   0.0000004289  -0.0000046048
        0.0000045691  -0.0000068810  -0.0000028492  -0.0000077841  -0.0000281013
       -0.0000188679  -0.0000420987   0.0000497816  -0.0000265925  -0.0000294888
        0.0000392576  -0.0001022007  -0.0000319541  -0.0000357063   0.0000270147
        0.0000059632  -0.0000084637  -0.0000365072  -0.0000296196  -0.0000292697
        0.0000155790  -0.0000284054   0.0000608377  -0.0000388949  -0.0000052606
       -0.0000592390   0.0000385479   0.0000172940   0.0000091185  -0.0000122167
       -0.0000327177  -0.0000027956   0.0000030842   0.0000059845   0.0000031003
       -0.0000021684  -0.0000001142   0.0000004218   0.0000044998   0.0000021813
        0.0000029241   0.0000047091  -0.0000009404  -0.0000050518  -0.0000034992
        0.0000087180   0.0000118138  -0.0000021394   0.0000139787  -0.0000012093
        0.0000035607  -0.0000024056   0.0000033458  -0.0000011972   0.0000005798
       -0.0000026966   0.0000001557   0.0000007572  -0.0000020372  -0.0000011672
       -0.0000010789  -0.0000029753   0.0000061577  -0.0000027028  -0.0000165156
        0.0000134651   0.0000318751   0.0000303885   0.0000166929   0.0000196360
        0.0000040489  -0.0000480205  -0.0000204371  -0.0001136900  -0.0001801718
       -0.0001513426   0.0002020282  -0.0000668434   0.0000131734  -0.0001928417
       -0.0000972001   0.0003947468  -0.0001587202  -0.0000852503   0.0003496404
       -0.0001623859  -0.0000889551  -0.0000683905   0.0001112335  -0.0000852205
        0.0005097661  -0.0000064200   0.0000547740  -0.0000223867  -0.0000020725
       -0.0000091646  -0.0000053038  -0.0000051789  -0.0000079563   0.0000045169
       -0.0000018447  -0.0000071446  -0.0000075739  -0.0000007472   0.0000006951
        0.0000029478  -0.0000004685  -0.0000052087  -0.0000007751   0.0000005770
        0.0000036594  -0.0000011696   0.0000023060  -0.0000016525   0.0000029305
       -0.0000018835  -0.0000015046   0.0000016986  -0.0000018947   0.0000006232
        0.0000011550   0.0000014840  -0.0000002397  -0.0000004535  -0.0000001226
       -0.0000002370   0.0000024954  -0.0000009519  -0.0000033354  -0.0000011731
       -0.0000020230  -0.0000010521  -0.0000003380   0.0000005463   0.0000015079
       -0.0000000796   0.0000019189  -0.0000019012   0.0000017700  -0.0000076068
        0.0000018813   0.0000020249   0.0000031641   0.0000043651   0.0000001937
        0.0000104586  -0.0000056748  -0.0000011939  -0.0000023359   0.0000071035
        0.0000039639  -0.0000002411  -0.0000010127  -0.0000014534  -0.0000007533
        0.0000022541   0.0000003999   0.0000002431   0.0000003352   0.0000018898
        0.0000008433  -0.0000024941   0.0000007280   0.0000033867   0.0000003224
       -0.0000032669   0.0000005444  -0.0000008092   0.0000011585  -0.0000009973
       -0.0000001738  -0.0000013593   0.0000013287  -0.0000008228  -0.0000008807
        0.0000024304  -0.0000007526  -0.0000001480   0.0000025550  -0.0000038204
       -0.0000006478  -0.0000039455  -0.0000021007  -0.0000017321   0.0000093799
       -0.0000042877   0.0000015564   0.0000040306   0.0000101413  -0.0000018101
       -0.9316867888  -0.4887381302  -0.2057418551   1.1969230666   0.5943051307
        0.2508320475  -0.2114803905  -0.0811096186  -0.0344105365  -0.0523831768
       -0.0043950802  -0.0023913318  -0.0003702983   0.0074633227   0.0029130920
       -0.0042286303  -0.0015860010  -0.0007079251   0.0074486520   0.0024855411
        0.0009728871  -0.0068655834  -0.0293267525  -0.0118463379   0.0006857076
       -0.0016564758  -0.0006784694   0.0003291016   0.0004586250   0.0001727173
       -0.0005184666   0.0001485039   0.0000578322   0.0011484648  -0.0004589242
       -0.0001744374  -0.0006701031   0.0002499493   0.0000944064   0.0001311540
        0.0000052889  -0.0000010614  -0.0001946671  -0.0000343803  -0.0000169139
        0.0002513503   0.0003258981   0.0001305112  -0.0001594094  -0.0003062775
       -0.0000959297   0.0002805313   0.0003535420   0.0001682268  -0.0003395111
       -0.0012023805  -0.0005452553   0.0008695391  -0.0001925235  -0.0002137236
       -0.0008468383  -0.0005312287  -0.0001111858   0.0005618947   0.0003494897
        0.0000821271   0.0000094473  -0.0003956381  -0.0002655678   0.0002982643
        0.0001732412  -0.0002775743  -0.0006391827  -0.0003729815  -0.0000666177
        0.0006182179   0.0003640500   0.0000746491  -0.0001459475  -0.0000225391
        0.0002037531   0.0000428493   0.0000520695  -0.0000533507   0.0000276378
       -0.0000238272   0.0000223890   0.0000205948   0.0000010058   0.0000018955
       -0.0000355770  -0.0000018230   0.0000045011   0.0000258134   0.0000324565
       -0.0000544848  -0.0000442741  -0.0000916369  -0.0002220100   0.0000294331
       -0.0000042506   0.0000617824  -0.0000118733  -0.0000343821  -0.0000107356
        0.0000112353   0.0000153334   0.0000012066  -0.0000074502   0.0000326626
       -0.0000210591   0.0000530458   0.0000038877   0.0000660030   0.0002087340
        0.0001374623   0.0003194950  -0.0003766323   0.0001784916   0.0002181655
       -0.0003452395   0.0007085693   0.0002437904   0.0002771259  -0.0001882909
       -0.0000276546   0.0000233191   0.0002492483   0.0001814040   0.0002017314
       -0.0001159302   0.0001990583  -0.0004534114   0.0002827973   0.0000412684
        0.0004434425  -0.0002911332  -0.0000567396  -0.0000389691   0.0000783496
        0.0001771340   0.0000180697  -0.0000073135  -0.0000438913  -0.0000179959
        0.0000234442   0.0000062522   0.0000019808  -0.0000212990   0.0000002028
       -0.0000099202  -0.0000240105   0.0000128794   0.0000299398   0.0000055714
       -0.0000540669  -0.0001157307   0.0000304771  -0.0001551189   0.0000198802
       -0.0000299050   0.0000364909  -0.0000321763  -0.0000018809  -0.0000029160
        0.0000062797  -0.0000023099  -0.0000017092   0.0000104989   0.0000158338
       -0.0000183686   0.0000159665  -0.0000415976   0.0000431074   0.0001306047
       -0.0000978593  -0.0002190382  -0.0002232154  -0.0001338677  -0.0001448408
       -0.0000360408   0.0003395061   0.0001819364   0.0008047416   0.0014063280
        0.0006207339  -0.0014330211   0.0003501095   0.0001708483   0.0014259513
       -0.0001026251  -0.0000566679   0.0008646991  -0.0008248567  -0.0003890229
       -0.0008829239  -0.0003912656  -0.0001212501   0.0005049620   0.0018632286
        0.0008175712  -0.0000274174  -0.0000273363  -0.0000182745  -0.0000084040
        0.0001018577   0.0000403991   0.0000260989   0.0000772496   0.0000292538
        0.0000187058   0.0000876721   0.0000236739  -0.0000458738  -0.0000212835
        0.0000013341   0.0000129707   0.0000474315   0.0000185798  -0.0000057168
       -0.0000243419   0.0000110265  -0.0000105330   0.0000078415  -0.0000092045
        0.0000086238   0.0000066483  -0.0000108968   0.0000180482  -0.0000030661
       -0.0000030412  -0.0000056998  -0.0000031464   0.0000156579   0.0000026085
       -0.0000029862  -0.0000167906   0.0000105454   0.0000129028   0.0000072353
        0.0000085763  -0.0000012839   0.0000128296  -0.0000021945  -0.0000153859
        0.0000067364  -0.0000235185   0.0000088087  -0.0000128667   0.0000477696
       -0.0000109205  -0.0000079518  -0.0000415349  -0.0000263620  -0.0000085475
       -0.0000494490   0.0000329411   0.0000047034   0.0000052829  -0.0000272557
       -0.0000193820  -0.0000083013   0.0000064411   0.0000140980  -0.0000018743
       -0.0000094139  -0.0000039131  -0.0000007540   0.0000029360  -0.0000090743
       -0.0000069394   0.0000163385  -0.0000007231  -0.0000208019  -0.0000000193
        0.0000144786  -0.0000115052   0.0000048022  -0.0000091167   0.0000055042
        0.0000018164   0.0000023038  -0.0000022161  -0.0000031392   0.0000095317
       -0.0000172073   0.0000007458   0.0000072808  -0.0000110579   0.0000288627
       -0.0000083405   0.0000332047   0.0000177487   0.0000146447  -0.0000406699
        0.0000427154   0.0000018336  -0.0000167531  -0.0000602372  -0.0000301956
       -0.4887727027  -0.3012495128  -0.1128254677   0.5943051307   0.4269870102
        0.1466199048  -0.0825753782  -0.1025876732  -0.0206592388  -0.0047070800
        0.0107291772   0.0042562765   0.0065713127   0.0033809625  -0.0016538398
       -0.0016772340  -0.0023954863  -0.0008507650   0.0030525684  -0.0033222531
       -0.0049650118  -0.0279339715  -0.0302160277  -0.0122904575  -0.0008833197
       -0.0010946694  -0.0005579001   0.0000299249   0.0002187511   0.0000660581
       -0.0001300027   0.0001066901   0.0000411438   0.0004494335  -0.0002140686
       -0.0000859666  -0.0002502424   0.0001363354   0.0000622673   0.0000022205
        0.0000351991   0.0000026583  -0.0001673166  -0.0000904831  -0.0000277582
        0.0000513006  -0.0002508676   0.0000377800   0.0000975697  -0.0001924040
       -0.0000966736   0.0000903658   0.0001811163   0.0000268479  -0.0001244372
       -0.0006825396  -0.0003150960   0.0004501387  -0.0001162314  -0.0000948496
       -0.0004593309  -0.0003230642  -0.0000711378   0.0003151018   0.0001977169
        0.0000390230   0.0000054671  -0.0002216763  -0.0001443071   0.0001637889
        0.0000963740  -0.0001533082  -0.0003530064  -0.0002058532  -0.0000339887
        0.0003398250   0.0001993185   0.0000420904  -0.0000801840  -0.0000106530
        0.0001091221   0.0000225000   0.0000294463  -0.0000288276   0.0000141446
       -0.0000114878   0.0000121561   0.0000110724  -0.0000008216   0.0000005640
       -0.0000186233  -0.0000012074   0.0000007011   0.0000127142   0.0000148658
       -0.0000301950  -0.0000253215  -0.0000512414  -0.0001230379   0.0000165151
       -0.0000008493   0.0000338766  -0.0000055593  -0.0000189932  -0.0000055735
        0.0000053468   0.0000082219   0.0000005272  -0.0000028884   0.0000189658
       -0.0000114996   0.0000295755   0.0000028877   0.0000362616   0.0001191957
        0.0000747576   0.0001784419  -0.0002087775   0.0001037324   0.0001222682
       -0.0001899854   0.0004277296   0.0001524067   0.0001622135  -0.0001100205
       -0.0000165474   0.0000151599   0.0001460911   0.0001081936   0.0001201639
       -0.0000689048   0.0001179565  -0.0002573937   0.0001621730   0.0000252377
        0.0002509081  -0.0001683471  -0.0000308825  -0.0000198072   0.0000454018
        0.0000972018   0.0000080437  -0.0000019077  -0.0000259356  -0.0000103609
        0.0000127195   0.0000035664   0.0000021617  -0.0000128687  -0.0000014495
       -0.0000068598  -0.0000117999   0.0000070432   0.0000169624   0.0000031087
       -0.0000308589  -0.0000654190   0.0000199924  -0.0000894988   0.0000124137
       -0.0000204198   0.0000210311  -0.0000180954  -0.0000004962  -0.0000039753
        0.0000036382  -0.0000043214   0.0000002952   0.0000081879   0.0000103911
       -0.0000095937   0.0000123705  -0.0000247799   0.0000237532   0.0000731607
       -0.0000587311  -0.0001251987  -0.0001278562  -0.0000769366  -0.0000815506
       -0.0000215188   0.0002008738   0.0001047190   0.0004648633   0.0008671730
        0.0002889345  -0.0008240549   0.0002685936   0.0001587216   0.0010279333
       -0.0004011307   0.0006163524   0.0018026879  -0.0003304007   0.0008160649
        0.0008524646   0.0004005798   0.0001944950  -0.0009737803  -0.0005169590
        0.0010660269  -0.0000219906  -0.0001305979  -0.0000716367   0.0000148539
        0.0000539166   0.0000199738   0.0000129014  -0.0000019280   0.0000116763
        0.0000133460   0.0000456318   0.0000118863  -0.0000238352  -0.0000112433
       -0.0000018534   0.0000067193   0.0000265765   0.0000091921  -0.0000022590
       -0.0000135808   0.0000056267  -0.0000058805   0.0000037483  -0.0000042847
        0.0000051495   0.0000038619  -0.0000053967   0.0000101653  -0.0000017341
       -0.0000013134  -0.0000021095  -0.0000018098   0.0000090558   0.0000016579
       -0.0000024799  -0.0000079253   0.0000060285   0.0000070043   0.0000040070
        0.0000049086  -0.0000012885   0.0000070286  -0.0000013483  -0.0000096437
        0.0000040438  -0.0000124192   0.0000040737  -0.0000080144   0.0000267926
       -0.0000057702  -0.0000050147  -0.0000241296  -0.0000155136  -0.0000059535
       -0.0000323722   0.0000208376   0.0000011393   0.0000033720  -0.0000156434
       -0.0000129571  -0.0000044626   0.0000024650   0.0000091807  -0.0000008922
       -0.0000051913  -0.0000028072  -0.0000010109   0.0000013343  -0.0000045486
       -0.0000042285   0.0000084259   0.0000001619  -0.0000128504  -0.0000005831
        0.0000080419  -0.0000083171   0.0000026068  -0.0000046273   0.0000017048
        0.0000008738   0.0000014591  -0.0000023917  -0.0000013205   0.0000046292
       -0.0000102282  -0.0000004082   0.0000053081  -0.0000089513   0.0000175159
       -0.0000057299   0.0000183164   0.0000102882   0.0000065194  -0.0000241493
        0.0000232827  -0.0000026092  -0.0000201274  -0.0000339749  -0.0000238355
       -0.2057825827  -0.1128423964  -0.0807518891   0.2508320475   0.1466199048
        0.1398651026  -0.0350377616  -0.0206329070  -0.0624172253  -0.0024639238
        0.0042366223   0.0017390181   0.0025455967  -0.0016417366   0.0070132897
       -0.0006846594  -0.0008282492  -0.0007066364   0.0012210827  -0.0049655490
        0.0070537910  -0.0113721709  -0.0123421192  -0.0054618516  -0.0003448573
       -0.0005476321   0.0000223969   0.0000101639   0.0000723228   0.0000742010
       -0.0000563276   0.0000399340   0.0000174942   0.0001784972  -0.0000890637
       -0.0000194262  -0.0000996694   0.0000638318  -0.0000016768   0.0000033803
        0.0000111952   0.0000274738  -0.0000677179  -0.0000295074  -0.0000336414
        0.0000283250   0.0000420951  -0.0003415738   0.0000406469  -0.0001192887
        0.0000515323   0.0000256384   0.0000210921   0.0001620959  -0.0000486288
       -0.0002951396  -0.0001276845   0.0001964073  -0.0000180822  -0.0001114174
       -0.0001897488  -0.0001339060  -0.0000330119   0.0001385958   0.0000795202
        0.0000316957   0.0000017556  -0.0000919156  -0.0000616280   0.0000699393
        0.0000426255  -0.0000688745  -0.0001530817  -0.0000875603  -0.0000163267
        0.0001465354   0.0000881010   0.0000101644  -0.0000364086  -0.0000087933
        0.0000522943   0.0000101750   0.0000119495  -0.0000159109   0.0000075176
       -0.0000069040   0.0000055466   0.0000051601  -0.0000005875   0.0000000866
       -0.0000103966  -0.0000003676   0.0000023150   0.0000078095   0.0000066727
       -0.0000162421  -0.0000087672  -0.0000215253  -0.0000504351   0.0000049604
       -0.0000013501   0.0000114723  -0.0000034205  -0.0000074617  -0.0000021475
        0.0000038922   0.0000065671  -0.0000001718  -0.0000010622   0.0000084131
       -0.0000040004   0.0000137142   0.0000012045   0.0000121754   0.0000489855
        0.0000342528   0.0000762365  -0.0000928438   0.0000417113   0.0000553937
       -0.0000832200   0.0001882081   0.0000417107   0.0000737276  -0.0000487908
       -0.0000128367   0.0000104713   0.0000617287   0.0000522739   0.0000481299
       -0.0000284910   0.0000510442  -0.0001097112   0.0000694151   0.0000128817
        0.0001076729  -0.0000673455  -0.0000249067  -0.0000133108   0.0000168908
        0.0000520634   0.0000063001  -0.0000038702  -0.0000121436  -0.0000046438
        0.0000047779   0.0000045406   0.0000003627  -0.0000053151   0.0000008475
       -0.0000028507  -0.0000074269   0.0000056209   0.0000047752   0.0000001997
       -0.0000157981  -0.0000249720   0.0000018803  -0.0000303602   0.0000034478
       -0.0000062889   0.0000103489  -0.0000077325  -0.0000017215   0.0000018393
        0.0000014371   0.0000008709  -0.0000000516   0.0000021869   0.0000029082
       -0.0000021549   0.0000048900  -0.0000087904   0.0000100873   0.0000294793
       -0.0000218038  -0.0000543887  -0.0000537913  -0.0000323872  -0.0000336691
       -0.0000099137   0.0000819911   0.0000547537   0.0001932119   0.0002713835
        0.0003563049  -0.0003706565   0.0001500691  -0.0000166049   0.0004442767
        0.0006209817  -0.0017321317   0.0007300183   0.0008357990  -0.0021554571
        0.0003311791   0.0001613810   0.0000716870  -0.0003550059   0.0010706455
       -0.0026789755  -0.0000090055  -0.0000661872   0.0000021128   0.0000051538
        0.0000189720   0.0000142695   0.0000059188   0.0000129542  -0.0000260162
        0.0000053889   0.0000175637   0.0000083397  -0.0000157525  -0.0000085122
       -0.0000003396   0.0000030186   0.0000118547   0.0000032218  -0.0000014608
       -0.0000063352   0.0000023938  -0.0000027127   0.0000018720  -0.0000046884
        0.0000021981   0.0000009197  -0.0000066102   0.0000052992  -0.0000007172
       -0.0000030392  -0.0000015768  -0.0000005514   0.0000031223   0.0000007465
        0.0000004346  -0.0000064293   0.0000028308   0.0000034791  -0.0000013068
        0.0000005945   0.0000006616   0.0000017213  -0.0000009583  -0.0000016057
        0.0000007924  -0.0000068520   0.0000021772  -0.0000028281   0.0000123926
       -0.0000026178  -0.0000035259  -0.0000118028  -0.0000088976  -0.0000039172
       -0.0000116207   0.0000066488   0.0000012915   0.0000034653  -0.0000084449
       -0.0000049797  -0.0000029408   0.0000013789   0.0000068356  -0.0000003356
       -0.0000041512   0.0000006427   0.0000017371  -0.0000012382  -0.0000021795
       -0.0000006486   0.0000035846  -0.0000002384  -0.0000044070  -0.0000014261
        0.0000045364  -0.0000027006   0.0000016621  -0.0000015805   0.0000011334
        0.0000014489   0.0000007990  -0.0000008623   0.0000003700   0.0000038114
       -0.0000044704   0.0000024220   0.0000034859  -0.0000033376   0.0000068839
        0.0000009202   0.0000063005   0.0000043853   0.0000027438  -0.0000082576
        0.0000088590  -0.0000017893  -0.0000090317  -0.0000207206   0.0000098985
       -0.0377562570  -0.0306680414  -0.0129133527  -0.2114803905  -0.0825753782
       -0.0350377616   0.6330434254   0.0115383723   0.0103671397  -0.2287560619
        0.1139631557   0.0438353658  -0.0712004460  -0.0290217753  -0.0124305608
       -0.0037558086   0.0273438162   0.0110306801   0.0186532622  -0.0187888198
       -0.0074121362  -0.0820362529  -0.0091309285  -0.0041165179  -0.0042684925
       -0.0052955510  -0.0022514190  -0.0014064423   0.0016935390   0.0006953053
       -0.0000467337  -0.0009531380  -0.0003772232  -0.0005193874   0.0001355265
        0.0000542230   0.0002942616  -0.0000804006  -0.0000328439   0.0008569532
        0.0002819409   0.0001122451  -0.0004413448   0.0004546479   0.0001909219