$hessian                                                                        
        0.3354663314   0.0259354051   0.0086718103  -0.2032492763  -0.0358720747
       -0.0007143329  -0.0401165956  -0.0098586518   0.0105957315  -0.0004790353
       -0.0010009730  -0.0030527802   0.0000430972   0.0002599302  -0.0012960576
        0.0002196050  -0.0001868030  -0.0003341695  -0.0014780199   0.0011872469
       -0.0004846241  -0.0000054100   0.0003286739   0.0003674863   0.0000349085
        0.0000829478   0.0000386675  -0.0000190870  -0.0000322636   0.0001367838
       -0.0001564847   0.0000888717  -0.0000444603  -0.0000025885   0.0000339277
       -0.0000045048   0.0000510173  -0.0000296770   0.0000169682   0.0000089216
       -0.0001332032  -0.0000458765   0.0000607345   0.0000024846   0.0000218536
        0.0000310065   0.0000078443  -0.0000222837  -0.0000686417  -0.0000394679
        0.0000059168   0.0000034492  -0.0000094071   0.0000308240  -0.0000093606
       -0.0000054103   0.0000093670   0.0000167831   0.0000154733  -0.0000167323
       -0.0000039209  -0.0000169542  -0.0000182838  -0.0000362647  -0.0000073887
        0.0000253081  -0.0000570174   0.0000406366  -0.0000117133  -0.0000492379
        0.0001807345  -0.0000065915   0.0000569271   0.0000291075   0.0000170830
        0.0000269111  -0.0000252599  -0.0000032594  -0.0001345077  -0.0001035038
        0.0000071532  -0.0001044286   0.0000872679  -0.0000327789  -0.0000512558
       -0.0001232922  -0.0001573383  -0.0031936000   0.0025375417   0.0060166936
       -0.0497039639   0.0407790738  -0.0145814101  -0.0362933807  -0.0156244853
       -0.0090636047  -0.0025146743  -0.0078403956   0.0030126118   0.0007959415
       -0.0002747112   0.0005113676   0.0001028775  -0.0000333608   0.0001788577
       -0.0001160258  -0.0001570345   0.0002873288   0.0000894764   0.0001636980
       -0.0001238232   0.0000332877   0.0000198525  -0.0000157969  -0.0000103616
       -0.0000136399  -0.0000213929  -0.0000315717  -0.0000027578   0.0000073693
        0.0000210338   0.0000029511   0.0000152882  -0.0000049136   0.0000091203
       -0.0000065353  -0.0000077370  -0.0000012218  -0.0000042669   0.0000007838
       -0.0000012234   0.0000001086   0.0000064559  -0.0000012682  -0.0000099826
        0.0000170452   0.0000012570  -0.0000140101   0.0000281805  -0.0000056404
       -0.0000126821  -0.0000368874   0.0000030659   0.0000028535  -0.0000246983
        0.0000324856   0.0000039031   0.0000175269   0.0000457650   0.0000135472
        0.0000174127  -0.0001240505  -0.0000042990   0.0008092327  -0.0003512430
        0.0001087083
        0.0259354051   0.4971290632  -0.1265971385  -0.0637992650  -0.0885980178
        0.0103780338   0.0076634026   0.0069176082  -0.0002377485   0.0006434604
        0.0006432679  -0.0018038234  -0.0000868986   0.0002801235   0.0005118651
        0.0005041970   0.0000965667   0.0002482669   0.0004919409  -0.0005633981
       -0.0003713146   0.0000685348  -0.0000411558  -0.0000017787   0.0000038806
       -0.0000472761   0.0000166107  -0.0000559207   0.0000332488   0.0000383669
       -0.0000258080   0.0000119507  -0.0000061453  -0.0000030289   0.0000510365
       -0.0000084869   0.0000287950   0.0000040393   0.0000126909  -0.0000255957
       -0.0000059868  -0.0000039784   0.0000029213   0.0000000015   0.0000010062
       -0.0000154867  -0.0000030046  -0.0000039788  -0.0000051842   0.0000030405
        0.0000025538  -0.0000036153  -0.0000056082   0.0000048333  -0.0000026794
        0.0000037449   0.0000043154  -0.0000037323  -0.0000004468   0.0000001746
       -0.0000140803   0.0000008470  -0.0000012293   0.0000069577  -0.0000189299
        0.0000033992  -0.0000064106   0.0000031727  -0.0000035886  -0.0000070189
        0.0000080683  -0.0000013071   0.0000095828   0.0000229202   0.0000095473
        0.0000159759  -0.0000104924   0.0000043470  -0.0000138094   0.0000058480
        0.0000007183  -0.0000151241   0.0000277563  -0.0000084820   0.0000286722
        0.0000210093  -0.0000306316   0.0007568877  -0.0005414458  -0.0006520425
        0.0713381847  -0.3923575417   0.1182180441  -0.0119187373  -0.0013664380
       -0.0042741822  -0.0327700272  -0.0216221360   0.0044900554   0.0008010493
        0.0000513234   0.0001852936  -0.0000195119   0.0000529797   0.0000922236
        0.0000466263  -0.0000092849   0.0000131791   0.0000588908  -0.0000583130
       -0.0000530149   0.0000361923   0.0000185334  -0.0000110413   0.0000143321
       -0.0000002002  -0.0000040107  -0.0000000538   0.0000004592  -0.0000083708
       -0.0000040225  -0.0000044221   0.0000051588  -0.0000033174  -0.0000037697
        0.0000071838  -0.0000029188  -0.0000040280   0.0000049402   0.0000024928
       -0.0000079519   0.0000015245   0.0000033085  -0.0000080041   0.0000034283
        0.0000038587   0.0000021261   0.0000027280   0.0000035049  -0.0000048780
        0.0000000885  -0.0000046160  -0.0000082198   0.0000011111  -0.0000110015
        0.0000008824   0.0000010242  -0.0000125736   0.0000029638  -0.0000010145
       -0.0000194293  -0.0000081126   0.0000039869   0.0003808132  -0.0000935191
       -0.0001833910
        0.0086718103  -0.1265971385   0.0866103448   0.0023093328   0.0103414364
       -0.0495995533   0.0222438445   0.0054387891  -0.0014377441   0.0012564642
        0.0004340513  -0.0004723849   0.0002549430   0.0004962874   0.0010686140
        0.0002703197   0.0000191172   0.0002370616   0.0007702919  -0.0005223659
        0.0002759077   0.0000332140  -0.0001392121  -0.0001256510   0.0000275235
       -0.0000779478  -0.0000142434  -0.0000162702   0.0000475942   0.0000077710
        0.0000811446  -0.0000603181   0.0000427255   0.0000040512  -0.0000024265
        0.0000033156  -0.0000200747   0.0000036667  -0.0000094723   0.0000139705
        0.0000984384   0.0000281872  -0.0000235512  -0.0000055955   0.0000045435
       -0.0000252559   0.0000004543   0.0000063481   0.0000416072   0.0000399091
       -0.0000030825  -0.0000130802   0.0000050662  -0.0000090285   0.0000083195
        0.0000020164  -0.0000009294  -0.0000135272  -0.0000102166   0.0000039751
       -0.0000150555   0.0000038340   0.0000098846   0.0000253183  -0.0000034409
       -0.0000069926   0.0000311781  -0.0000284570   0.0000110700   0.0000330809
       -0.0000923368  -0.0000270968  -0.0000223002  -0.0000088901   0.0000063636
       -0.0000142377   0.0000001018   0.0000193540   0.0000759947   0.0000622096
        0.0000006823  -0.0000180108  -0.0000331763   0.0000516296   0.0000597670
        0.0000439907   0.0000563850   0.0012809171  -0.0014440942  -0.0023822078
       -0.0238771479   0.1165045962  -0.0390637297  -0.0257840887  -0.0122663639
        0.0042167869   0.0111288582   0.0071221295   0.0001338273   0.0007545988
        0.0004182016   0.0004061969  -0.0000609451   0.0000668261   0.0000449632
        0.0001765462   0.0000405332  -0.0000837093  -0.0000522856  -0.0000938560
       -0.0000234752  -0.0000206944   0.0000267677  -0.0000075899   0.0000216887
        0.0000272303   0.0000077121   0.0000293772   0.0000076929  -0.0000045726
       -0.0000139593  -0.0000107481  -0.0000067649   0.0000079129  -0.0000077118
        0.0000067254   0.0000090365   0.0000002929   0.0000021417   0.0000022583
        0.0000056614  -0.0000024576  -0.0000025027   0.0000006231  -0.0000002905
       -0.0000063943   0.0000030718   0.0000053742  -0.0000155404   0.0000034073
       -0.0000038986   0.0000293127  -0.0000070857   0.0000037064   0.0000233438
       -0.0000215967  -0.0000038530  -0.0000109007  -0.0000163159  -0.0000151868
       -0.0000118525   0.0000720545  -0.0000263040   0.0003616489   0.0001132431
        0.0000586216
       -0.2032492763  -0.0637992650   0.0023093328   0.4375468790  -0.0163817831
        0.0271575120  -0.0998315226   0.0418683148   0.0430261548   0.0076820919
       -0.0022322643   0.0009518194  -0.0006730741  -0.0012856809  -0.0022307391
       -0.0004568191   0.0003525929   0.0006068934  -0.0031251369  -0.0009234791
       -0.0015536451  -0.0007869616   0.0005259564   0.0004657379   0.0000088815
        0.0000120849  -0.0000374088   0.0001757984  -0.0000174139  -0.0000434811
        0.0001093320  -0.0000220904   0.0000439511  -0.0000160630  -0.0000587359
       -0.0000133080  -0.0000612277   0.0000056056  -0.0000243533   0.0000699580
        0.0000674282   0.0000473501  -0.0000765256  -0.0000053399  -0.0000076872
        0.0000264911   0.0000053479  -0.0000020881   0.0000347475   0.0000251962
       -0.0000091658   0.0000124242   0.0000107917  -0.0000248306  -0.0000003285
        0.0000022529  -0.0000123057   0.0000042698  -0.0000047113   0.0000087042
        0.0000300234   0.0000001194   0.0000049521  -0.0000042178   0.0000140741
       -0.0000153404   0.0000311829  -0.0000412264   0.0000128450   0.0000082159
       -0.0000063341  -0.0000627109  -0.0000559996  -0.0000676534  -0.0000195321
       -0.0000161797   0.0000354545  -0.0000031383   0.0000879702   0.0000379127
        0.0000063004   0.0001180864  -0.0000552869   0.0000419105  -0.0001793103
       -0.0000807453   0.0000646091  -0.0258089045   0.0139741302   0.0144656349
        0.0001311097  -0.0059001633   0.0021461954  -0.0675057398  -0.0001192653
       -0.0724614737  -0.0442497149   0.0341625011  -0.0147569880  -0.0004752230
       -0.0005741238  -0.0007656044   0.0003494589  -0.0004320820  -0.0008772289
        0.0001613604  -0.0000028033  -0.0001154805  -0.0001711696   0.0000163278
        0.0000047781  -0.0000518662   0.0000012168   0.0000164875  -0.0000132080
        0.0000078523   0.0000105903   0.0000093699  -0.0000073311   0.0000069851
       -0.0000127522  -0.0000063604  -0.0000026225  -0.0000009898  -0.0000044261
       -0.0000033950   0.0000019819   0.0000024996  -0.0000060802  -0.0000050659
        0.0000004051  -0.0000036680  -0.0000085618   0.0000034634  -0.0000014278
       -0.0000032933   0.0000000154   0.0000008718  -0.0000182852   0.0000118185
       -0.0000055441   0.0000088317   0.0000167594   0.0000176246   0.0000126225
       -0.0000070062  -0.0000069206  -0.0000136904  -0.0000110373  -0.0000071031
       -0.0000686914   0.0000172969   0.0000029074   0.0003187115   0.0008691897
        0.0016531237
       -0.0358720747  -0.0885980178   0.0103414364  -0.0163817831   0.4750477787
       -0.0161673377   0.0371684477  -0.0933271866  -0.0404188282   0.0071358475
       -0.0100248265  -0.0137657671  -0.0011529657   0.0041969296  -0.0047942086
       -0.0002547771  -0.0009187543  -0.0009434594   0.0001844627   0.0066473358
       -0.0014978486  -0.0005934436  -0.0000968578  -0.0001336625   0.0000033856
        0.0001335975   0.0001254930   0.0000902157   0.0000499619  -0.0000298789
       -0.0000331852  -0.0000930805  -0.0000667133   0.0001453365  -0.0001481325
        0.0000640309  -0.0000342881   0.0001675067  -0.0000187988  -0.0000360837
       -0.0000660465   0.0000032541  -0.0000397742   0.0000105593  -0.0000262529
        0.0000270970   0.0000025488   0.0000312608   0.0000090951   0.0000090620
       -0.0000086082   0.0000105517  -0.0000002165  -0.0000130722  -0.0000061706
        0.0000018781   0.0000026638   0.0000038433  -0.0000030308   0.0000070863
       -0.0000000741  -0.0000000368   0.0000018610   0.0000166319   0.0000015080
       -0.0000037971   0.0000007122  -0.0000174592  -0.0000005176  -0.0000107881
        0.0000273373  -0.0000323331  -0.0000223463  -0.0001120107   0.0000035775
        0.0000774739   0.0000687432   0.0000254223  -0.0000430592   0.0000618469
       -0.0000426547  -0.0000605757  -0.0000342944   0.0000294547  -0.0000123781
        0.0000071866  -0.0000531487   0.0050801491  -0.0003730018  -0.0021758624
       -0.0354541313  -0.0166272349   0.0019101721  -0.0013172479  -0.0434785071
       -0.0038291764   0.0422255302  -0.2281512730   0.0681486986   0.0000751264
       -0.0015216378   0.0012413752   0.0004087303  -0.0004180649  -0.0003823596
       -0.0001824247  -0.0010509997   0.0008260309   0.0000279234   0.0000504901
        0.0000479366  -0.0000272829   0.0000126183  -0.0000082037  -0.0000089594
        0.0000097816   0.0000116927   0.0000045131   0.0000118719  -0.0000112233
       -0.0000016376   0.0000024990  -0.0000007066   0.0000078306  -0.0000018217
        0.0000026507   0.0000064646   0.0000054367   0.0000002364  -0.0000035841
        0.0000022772  -0.0000018431  -0.0000021771   0.0000038973   0.0000000551
       -0.0000020134   0.0000009310  -0.0000020088  -0.0000077300   0.0000057132
       -0.0000002215   0.0000175691   0.0000030814  -0.0000089329   0.0000217458
       -0.0000083768   0.0000057736   0.0000147401  -0.0000114088  -0.0000108819
        0.0000472092   0.0000454847   0.0000150505  -0.0012496769  -0.0015055856
        0.0016030946
       -0.0007143329   0.0103780338  -0.0495995533   0.0271575120  -0.0161673377
        0.4730210419   0.0440367242  -0.0446394938  -0.1149665423   0.0127822738
       -0.0165895183  -0.0211591275  -0.0027098533  -0.0050263351  -0.0008882831
        0.0001113003  -0.0000501484  -0.0004546420  -0.0027138275  -0.0020089536
        0.0025188356   0.0004218695   0.0001983220   0.0002543101  -0.0000887584
       -0.0000397983  -0.0000987285  -0.0000409905  -0.0000391643  -0.0000121114
       -0.0000229075   0.0000909026   0.0000203712  -0.0000563340   0.0000681173
       -0.0000325893   0.0000420864  -0.0001100977  -0.0000025944   0.0000299474
       -0.0000222538  -0.0000407473   0.0001030019  -0.0000043541   0.0000303008
        0.0000120601   0.0000094123  -0.0000332985  -0.0000372414  -0.0000570016
        0.0000112567   0.0000059751   0.0000024622   0.0000149426   0.0000021567
       -0.0000018018  -0.0000022075   0.0000083145   0.0000113786  -0.0000076061
        0.0000051505  -0.0000016669  -0.0000208048  -0.0000182886   0.0000010471
        0.0000095105  -0.0000181462   0.0000472456  -0.0000214227  -0.0000040303
        0.0000426664   0.0000249733   0.0000541057   0.0000744334   0.0000077692
       -0.0000350138  -0.0000540757  -0.0000205447  -0.0000153300  -0.0001010431
        0.0000247618  -0.0000969868   0.0000117021  -0.0000398815  -0.0000578232
        0.0000022733  -0.0001150087   0.0037143408   0.0000308339   0.0019194651
        0.0107968605   0.0036518586  -0.0037884495  -0.0743565433  -0.0035022754
       -0.2173059729  -0.0184474879   0.0712957224  -0.0678066138   0.0010594163
        0.0010221831  -0.0005648955   0.0006639733  -0.0005153965  -0.0007267155
       -0.0000288042   0.0006656408  -0.0002501647   0.0000252712   0.0000167813
       -0.0000217545   0.0000253274  -0.0000259844   0.0000114655  -0.0000157270
       -0.0000245140  -0.0000195419  -0.0000396420  -0.0000127677   0.0000321068
        0.0000036882   0.0000156016  -0.0000013506  -0.0000088441   0.0000111392
       -0.0000074315  -0.0000022490   0.0000006139  -0.0000019393  -0.0000018740
       -0.0000006475   0.0000011038   0.0000067603  -0.0000010468  -0.0000019620
        0.0000071564   0.0000012007  -0.0000028123   0.0000103430  -0.0000135043
        0.0000071935  -0.0000331348   0.0000082529   0.0000153466  -0.0000152672
        0.0000245301   0.0000024809   0.0000181428   0.0000337881   0.0000200986
        0.0000497741  -0.0000181576  -0.0000333916  -0.0015740944   0.0013111949
        0.0001013546
       -0.0401165956   0.0076634026   0.0222438445  -0.0998315226   0.0371684477
        0.0440367242   0.6399840623  -0.0231377727   0.0466095234  -0.1242446112
       -0.0160480227  -0.0361927768   0.0559000820  -0.0107365146  -0.0071178883
       -0.0367249049  -0.0126692445  -0.0270193761  -0.0540164359   0.0405521482
        0.0534591274   0.0052565451   0.0026010243   0.0026155037  -0.0003583241
       -0.0009869534  -0.0019475573   0.0000865715   0.0004207343  -0.0000147225
        0.0008830033   0.0004742605   0.0004623613  -0.0008880349   0.0010647990
       -0.0003753395   0.0001415002  -0.0014134261   0.0001842178   0.0003084824
        0.0009207735  -0.0002459695   0.0005078340  -0.0001436583   0.0001606361
       -0.0003188906   0.0000082311  -0.0001893861   0.0001209863  -0.0000778844
        0.0000675404  -0.0001075248  -0.0000117671   0.0000109786   0.0000644758
        0.0000166030  -0.0000159219  -0.0000642896   0.0000395170  -0.0000316964
        0.0000042946  -0.0000039001   0.0000082192   0.0000167860   0.0000037882
       -0.0000137598   0.0001693320   0.0000628503  -0.0000043399   0.0002233346
       -0.0006154929  -0.0000090989   0.0002135666   0.0012623628  -0.0001115688
       -0.0011072813  -0.0008936561  -0.0002201372   0.0008972643  -0.0006291424
        0.0000920205  -0.0008165319   0.0003963069  -0.0001651684  -0.0015347197
        0.0015891856   0.0012942290  -0.3152738778  -0.0188288044  -0.0709117825
        0.0004652768  -0.0002236078  -0.0007089502   0.0053973169  -0.0030023763
       -0.0047986821  -0.0051333514   0.0097976743   0.0052811128  -0.0147001997
       -0.0142446314  -0.0239641184  -0.0013534263   0.0028675453   0.0026914936
       -0.0001272041  -0.0006564702  -0.0004569509  -0.0004049681  -0.0006381924
        0.0001578353   0.0000157303   0.0000184361   0.0000225570   0.0000440234
        0.0000245118  -0.0000479174  -0.0000027182  -0.0000235548   0.0000981878
       -0.0000179833  -0.0000064243  -0.0000010639  -0.0000034233   0.0000019720
        0.0000111745   0.0000029756  -0.0000056146  -0.0000020212   0.0000002854
        0.0000031200  -0.0000000566  -0.0000040277   0.0000001826  -0.0000021930
       -0.0000076220   0.0000008374   0.0000045014  -0.0000097297   0.0000015287
       -0.0000094492   0.0000085818   0.0000092430   0.0001090444   0.0000134049
       -0.0000337284   0.0000067503  -0.0000198795  -0.0000159937   0.0000160960
       -0.0002604449   0.0001069386  -0.0000937949  -0.0132771931  -0.0020295915
       -0.0049719919
       -0.0098586518   0.0069176082   0.0054387891   0.0418683148  -0.0933271866
       -0.0446394938  -0.0231377727   0.2886172090   0.2140854596  -0.0565412364
       -0.1120766779  -0.1050574819   0.0194404253  -0.0207839153  -0.0281337926
       -0.0152189059  -0.0057075984  -0.0043875771   0.0096309666   0.0059343570
        0.0107627837   0.0043457998   0.0036945653  -0.0038696321   0.0009518069
       -0.0003419409  -0.0003397209  -0.0002341083  -0.0002752316   0.0001086315
        0.0002912098   0.0002416038   0.0000579435  -0.0004318275   0.0003852533
       -0.0000944287   0.0001656075  -0.0005812789   0.0001006195   0.0000797222
        0.0005522666   0.0000976299   0.0002345333  -0.0000515620   0.0000019326
       -0.0001564634  -0.0000228797   0.0000892752   0.0000478930  -0.0000504125
        0.0000212138  -0.0000144292  -0.0000272802   0.0000150623   0.0000211243
       -0.0000076374   0.0000210325  -0.0000398274   0.0000068894  -0.0000263033
        0.0000047818  -0.0000039788  -0.0000117595  -0.0000155711  -0.0000012785
        0.0000097968   0.0000189451   0.0000604814  -0.0000289194   0.0001005041
       -0.0001302884   0.0002701843   0.0000408928   0.0006153592  -0.0000574037
       -0.0005309569  -0.0004274309  -0.0000523845   0.0003968922  -0.0003394387
       -0.0000367615  -0.0003699617   0.0001914663  -0.0001479028  -0.0009610337
        0.0005122699   0.0008034462   0.0241785564  -0.0593626649  -0.0150087522
       -0.0002650317   0.0015502392   0.0016627977   0.0013762188  -0.0020700398
       -0.0040096444   0.0176552113  -0.0191208461  -0.0175742040  -0.0016375725
        0.0009794340  -0.0007762771   0.0026067912   0.0042085862  -0.0053066245
       -0.0003975766   0.0001986047   0.0001768531  -0.0003007461   0.0000206849
        0.0000769640  -0.0000069618  -0.0000301738   0.0000007799  -0.0000098579
       -0.0000092415   0.0000030937   0.0000151098   0.0000136089  -0.0000723084
        0.0000061122   0.0000050702   0.0000032061  -0.0000000712   0.0000008886
       -0.0000032394  -0.0000069151   0.0000042162   0.0000028775  -0.0000051472
       -0.0000035842   0.0000056549   0.0000015497   0.0000027801   0.0000052916
        0.0000068909   0.0000056679  -0.0000029376   0.0000031357   0.0000004396
        0.0000065186  -0.0000107437   0.0000393052  -0.0001135179  -0.0000176280
        0.0000082759   0.0000317711   0.0000030256   0.0000149278   0.0000048818
        0.0000279488  -0.0001201710   0.0000274457  -0.0133509721   0.0000906793
       -0.0041408687
        0.0105957315  -0.0002377485  -0.0014377441   0.0430261548  -0.0404188282
       -0.1149665423   0.0466095234   0.2140854596   0.4785654852  -0.1001216305
       -0.0980500500  -0.2160531840   0.0414700903  -0.0335963749  -0.0440142133
       -0.0294798658  -0.0037088579  -0.0180933190   0.0073680089   0.0184321335
        0.0286549128   0.0045122427  -0.0050335432   0.0002717517  -0.0006868847
       -0.0002662593  -0.0012998376   0.0001255037   0.0002292187   0.0001359950
        0.0004903877   0.0003708906   0.0001882059  -0.0005545737   0.0005856831
       -0.0002365193   0.0000020898  -0.0008579212   0.0000992368   0.0001187787
        0.0004477808  -0.0002416863   0.0003329068  -0.0001675517   0.0001037719
       -0.0001849102   0.0000081947  -0.0001031379   0.0000514367  -0.0000712254
        0.0000524582  -0.0000565843  -0.0000093195   0.0000207757   0.0000341970
        0.0000053794  -0.0000013463  -0.0000317181   0.0000259545  -0.0000235002
        0.0000089775  -0.0000069190  -0.0000073255  -0.0000167189  -0.0000003100
        0.0000040695   0.0000802012   0.0000724706  -0.0000123892   0.0002033415
       -0.0006746984   0.0001793784   0.0002364131   0.0007065686  -0.0000867954
       -0.0006897967  -0.0004507887  -0.0001620077   0.0005093311  -0.0004367762
       -0.0000107514  -0.0004595072   0.0005605310  -0.0000951125   0.0008147890
        0.0006260760   0.0014478951  -0.0089476821  -0.0238297876  -0.0846284383
        0.0002679499   0.0001402793   0.0008772597   0.0128819131  -0.0185023342
       -0.0245146176  -0.0010331307   0.0003020078   0.0052860954  -0.0053471847
       -0.0030995756  -0.0042418229   0.0021956725  -0.0052106093   0.0003566986
       -0.0006037342   0.0000937483   0.0002283986   0.0001092849   0.0001496907
        0.0001007010  -0.0000110534  -0.0000225202  -0.0000043964  -0.0000043023
       -0.0000011580  -0.0000400473  -0.0000366890  -0.0000385537   0.0000768956
       -0.0000032508   0.0000082603  -0.0000035959  -0.0000078020   0.0000117747
        0.0000012881  -0.0000027795   0.0000003461  -0.0000025091  -0.0000015840
       -0.0000024746  -0.0000020614   0.0000022120  -0.0000029761  -0.0000029684
        0.0000056966   0.0000001145   0.0000016508   0.0000002898  -0.0000090080
       -0.0000071935   0.0000180343  -0.0000160929   0.0000261499  -0.0000093967
       -0.0000037264   0.0000426062  -0.0000031794   0.0000076814   0.0000439907
        0.0000147978  -0.0000853696  -0.0000380235  -0.0237919973  -0.0020588860
       -0.0064345846
       -0.0004790353   0.0006434604   0.0012564642   0.0076820919   0.0071358475
        0.0127822738  -0.1242446112  -0.0565412364  -0.1001216305   0.6653969446
       -0.0508467080   0.0233506219  -0.1790321502   0.0943583249   0.1204087071
       -0.0519884487   0.0105573589   0.0096700365   0.0088011370   0.0040860951
        0.0087979060  -0.0047045183   0.0000146418  -0.0007705929   0.0003976292
        0.0009586618   0.0012025239   0.0002733320   0.0002683831   0.0000396154
       -0.0006204018  -0.0004732428  -0.0002006732   0.0008567999  -0.0007088275
        0.0002084099  -0.0001346366   0.0010382707  -0.0001264540  -0.0000918573
       -0.0006774003   0.0000481814  -0.0003921271  -0.0000325541  -0.0000542509
        0.0002677004   0.0000035043   0.0000188232  -0.0001046800   0.0000770111
       -0.0000558599   0.0000633970   0.0000261020  -0.0000101511  -0.0000546243
        0.0000008925  -0.0000109814   0.0000645729  -0.0000201144   0.0000346529
       -0.0000004203   0.0000069590   0.0000026731  -0.0000094132   0.0000036246
        0.0000089644  -0.0001133303  -0.0000768850   0.0000265234  -0.0000487014
        0.0007129376  -0.0000997235  -0.0001389755  -0.0010561278   0.0000692083
        0.0008508455   0.0007284731   0.0000248708  -0.0006405228   0.0004192565
        0.0000081019   0.0001091452  -0.0001348743   0.0000359502   0.0008087427
       -0.0008419439  -0.0010390384  -0.0222193228  -0.0134213572  -0.0275682793
        0.0004205958   0.0000288770   0.0000792156  -0.0017626264   0.0022601915
        0.0029970421  -0.0004283233   0.0006304199   0.0010935205  -0.2932308063
        0.0040698010  -0.0426882935   0.0060530991  -0.0042524769  -0.0064255689
       -0.0056001605   0.0007686046  -0.0012601768  -0.0000995318  -0.0001087154
       -0.0000354214  -0.0000140005  -0.0000201777   0.0000002988   0.0000058129
       -0.0000106263   0.0000326615  -0.0000014173   0.0000041754   0.0000319960
        0.0000061075  -0.0000108424   0.0000090151  -0.0000036132  -0.0000055357
       -0.0000048817  -0.0000023892   0.0000007201  -0.0000015520  -0.0000013048
        0.0000034169   0.0000015053   0.0000008482   0.0000043215   0.0000005822
        0.0000056379   0.0000047478  -0.0000033822   0.0000084868   0.0000118938
       -0.0000069960   0.0000079834  -0.0000069398  -0.0000027374   0.0000167125
        0.0000100402  -0.0000253646  -0.0000167994   0.0000246749   0.0000017261
       -0.0001716684   0.0000939216  -0.0000430344  -0.0057472041   0.0002909749
       -0.0016870276
       -0.0010009730   0.0006432679   0.0004340513  -0.0022322643  -0.0100248265
       -0.0165895183  -0.0160480227  -0.1120766779  -0.0980500500  -0.0508467080
        0.2761971799   0.2396920786   0.0523134101  -0.1153607161  -0.0968211719
        0.0442180505   0.0079181891   0.0173033926   0.0036008474  -0.0217023564
       -0.0245330961  -0.0000328214  -0.0002848363   0.0003306292  -0.0000205888
       -0.0002664177   0.0000171529  -0.0001990571  -0.0001765043  -0.0001588653
        0.0000453176   0.0000491462  -0.0000099777  -0.0000754527  -0.0000390282
        0.0000982432   0.0000254349   0.0000554946   0.0000100407   0.0000246160
       -0.0000620899   0.0000665778  -0.0000088033   0.0001262773  -0.0000391140
       -0.0000194703   0.0000043951   0.0000711791   0.0000225849   0.0000145599
       -0.0000110338   0.0000068873  -0.0000091394  -0.0000086030  -0.0000004994
       -0.0000058255   0.0000088224  -0.0000162673  -0.0000070644  -0.0000049627
       -0.0000023559   0.0000025052   0.0000023081   0.0000050225   0.0000048700
       -0.0000016795   0.0000025832  -0.0000062349  -0.0000020945  -0.0000392770
       -0.0001086984   0.0000343061  -0.0000477788   0.0000637310  -0.0000119630
        0.0000192015  -0.0000435470   0.0000992276  -0.0000034768   0.0000919446
       -0.0000461856   0.0002553125  -0.0001977120  -0.0000809305  -0.0000514824
       -0.0001606322   0.0000490346  -0.0445526576   0.0080667965   0.0023813947
        0.0001549750  -0.0000843778  -0.0004500626   0.0011828726  -0.0004334423
       -0.0016464866   0.0001309099   0.0005803433  -0.0009724585   0.0038868762
       -0.0368832464  -0.0040008935   0.0080368552  -0.0077624825  -0.0110835426
        0.0004660588   0.0059802720  -0.0030393456  -0.0000547867   0.0000383814
        0.0000266744  -0.0000055040   0.0000162339  -0.0000057269   0.0000004833
        0.0000100026   0.0000184168   0.0000144628   0.0000099322  -0.0000460717
       -0.0000017282  -0.0000062691  -0.0000031581   0.0000056479  -0.0000085776
       -0.0000023355   0.0000005953   0.0000037798   0.0000029440  -0.0000011859
        0.0000076239   0.0000065608  -0.0000019791   0.0000060188   0.0000047078
       -0.0000015073   0.0000091883   0.0000019423  -0.0000049186   0.0000071554
        0.0000060070   0.0000180953   0.0000078553  -0.0000502491   0.0000115224
       -0.0000022066  -0.0000085576   0.0000098991  -0.0000054518  -0.0000301641
        0.0000568192   0.0000554336   0.0000388325   0.0007542250   0.0057477829
       -0.0029962262
       -0.0030527802  -0.0018038234  -0.0004723849   0.0009518194  -0.0137657671
       -0.0211591275  -0.0361927768  -0.1050574819  -0.2160531840   0.0233506219
        0.2396920786   0.4828321078   0.0530700912  -0.0883753094  -0.1721587274
        0.0592415235   0.0122317918   0.0302715148   0.0082590553  -0.0242943562
       -0.0414880696  -0.0007083275  -0.0001592544  -0.0001290664   0.0001075530
       -0.0002510583   0.0003002610  -0.0003742525  -0.0003245052  -0.0001248949
       -0.0000365171   0.0000225924  -0.0000989029   0.0000298283  -0.0001911531
        0.0001883968   0.0000318232   0.0002639345  -0.0000143666   0.0000456223
       -0.0002163204   0.0001142377  -0.0000793883   0.0002041658  -0.0000942460
        0.0000099450   0.0000011651   0.0001496290   0.0000187255   0.0000410186
       -0.0000266244   0.0000270790  -0.0000075027  -0.0000094456  -0.0000114868
       -0.0000083496   0.0000150567  -0.0000157152  -0.0000208921  -0.0000007376
       -0.0000119682  -0.0000023180  -0.0000011876   0.0000095209  -0.0000039529
        0.0000000631  -0.0000202467  -0.0000267986  -0.0000077633  -0.0000796633
       -0.0000254502   0.0000269524  -0.0001028125  -0.0000967161   0.0000088672
        0.0001879213   0.0000516539   0.0002028024  -0.0001267885   0.0002435257
       -0.0000863316   0.0004804230  -0.0004253391   0.0000218765  -0.0000245053
       -0.0004018627  -0.0000792435  -0.0738844389   0.0081162730   0.0003855322
       -0.0000321308  -0.0001655623   0.0004931315   0.0016296110  -0.0018399224
       -0.0025488062  -0.0007811421   0.0004766879  -0.0007858739  -0.0425191685
       -0.0040333563  -0.0477827588   0.0135327075  -0.0140566011  -0.0174379293
       -0.0016721032  -0.0028170085   0.0028802468  -0.0002435697   0.0000006470
        0.0000681730  -0.0000165156   0.0000060977  -0.0000349058  -0.0000009296
        0.0000129675   0.0000202644   0.0000277575   0.0000218417  -0.0000825486
       -0.0000072899  -0.0000057791   0.0000106685   0.0000058758  -0.0000069268