$hessian                                                                        
        0.5214111021  -0.0061244290  -0.0011610925  -0.0615117680  -0.0092093188
       -0.0023075773   0.0014519793   0.0014271487   0.0004523131  -0.0050714558
       -0.0248819900  -0.0011569697  -0.0004794938  -0.0004537484   0.0005869250
        0.0003765359   0.0009833690   0.0004500781   0.0000577489  -0.0002564576
        0.0002075147  -0.0000198733   0.0003025946   0.0011563648  -0.0026497854
       -0.0008195541   0.0012135943  -0.0016625148   0.0009319273  -0.0015871898
        0.0000999245  -0.0001307489  -0.0007912193   0.0001594750   0.0001809245
       -0.0001103966   0.0002537411  -0.0009980508  -0.0001801379   0.0000759818
        0.0000486420  -0.0000610504   0.0000834468  -0.0000112664   0.0000127107
       -0.0000307331  -0.0000208941  -0.0000433653  -0.0000772615  -0.0000131471
        0.0000134828   0.0000788172   0.0000043963  -0.0000067997  -0.0000384148
       -0.0000178498   0.0000037883   0.0000268485  -0.0000063223   0.0000068462
       -0.0000018623  -0.0000028921   0.0000028980  -0.0000036546  -0.0000025919
        0.0000018597  -0.0000035542   0.0000033310   0.0000025996  -0.0000017866
        0.0000006824   0.0000014760   0.0000048885  -0.0000010189   0.0000006445
       -0.0000091647  -0.0000070741  -0.0000016920  -0.0000034942   0.0000143656
        0.0000047538   0.0000024911  -0.0000137006  -0.0000069546   0.0000021406
        0.0000138886   0.0000072365  -0.0000039603  -0.0000141463  -0.0000041204
       -0.0000084922   0.0000073737   0.0000043435   0.0000042650   0.0000031104
        0.0000001989  -0.0000037505  -0.0000003606   0.0000007939  -0.0000028865
       -0.0000021704  -0.0000037240   0.0000267540   0.0000140827  -0.0000100335
       -0.0000368370   0.0000182866  -0.0000033254   0.0000345446   0.0000558039
        0.0000125602  -0.0000539861   0.0000099908   0.0000604674  -0.0004936726
        0.0005585211  -0.0007580493   0.0001352261   0.0196860241   0.0011386829
       -0.1736593421   0.0824992097  -0.0865632165  -0.0461702232   0.0037847711
        0.0173797257  -0.2325946396  -0.0678031902   0.0717871932   0.0002040160
       -0.0005580345  -0.0001255490   0.0005093196   0.0001802198   0.0004270002
        0.0003497621   0.0007479051   0.0001458696  -0.0002091223  -0.0005514312
       -0.0002814557  -0.0000589379  -0.0000745857  -0.0000402496   0.0000193471
       -0.0001611274  -0.0001191969  -0.0001547705  -0.0000792087   0.0001656603
       -0.0000824454   0.0000765945  -0.0001584931   0.0000041482   0.0000700447
        0.0000462981  -0.0000198901   0.0000081007   0.0000115770  -0.0000005605
       -0.0000013729   0.0000036733  -0.0000050714  -0.0000001890  -0.0000004075
       -0.0000031627  -0.0000015080  -0.0000011944  -0.0000009697  -0.0000013042
       -0.0000003052   0.0000015998  -0.0000015797  -0.0000006789   0.0000005149
        0.0000011950   0.0000002435   0.0000006243  -0.0000004680  -0.0000002291
        0.0000010883   0.0000020869   0.0000005115  -0.0000011586   0.0000009527
       -0.0000001492  -0.0000023182   0.0000024962   0.0000004974  -0.0000022787
       -0.0000016756   0.0000022646  -0.0000003864  -0.0000037647  -0.0000013161
       -0.0000044487  -0.0000158627  -0.0000191051  -0.0002382030   0.0006049949
        0.0001925967
       -0.0061244290   0.4402823642  -0.0113931598  -0.0082978349  -0.1782439571
       -0.0226680784  -0.0006537953  -0.0139030337  -0.0076329967  -0.0096302945
       -0.0165672069   0.0026545755   0.0013729647  -0.0001283364  -0.0000244183
       -0.0001907802   0.0000574495   0.0007795991  -0.0000150739   0.0000989382
       -0.0001218370  -0.0000822370   0.0000385034   0.0006402575  -0.0012823394
       -0.0001271105  -0.0007938472   0.0016382082  -0.0005170909  -0.0002563611
       -0.0000566747  -0.0000115828   0.0007205697   0.0000005109   0.0000741522
       -0.0001449642  -0.0000335035   0.0003396092   0.0008446826  -0.0002160502
        0.0000051775  -0.0000154312   0.0002217483  -0.0001136285   0.0001276187
       -0.0001149606   0.0000665243  -0.0000129260   0.0000822777   0.0000080496
        0.0000050566  -0.0000456869   0.0000013050  -0.0000034905   0.0000374064
        0.0000261878   0.0000160978  -0.0000293767   0.0000260249  -0.0000173978
        0.0000631842  -0.0000007776  -0.0000072956  -0.0000324043  -0.0000013289
        0.0000046785   0.0000024247   0.0000026213  -0.0000055919  -0.0000150038
       -0.0000049068  -0.0000025810   0.0000073471  -0.0000141820  -0.0000015227
       -0.0000106226  -0.0000065298  -0.0000081986  -0.0000031650   0.0000357052
        0.0000208379   0.0000159487  -0.0000311963  -0.0000228426   0.0000179094
        0.0000312206   0.0000206459  -0.0000119851  -0.0000365025  -0.0000219675
       -0.0000113516   0.0000273453   0.0000127998   0.0000055115   0.0000127601
        0.0000022513  -0.0000140217   0.0000006604   0.0000052400   0.0000005203
       -0.0000058841   0.0000049452  -0.0000223213  -0.0000252275   0.0000216602
        0.0000355809  -0.0000296999  -0.0000172625  -0.0000656785  -0.0000381605
       -0.0000108807   0.0001414414  -0.0000167780  -0.0001007977  -0.0013156488
       -0.0001128049  -0.0000880371   0.0060385243  -0.0217659613   0.0039163242
        0.0817199144  -0.0928154665   0.0546407294   0.0037740089  -0.0517723197
       -0.0464677062  -0.0670388825  -0.0652172068   0.0257766784   0.0000697631
        0.0006902313   0.0009884819   0.0001016584  -0.0004426785  -0.0019841722
       -0.0001738865   0.0005823112   0.0009142164   0.0003287477  -0.0001089741
       -0.0000798861   0.0000155434  -0.0000297682  -0.0000103931   0.0000144696
       -0.0000767686  -0.0000784715  -0.0000583782   0.0000170879   0.0000571393
        0.0000686510   0.0000053521   0.0001012549   0.0000168749  -0.0000719737
       -0.0000577131   0.0000103564  -0.0000482426  -0.0000139329  -0.0000006120
       -0.0000102706  -0.0000067085  -0.0000010896  -0.0000139892  -0.0000025282
        0.0000007939  -0.0000004199   0.0000001936   0.0000009497   0.0000030431
        0.0000038193  -0.0000034895   0.0000037876   0.0000033346  -0.0000031217
       -0.0000017741   0.0000005282  -0.0000036358   0.0000005782   0.0000009629
       -0.0000041202  -0.0000052023  -0.0000020461   0.0000012527  -0.0000041682
       -0.0000029623   0.0000004372  -0.0000016752   0.0000000644  -0.0000019262
        0.0000115027   0.0000039188  -0.0000024028   0.0000057599   0.0000073475
        0.0000005483   0.0000474798   0.0000057242  -0.0002386940  -0.0001789472
       -0.0002238282
       -0.0011610925  -0.0113931598   0.5211178457  -0.0015959074  -0.0137792257
       -0.0574114810  -0.0015244710  -0.0297683378  -0.0109020689   0.0023833644
        0.0088848484   0.0009268416   0.0000580891   0.0004272653   0.0000881961
       -0.0000181322  -0.0002714179  -0.0003002288  -0.0000495114   0.0000098316
       -0.0000188057   0.0000392728  -0.0001754820  -0.0004740418   0.0007006011
        0.0006540665  -0.0008101422  -0.0007029151   0.0008685961  -0.0012196843
        0.0000051283  -0.0001172201  -0.0005830137   0.0001217411   0.0000336922
       -0.0000215872   0.0000970136  -0.0005575470  -0.0002939421   0.0000438486
       -0.0000051990   0.0000001003  -0.0000841268   0.0000652225  -0.0000536329
        0.0000802603  -0.0000305620   0.0000157055  -0.0000824293  -0.0000084039
       -0.0000035553   0.0000500425  -0.0000014559   0.0000042533  -0.0000233680
       -0.0000030343   0.0000000534   0.0000078742   0.0000174299   0.0000027344
        0.0000201506   0.0000026270  -0.0000005490  -0.0000486541  -0.0000026084
        0.0000011392   0.0000272787  -0.0000311228  -0.0000029858  -0.0000150092
        0.0000013348   0.0000030718   0.0000126139  -0.0000137854  -0.0000062753
       -0.0000070825  -0.0000240462  -0.0000060383   0.0000075509   0.0000231529
        0.0000061821  -0.0000014819  -0.0000251637  -0.0000067828  -0.0000039521
        0.0000255680   0.0000073713   0.0000116670  -0.0000221800  -0.0000067598
       -0.0000082706   0.0000190473   0.0000058622   0.0000107361   0.0000161431
        0.0000051907  -0.0000157406  -0.0000022167  -0.0000024750   0.0000254476
        0.0000338130   0.0000009935   0.0000074905  -0.0000194034  -0.0000040477
       -0.0000229968   0.0000028888   0.0000022214   0.0000289228   0.0000127391
        0.0000091783  -0.0000331672   0.0000349046   0.0000177648  -0.0001568884
        0.0006275567  -0.0000856250  -0.0009621502   0.0132514831   0.0008453192
       -0.0865158124   0.0553748014  -0.1021110651   0.0173786597  -0.0466271008
       -0.2732333533   0.0718834341   0.0263139984  -0.0716119734   0.0002896216
       -0.0008324673   0.0010178548   0.0003537893  -0.0028790769  -0.0059664178
       -0.0005506163  -0.0006120785   0.0009473497  -0.0001858413   0.0000597590
        0.0000323709  -0.0000024078   0.0000216009   0.0000161247   0.0000043145
        0.0000789698   0.0000635890   0.0000460582   0.0000517181  -0.0000630842
       -0.0000364794   0.0000611340  -0.0001063928  -0.0000070965   0.0000698702
        0.0000596990  -0.0000023636   0.0000082841  -0.0000002949   0.0000067338
       -0.0000036575   0.0000020181  -0.0000029058  -0.0000027586   0.0000009809
        0.0000041063  -0.0000008573  -0.0000000421   0.0000008198   0.0000065181
        0.0000035838  -0.0000051467   0.0000045160   0.0000029472  -0.0000062172
       -0.0000006052   0.0000000850  -0.0000063644   0.0000005992   0.0000005845
       -0.0000057486  -0.0000048764  -0.0000024688   0.0000009350  -0.0000070529
       -0.0000038918   0.0000044058   0.0000009754  -0.0000001746  -0.0000030974
        0.0000028986  -0.0000009148   0.0000056575   0.0000051227  -0.0000021883
        0.0000010869  -0.0000093652  -0.0000002643   0.0001287279   0.0001584920
        0.0001090364
       -0.0615117680  -0.0082978349  -0.0015959074   0.4541285617   0.0055609213
       -0.0060090503  -0.0612675498   0.0021051831   0.0076572711  -0.1525482968
       -0.0408249457   0.0444223548  -0.0250141783  -0.0083431901   0.0093063077
       -0.0026168194   0.0022723048  -0.0023747974  -0.0001575653  -0.0002087084
        0.0002806910   0.0002688054   0.0004433170  -0.0004538492  -0.0011123368
       -0.0093197197   0.0098912027   0.0042349054   0.0034128135  -0.0035592046
       -0.0003817755  -0.0011490101   0.0011704325  -0.0002565675   0.0001862646
       -0.0002884083  -0.0038057032  -0.0014572002   0.0016460798  -0.0007085508
        0.0007169526  -0.0007776525   0.0003333174  -0.0001121411   0.0001138958
       -0.0001543984   0.0001317896  -0.0000913066   0.0002565293   0.0000154672
       -0.0000108366  -0.0002143895  -0.0000041682   0.0000023295   0.0000982902
        0.0000667548  -0.0000315836  -0.0000811775   0.0000375046  -0.0000100575
        0.0000644830   0.0000019459  -0.0000022723   0.0000143754   0.0000002597
       -0.0000008343  -0.0000190018   0.0000237643   0.0000084999  -0.0000023164
       -0.0000042287  -0.0000017537  -0.0000056214  -0.0000033924  -0.0000003250
        0.0000020343  -0.0000071573  -0.0000026802  -0.0000007575   0.0000111778
        0.0000029297   0.0000161622  -0.0000011012   0.0000010449   0.0000162611
        0.0000020976  -0.0000020984   0.0000002602  -0.0000112233  -0.0000036777
        0.0000019523   0.0000060187   0.0000022295  -0.0000056355   0.0000028615
        0.0000012917  -0.0000030822   0.0000040216   0.0000024772  -0.0000173691
       -0.0000257374  -0.0000070120  -0.0000751761  -0.0000426748   0.0000176952
        0.0001037346  -0.0000587738   0.0000206868  -0.0001722399  -0.0000205272
       -0.0000255328  -0.0001761998   0.0000276275  -0.0000364489  -0.0210694965
        0.0134096304  -0.0143801504  -0.1225547950   0.0449897128  -0.0484451550
        0.0005204353   0.0220958038   0.0021652618   0.0001143631   0.0017319632
        0.0001522820  -0.0042585656  -0.0271914969  -0.0027369941   0.0004314135
       -0.0038994874  -0.0217885980   0.0001200818  -0.0003553183  -0.0019141578
       -0.0041409291   0.0049270337   0.0268835281   0.0010179609  -0.0005039901
        0.0005324868  -0.0007150134  -0.0005245264   0.0004951209   0.0000455263
        0.0000509922  -0.0000546179   0.0000002217   0.0001512380  -0.0001995979
        0.0001071617  -0.0002998207   0.0003908040   0.0000148086  -0.0000165935
        0.0000293531  -0.0000000621  -0.0000219796   0.0000060089  -0.0000013920
       -0.0000007051  -0.0000090201   0.0000007970  -0.0000011719  -0.0000036967
        0.0000018203   0.0000015539  -0.0000004135   0.0000010337   0.0000012339
       -0.0000003780  -0.0000006289   0.0000012793  -0.0000000895  -0.0000006136
       -0.0000006407   0.0000000759  -0.0000006845   0.0000002528   0.0000004764
       -0.0000004706  -0.0000016755   0.0000005165   0.0000011479  -0.0000013546
        0.0000004746   0.0000020266  -0.0000014142  -0.0000000191   0.0000009569
        0.0000010815   0.0000041988   0.0000011744  -0.0000008558   0.0000082661
       -0.0000424789   0.0000264796  -0.0000002923   0.0011730041   0.0002954622
       -0.0003978044
       -0.0092093188  -0.1782439571  -0.0137792257   0.0055609213   0.4725062833
       -0.0368942784   0.0029981880  -0.0611105331  -0.0320972092  -0.0311712180
       -0.0752065357   0.0205887403   0.0005073135   0.0026070263  -0.0043160873
        0.0025579253   0.0046073855   0.0028946376   0.0004307131  -0.0006469804
        0.0005222295   0.0007786368   0.0008583656   0.0052978775  -0.0115292158
       -0.0116922973   0.0162500839   0.0055859619  -0.0139621925   0.0186106204
       -0.0014533584   0.0007016200   0.0045344695  -0.0005607731  -0.0003459505
       -0.0000320316  -0.0023633667   0.0056408041   0.0025651922   0.0000821312
        0.0003102503   0.0000804990   0.0002958563  -0.0005427396   0.0003553286
       -0.0003685858   0.0004944050   0.0000095845   0.0006262713   0.0000710790
       -0.0000299045  -0.0005689925  -0.0000179915   0.0000196294   0.0002909588
        0.0002920912  -0.0000685786  -0.0001896415   0.0001128664  -0.0000304825
        0.0002175741   0.0000082303  -0.0000105877  -0.0000841488  -0.0000077311
        0.0000018263   0.0000046397  -0.0000118141  -0.0000068940  -0.0000217694
        0.0000090386   0.0000070623   0.0000023145  -0.0000283570  -0.0000073451
        0.0000031099  -0.0000317713  -0.0000113573   0.0000088458   0.0000451868
        0.0000191091   0.0000175887  -0.0000271228  -0.0000089215   0.0000117991
        0.0000285588   0.0000066112   0.0000138470  -0.0000429567  -0.0000189598
        0.0000021155   0.0000332665   0.0000101315  -0.0000014806   0.0000299817
        0.0000080439  -0.0000246675  -0.0000111115  -0.0000051380   0.0000102330
        0.0000166800   0.0000075760  -0.0001745161  -0.0001289777   0.0000484261
        0.0003192691  -0.0002682687   0.0000268774  -0.0004361855  -0.0005034468
        0.0000008948   0.0001291544   0.0002000521  -0.0006114956   0.0052005997
        0.0000417098  -0.0015216204   0.0349464189  -0.0889174436   0.0349802483
        0.0019492319  -0.0209102535   0.0001319592  -0.0005096138  -0.0105299408
       -0.0047020596  -0.0049701545  -0.0158486587  -0.0001345950  -0.0002403199
        0.0023480909   0.0120062445   0.0018836482  -0.0088522499  -0.0285331361
       -0.0009147017   0.0016587276   0.0073471637   0.0001806869  -0.0012661886
       -0.0014891075   0.0005400846   0.0002211791  -0.0001329972   0.0000815644
       -0.0007236019  -0.0007398473  -0.0006496192  -0.0005262343   0.0004356602
        0.0004416411  -0.0005158835   0.0005420697   0.0000069413  -0.0005074877
       -0.0005354951   0.0000246100  -0.0001530290  -0.0000610296   0.0000016537
       -0.0000348335  -0.0000224671  -0.0000032193  -0.0000145959  -0.0000122090
        0.0000015855   0.0000011844  -0.0000001229   0.0000026688   0.0000082202
        0.0000046348  -0.0000066779   0.0000058511   0.0000028569  -0.0000068349
       -0.0000024525  -0.0000001368  -0.0000067792   0.0000017672   0.0000003748
       -0.0000071339  -0.0000072299  -0.0000028583   0.0000031503  -0.0000108511
       -0.0000055785   0.0000037913  -0.0000014827   0.0000005346  -0.0000022671
        0.0000158854   0.0000169372  -0.0000011473   0.0000329042   0.0000295009
       -0.0000095941   0.0001866312   0.0000792508  -0.0002383436  -0.0014421699
       -0.0016211291
       -0.0023075773  -0.0226680784  -0.0574114810  -0.0060090503  -0.0368942784
        0.4776264137   0.0086551997  -0.0231631954  -0.1744960292   0.0338489258
        0.0205397633  -0.0785093939  -0.0002817592  -0.0042140659   0.0032521558
       -0.0027294652   0.0027879321   0.0043145665  -0.0005259920   0.0005941218
       -0.0008036250  -0.0007667641   0.0052946799   0.0000569321   0.0124357754
        0.0162361005  -0.0141863424  -0.0063782031   0.0183991204  -0.0165666836
        0.0017361036   0.0045307543  -0.0000094803   0.0002226300  -0.0000236649
       -0.0003017717   0.0026764120   0.0028762109   0.0049080456   0.0000397314
        0.0003955210  -0.0000852430  -0.0005168345   0.0000935838  -0.0005008944
        0.0004123128   0.0001105350   0.0002842445  -0.0004728853  -0.0000554884
        0.0001236207   0.0003905362   0.0000395755  -0.0000501247  -0.0001468778
       -0.0001069348   0.0000753265   0.0001341612  -0.0000669053   0.0000267597
       -0.0000670744  -0.0000031364   0.0000027956  -0.0000688740  -0.0000072279
       -0.0000001364   0.0000174031  -0.0000360976   0.0000050640   0.0000343594
        0.0000344863   0.0000110912  -0.0000009279   0.0000299383   0.0000096324
        0.0000100480   0.0000531999   0.0000191638  -0.0000090301  -0.0000745555
       -0.0000311203  -0.0000540950   0.0000465561   0.0000167895  -0.0000540392
       -0.0000515819  -0.0000108572  -0.0000141643   0.0000750850   0.0000312609
        0.0000144115  -0.0000519986  -0.0000187706  -0.0000000351  -0.0000285920
       -0.0000086546   0.0000344554  -0.0000295321  -0.0000144126   0.0000210309
        0.0000429578  -0.0000025131   0.0001182630   0.0000843843  -0.0000365372
       -0.0001616185   0.0000794636  -0.0000777826   0.0005349645   0.0001584407
       -0.0005670175  -0.0005068516  -0.0009462085   0.0007839337  -0.0056692288
       -0.0017536683   0.0006404931  -0.0371569826   0.0350514348  -0.0943900133
        0.0001265751   0.0137298625   0.0013617523  -0.0019808318  -0.0284138066
       -0.0061701478   0.0013530070   0.0089274084   0.0010892502  -0.0020029335
       -0.0017119323  -0.0218000609   0.0002981914  -0.0048461749  -0.0078509864
        0.0050340482  -0.0015894439  -0.0165657688  -0.0002152755  -0.0014801688
       -0.0010478233  -0.0005870059  -0.0001438298   0.0002217444  -0.0000972666
       -0.0007352864  -0.0006065639   0.0007048549   0.0004331562  -0.0005738331
       -0.0005072945   0.0005410620  -0.0006167190   0.0001336338  -0.0005294698
       -0.0004196730  -0.0000294019  -0.0000250104  -0.0000709543  -0.0000005359
        0.0000018872  -0.0000036882   0.0000037368   0.0000100024   0.0000061687
       -0.0000114832  -0.0000059047   0.0000008559  -0.0000029756  -0.0000135388
       -0.0000035743   0.0000078630  -0.0000089024  -0.0000016681   0.0000077483
        0.0000014376   0.0000006662   0.0000084021  -0.0000011872  -0.0000000391
        0.0000072519   0.0000088736   0.0000017972  -0.0000030891   0.0000113669
        0.0000038225  -0.0000094087   0.0000056316   0.0000004761   0.0000028860
       -0.0000057827  -0.0000011798  -0.0000059413  -0.0000034750   0.0000094333
       -0.0000715632   0.0000589569   0.0000809740   0.0003984142  -0.0015943667
       -0.0011536651
        0.0014519793  -0.0006537953  -0.0015244710  -0.0612675498   0.0029981880
        0.0086551997   0.5214952940   0.0015172857   0.0057846166  -0.0050907990
        0.0031144907   0.0247530746  -0.0004355837  -0.0005663087   0.0004896310
        0.0003502214  -0.0005746647  -0.0009080506   0.0000181843  -0.0001614737
        0.0002307589   0.0000098080  -0.0011684252  -0.0002231487  -0.0026923454
       -0.0010900784   0.0008820277  -0.0016876789   0.0013959530  -0.0009933512
        0.0000993047   0.0008699317   0.0001101754   0.0000838868   0.0000745712
       -0.0001533161   0.0002547969   0.0004101490   0.0008696490   0.0000855632
        0.0000581220  -0.0000572421   0.0000785704  -0.0000435620   0.0000592326
       -0.0000322579   0.0000308146   0.0000098375  -0.0000964919  -0.0000140830
        0.0000208801   0.0000834201   0.0000085716  -0.0000094223  -0.0000360477
       -0.0000128457   0.0000269271   0.0000249685  -0.0000048511   0.0000035950
       -0.0000063850  -0.0000037155   0.0000027984  -0.0000105278  -0.0000015711
        0.0000025489   0.0000044990  -0.0000069819  -0.0000038294  -0.0000003035
        0.0000034638   0.0000031024   0.0000038687  -0.0000000551   0.0000013590
       -0.0000049843  -0.0000002111   0.0000004944  -0.0000010004   0.0000019353
        0.0000001899  -0.0000052893  -0.0000061616  -0.0000040517  -0.0000052533
        0.0000056291   0.0000050133  -0.0000027456  -0.0000023458  -0.0000001086
       -0.0000046437   0.0000012656   0.0000019082   0.0000046278   0.0000012268
       -0.0000009633  -0.0000014282  -0.0000037862  -0.0000010546   0.0000036993
        0.0000074289   0.0000010355   0.0000259082   0.0000136667  -0.0000061470
       -0.0000384059   0.0000111976  -0.0000244131   0.0000404678   0.0000024432
       -0.0000630009  -0.0000705119  -0.0000379812  -0.0000231360  -0.0004184745
        0.0005935739  -0.0005689877   0.0000544581  -0.0026093388  -0.0197320102
        0.0001998391   0.0001723914   0.0005456144   0.0005038916  -0.0004697232
       -0.0001614650   0.0003564388  -0.0002020476  -0.0007342564  -0.1731005321
        0.0803262576  -0.0886011245  -0.0464042059  -0.0191579146  -0.0025791747
       -0.2330974840  -0.0649998259   0.0738612180  -0.0002010574   0.0003284282
        0.0005252547  -0.0000588366   0.0000529819   0.0000788951   0.0000211898
        0.0001338923   0.0001537727  -0.0001554257  -0.0001572875   0.0000923927
       -0.0000848452   0.0001498399  -0.0000948748   0.0000211327  -0.0000892781
       -0.0001007328  -0.0000221888  -0.0000227868  -0.0000089881  -0.0000018256
       -0.0000035704  -0.0000040437  -0.0000038063  -0.0000020790  -0.0000021480
       -0.0000030406  -0.0000015792  -0.0000013335  -0.0000011242  -0.0000017727
       -0.0000004569   0.0000015480  -0.0000019391  -0.0000008551   0.0000005437
        0.0000010569   0.0000001889   0.0000006912  -0.0000007509  -0.0000004864
        0.0000015181   0.0000022401   0.0000004350  -0.0000011961   0.0000018167
        0.0000001459  -0.0000026889   0.0000023779   0.0000004317  -0.0000016093
        0.0000000008   0.0000033342  -0.0000011730  -0.0000018611   0.0000039731
       -0.0000090694   0.0000211779   0.0000049266  -0.0002215026  -0.0002377178
       -0.0005979939
        0.0014271487  -0.0139030337  -0.0297683378   0.0021051831  -0.0611105331
       -0.0231631954   0.0015172857   0.5187615713  -0.0177654102  -0.0014743768
        0.0017643889   0.0072660133  -0.0002432845   0.0001138015   0.0004143548
        0.0000568497  -0.0002031078  -0.0003031319   0.0000940547  -0.0000550587
        0.0000588548  -0.0000665604  -0.0004160162  -0.0001328738  -0.0005417103
       -0.0008484844   0.0007129684   0.0005900195  -0.0011010143   0.0008774216
        0.0000007859  -0.0005583404  -0.0000977467  -0.0000745979  -0.0000092433
        0.0000061915  -0.0000913224  -0.0003476004  -0.0004268234  -0.0000462279
       -0.0000199802   0.0000110480   0.0000870786  -0.0000498257   0.0000627771
       -0.0000793276   0.0000068711  -0.0000230662   0.0000777861   0.0000074008
       -0.0000057385  -0.0000518951  -0.0000011290  -0.0000017056   0.0000168117
       -0.0000063623  -0.0000045388  -0.0000048833  -0.0000210803  -0.0000034651
       -0.0000359408  -0.0000029141   0.0000020284   0.0000582474   0.0000022290
       -0.0000025324  -0.0000272240   0.0000328247   0.0000034771   0.0000143862
       -0.0000022755  -0.0000021034  -0.0000113515   0.0000149038   0.0000084621
        0.0000086935   0.0000243097   0.0000085487  -0.0000072650  -0.0000265676
       -0.0000070012   0.0000013683   0.0000303177   0.0000099179   0.0000031018
       -0.0000298703  -0.0000101828  -0.0000107254   0.0000256767   0.0000075636
        0.0000110840  -0.0000201071  -0.0000086220  -0.0000113294  -0.0000145171
       -0.0000066199   0.0000129599   0.0000031910   0.0000006980  -0.0000228901
       -0.0000352391  -0.0000010757  -0.0000058818   0.0000230695   0.0000030868
        0.0000168897   0.0000061612   0.0000015810  -0.0000493303   0.0000019622
        0.0000247260   0.0000664862   0.0000419476  -0.0000106888   0.0002174188
       -0.0000000856   0.0005881447   0.0005135456   0.0020228560   0.0115135595
       -0.0002946906   0.0010196515  -0.0008581883  -0.0003871635  -0.0063187488
       -0.0024053590   0.0005647297   0.0009762818  -0.0006452436   0.0803463225
       -0.0943105152   0.0557736984  -0.0191512519  -0.2790251674  -0.0283336611
       -0.0651656605  -0.0665699900   0.0261788861   0.0001588328   0.0000300497
        0.0000492780   0.0000014328   0.0000175185   0.0000171417  -0.0000059267
        0.0000603704   0.0000676324  -0.0000402264  -0.0000585910   0.0000500791
        0.0000318153  -0.0000881790   0.0000745039  -0.0000001535   0.0000696947
        0.0000665668   0.0000006111   0.0000022424   0.0000058297  -0.0000054307
        0.0000043108  -0.0000017711   0.0000030584   0.0000039809  -0.0000006899
       -0.0000034360   0.0000007289   0.0000013070  -0.0000009996  -0.0000086975
       -0.0000026162   0.0000062064  -0.0000053745  -0.0000015636   0.0000064807
        0.0000006834   0.0000006250   0.0000063195   0.0000000556  -0.0000007551
        0.0000051525   0.0000054842   0.0000011639  -0.0000010840   0.0000074236
        0.0000023549  -0.0000025124  -0.0000010724  -0.0000013072   0.0000035909
       -0.0000038593   0.0000010930  -0.0000054246  -0.0000064648   0.0000023909
        0.0000026706  -0.0000065415  -0.0000081227  -0.0001143233   0.0001036280
        0.0001301633
        0.0004523131  -0.0076329967  -0.0109020689   0.0076572711  -0.0320972092
       -0.1744960292   0.0057846166  -0.0177654102   0.4424844673   0.0097861589
        0.0011472682  -0.0174749235  -0.0013661719  -0.0000357841  -0.0001571245
        0.0001929410   0.0007989158   0.0000364857   0.0000001871  -0.0001000035
        0.0000885842   0.0001081456   0.0006754790  -0.0000098187   0.0013035256
       -0.0007450291  -0.0001129371  -0.0017053871  -0.0002528102  -0.0005330736
        0.0000624797   0.0007891640  -0.0000443357  -0.0000243331  -0.0001251618
        0.0000986640   0.0000501108   0.0009235209   0.0002707417   0.0001970758
        0.0000247420  -0.0000253764  -0.0002020428   0.0000333616  -0.0001019578
        0.0001231634  -0.0000164434   0.0000590712  -0.0000981500  -0.0000010642
        0.0000029179   0.0000498722   0.0000016688  -0.0000010780  -0.0000368341
       -0.0000252057   0.0000005753   0.0000292053  -0.0000230700   0.0000146636
       -0.0000652298   0.0000006466   0.0000063048   0.0000230426   0.0000041521
       -0.0000035478   0.0000082173  -0.0000138499  -0.0000000461   0.0000128526
        0.0000066401   0.0000045869  -0.0000058773   0.0000131523   0.0000025288
        0.0000132590   0.0000100047   0.0000106103   0.0000063826  -0.0000426056
       -0.0000227622  -0.0000232534   0.0000357684   0.0000253313  -0.0000220275
       -0.0000352513  -0.0000216874   0.0000124345   0.0000439625   0.0000244479
        0.0000143399  -0.0000296981  -0.0000145384  -0.0000052106  -0.0000122999
       -0.0000030654   0.0000148257  -0.0000039682  -0.0000075466   0.0000046939
        0.0000133837  -0.0000023288   0.0000197059   0.0000232725  -0.0000188537
       -0.0000380030   0.0000231075  -0.0000002245   0.0000520989   0.0000102480
       -0.0000549509  -0.0001393520  -0.0000410882   0.0000419470   0.0013117353
       -0.0001214534  -0.0001188685  -0.0061337136   0.0019917468  -0.0230252671
       -0.0000433606   0.0009603788   0.0006788410  -0.0000794602  -0.0015106815
       -0.0000911305   0.0001345552   0.0008876400   0.0005636914  -0.0878472085
        0.0550551247  -0.1012116559  -0.0025594795  -0.0281736374  -0.0457628570
        0.0730867932   0.0256372881  -0.0697453815  -0.0003407440  -0.0000885018
       -0.0001106874  -0.0000149613  -0.0000117590  -0.0000306438  -0.0000149404
       -0.0000875671  -0.0000763551   0.0000626640   0.0000667989   0.0000111327
       -0.0000738584   0.0001100858  -0.0000119341  -0.0000036344  -0.0000771212
       -0.0000815945  -0.0000094578   0.0000220846  -0.0000049161   0.0000005998
        0.0000075521  -0.0000003051   0.0000021166   0.0000121206   0.0000006297
        0.0000005819  -0.0000001342  -0.0000001723  -0.0000008709  -0.0000024648
       -0.0000024418   0.0000038215  -0.0000033394  -0.0000018829   0.0000031228
        0.0000022034   0.0000003888   0.0000026928   0.0000002756  -0.0000006550
        0.0000031125   0.0000057717   0.0000015313  -0.0000012573   0.0000052401
        0.0000021340  -0.0000005203   0.0000014392  -0.0000013225   0.0000021903
       -0.0000093360  -0.0000025396   0.0000010771  -0.0000039141  -0.0000035623
       -0.0000072488  -0.0000129050   0.0000164323   0.0002686067  -0.0002424450
       -0.0001542608
       -0.0050714558  -0.0096302945   0.0023833644  -0.1525482968  -0.0311712180
        0.0338489258  -0.0050907990  -0.0014743768   0.0097861589   0.7044351663
       -0.0434435576   0.0443802595  -0.3137281822   0.0822229892  -0.0873785636
       -0.0686338958  -0.0366795586   0.0397730686  -0.0226731036   0.0217240152
       -0.0233090169   0.0352107600  -0.0094759579   0.0100019270  -0.0798075269
        0.0027008713  -0.0028721891  -0.0349131766   0.0211997034  -0.0225856069
        0.0003132465  -0.0030852774   0.0033475086  -0.0047678069  -0.0008507680