$hessian                                                                        
        0.4861141764  -0.0183561539   0.0101254366  -0.1642225020  -0.0782554548
       -0.0056281650  -0.0073730036  -0.0101710364   0.0031076633   0.0032725084
       -0.0011348396   0.0001631774  -0.0002310497  -0.0000172524   0.0001387417
       -0.0011788060  -0.0009919261  -0.0001680387   0.0001194764   0.0003496287
       -0.0001602720   0.0010987314  -0.0007614259   0.0000776446   0.0001628013
        0.0004564509   0.0000282409   0.0005815469  -0.0003780299  -0.0001390026
       -0.0006415164   0.0001348890   0.0000583709  -0.0000554729   0.0002307436
       -0.0004215710  -0.0014129325  -0.0004190109   0.0006104515   0.0004997908
        0.0005585281   0.0000206618  -0.0003663200  -0.0000552607   0.0000654327
        0.0000978611   0.0001508097  -0.0000536968  -0.0002233732  -0.0000320754
       -0.0001101082   0.0000290405   0.0002343475  -0.0002537077   0.0001643212
       -0.0001933042   0.0005270148  -0.0004153662   0.0001585984  -0.0004187294
        0.0001181212  -0.0002782228   0.0004956286  -0.0004131362   0.0001806038
       -0.0004268240   0.0002423012   0.0000498234   0.0001692354  -0.0000111085
       -0.0001021957   0.0001643498   0.0001514449   0.0001205853   0.0000237833
       -0.0000882813  -0.0001305717  -0.0000366128   0.0002447582   0.0002812975
        0.0001650764  -0.0002046087  -0.0000261585  -0.0001092142   0.0000994451
        0.0000195767  -0.0000331213   0.0000545114  -0.0000334887   0.0001060377
        0.0000159028  -0.0000411660  -0.0000295451  -0.0000014034   0.0000084335
       -0.0000139858   0.0000457489   0.0000492474   0.0000376257  -0.0000580756
        0.0000645471  -0.0000050556   0.0000697952  -0.0000434793   0.0000345183
        0.0000864523   0.0018419240  -0.0049042377  -0.0009444747  -0.0002704824
        0.0001450637  -0.0261875404  -0.0148354357  -0.0069730701  -0.0498822640
        0.0470845570   0.0265206272  -0.0601972459  -0.0131941466   0.0570919186
       -0.1803678715   0.0869108733  -0.0809962618   0.0005351104   0.0014894947
       -0.0003050470  -0.0000170971  -0.0000479175  -0.0000765919   0.0000363195
        0.0000638109   0.0000216550  -0.0000677579  -0.0000062562  -0.0000527433
        0.0000002888  -0.0000262672  -0.0000056750  -0.0000077900  -0.0000473499
       -0.0000059791   0.0000002604  -0.0000416645   0.0000889131   0.0000217476
       -0.0000560405   0.0000336379   0.0000327834   0.0000148073  -0.0000252279
        0.0000375143   0.0000192561   0.0000097018   0.0000735763   0.0000158530
       -0.0000135407   0.0002265572   0.0000355869  -0.0000800162   0.0001761097
        0.0000329098  -0.0000788059   0.0000180968  -0.0000110868  -0.0000281231
        0.0000382487   0.0000002454  -0.0000079268   0.0000300271   0.0000121691
        0.0000127777  -0.0000789634  -0.0000120576  -0.0000270557  -0.0000099906
        0.0000019343  -0.0000125334   0.0000156191  -0.0000513279  -0.0000247425
       -0.0000302369   0.0000265915  -0.0000254912  -0.0000176929   0.0000173846
        0.0000096264  -0.0000229850   0.0000248550   0.0000308404  -0.0000363040
        0.0000104391  -0.0000417846  -0.0000349063  -0.0000525643  -0.0000023543
        0.0000166841   0.0000198047   0.0000145233  -0.0000454634  -0.0000337514
       -0.0000162794   0.0000022430  -0.0000018622   0.0000039670  -0.0000530195
       -0.0000548259  -0.0001549669   0.0000856983  -0.0001348217   0.0001413353
       -0.0001287480  -0.0000145321   0.0000156568   0.0004116874  -0.0003571639
        0.0016067689
       -0.0183561539   0.4781201084  -0.0216278898  -0.0705425148  -0.1141317938
        0.0008721396  -0.0220198844  -0.0197296622   0.0059162508   0.0017203462
        0.0022621969   0.0063278766  -0.0009390328  -0.0012061873  -0.0003686378
       -0.0016022342  -0.0040058815  -0.0007074252   0.0002694481   0.0026240482
        0.0000401774   0.0007541650  -0.0016812430   0.0001131579  -0.0000157944
        0.0007157674  -0.0004420177   0.0005399436  -0.0003261628  -0.0001077004
       -0.0005084901   0.0000128517   0.0000313761  -0.0001355617   0.0002865856
       -0.0001893166  -0.0010259159   0.0001785180   0.0004302088   0.0002266871
        0.0003651818   0.0001551209  -0.0003178154   0.0000248481  -0.0000114408
        0.0000551634   0.0000615374   0.0000597406  -0.0000907846  -0.0000245341
       -0.0000381653  -0.0000355859   0.0002073674  -0.0002980862   0.0002611375
       -0.0000568597   0.0002291861  -0.0002371312   0.0001256184  -0.0002236722
        0.0000087992  -0.0001371203   0.0003447193  -0.0000596714   0.0001784523
       -0.0003226467   0.0002643895  -0.0000343239   0.0002184749  -0.0000521121
       -0.0000526001   0.0000821862   0.0001561366   0.0000244569   0.0000237973
        0.0000469865  -0.0000665018  -0.0002082280   0.0003132135  -0.0008809431
       -0.0002940732  -0.0002439853  -0.0003154646   0.0002578743  -0.0001150924
       -0.0001499183  -0.0000490274  -0.0000704796   0.0002500661  -0.0002831824
        0.0000794881   0.0002154388   0.0002409522  -0.0000803842  -0.0001539746
        0.0001172783   0.0003600405   0.0001992458  -0.0003678184  -0.0005310383
       -0.0000545088   0.0004910791   0.0001218694  -0.0001563427   0.0000634386
        0.0014327751   0.0052312201   0.0016097260   0.0004942071  -0.0004878728
       -0.0002803040  -0.0052129443   0.0024735501  -0.0016845432   0.0413974248
       -0.2002645707  -0.0972749848  -0.0141805031  -0.0543287619   0.0568337818
        0.0866070932  -0.0944945772   0.0529211967   0.0000290481  -0.0005777893
       -0.0020103755   0.0000279752   0.0000675554  -0.0000994308  -0.0000094538
       -0.0000841477   0.0003880239  -0.0000722010   0.0000631856  -0.0001053381
       -0.0000142046  -0.0001072510   0.0000583709  -0.0000262060  -0.0000245684
        0.0001220988   0.0000012973  -0.0000423891   0.0000527514   0.0000071507
       -0.0000074967  -0.0000218801  -0.0000073207   0.0000033652  -0.0000092818
       -0.0000041608  -0.0000409704   0.0000548808   0.0000648888  -0.0000407706
        0.0000198721  -0.0000571875  -0.0000453757  -0.0000281699  -0.0000484302
        0.0000217666   0.0000419133  -0.0000135878  -0.0000071401  -0.0000749942
       -0.0000362076  -0.0000192709  -0.0000380338  -0.0000162490  -0.0000036587
       -0.0000047262   0.0000615007   0.0000249324  -0.0000236485  -0.0000301353
        0.0000412649  -0.0000035999   0.0001360073  -0.0001112634  -0.0000661155
       -0.0000390676   0.0000910859  -0.0000210611   0.0000072793   0.0000066591
       -0.0000087673  -0.0000917757   0.0000129669   0.0000232404  -0.0000183565
       -0.0000118160  -0.0000256093  -0.0000849004   0.0000174837  -0.0000506891
       -0.0000065583   0.0000437057   0.0000005229  -0.0000598055  -0.0000271258
       -0.0000313935   0.0000171576  -0.0000290635  -0.0000187991   0.0000920253
       -0.0000946983   0.0001133497   0.0000171896   0.0000396085   0.0000107620
       -0.0001104559   0.0001479287   0.0000432634   0.0015485398  -0.0001239669
       -0.0008877157
        0.0101254366  -0.0216278898   0.5081646010  -0.0037954624   0.0023880505
       -0.0627495896   0.0128892271   0.0141066625   0.0017132449  -0.0006336997
        0.0056611034   0.0004496760   0.0006453038  -0.0000023853  -0.0006652109
       -0.0003775555  -0.0015510444  -0.0005426952   0.0001582025   0.0013075976
        0.0002495509  -0.0002785017  -0.0005715423  -0.0000031545  -0.0000980166
        0.0001376404  -0.0002833540  -0.0000542962   0.0000301842   0.0000335798
        0.0001165333  -0.0000511439  -0.0000162267  -0.0000491586  -0.0000344146
        0.0001696575   0.0002802323   0.0003996289  -0.0001521701  -0.0002224231
       -0.0000947988   0.0000596859   0.0000686021  -0.0000057077   0.0000089906
       -0.0001128050  -0.0000396726  -0.0000036024   0.0001170969   0.0000258800
        0.0000534435  -0.0000427483  -0.0000758406  -0.0000139586   0.0000196767
        0.0001472976  -0.0002851059   0.0001677775   0.0000524836   0.0001348494
       -0.0000263348   0.0000708092  -0.0000734502   0.0001001257   0.0000676602
        0.0000677870   0.0000143737  -0.0000311257   0.0000433194   0.0000010096
        0.0000297313  -0.0000466498  -0.0000264418  -0.0000131399  -0.0000259802
        0.0000757821   0.0000346528  -0.0001476776  -0.0000346323  -0.0006798646
       -0.0002820117   0.0000479072  -0.0001580577   0.0002076948  -0.0000906322
       -0.0001053715   0.0000213926  -0.0000846836   0.0001629168  -0.0002298105
        0.0000485327   0.0001410886   0.0001570499  -0.0000433642  -0.0000885814
        0.0000701565   0.0001421967   0.0000821834  -0.0002133507  -0.0002114048
       -0.0000787541   0.0002824363   0.0000187156  -0.0000604381   0.0000107384
       -0.0030235427   0.0028920386  -0.0003311715  -0.0006985986  -0.0007723439
       -0.0003550434  -0.0170347340  -0.0104231955  -0.0016659745   0.0237018294
       -0.0993313212  -0.1003240791   0.0582123475   0.0577369799  -0.2501632131
       -0.0817805922   0.0525145275  -0.0936133526   0.0021757070  -0.0007099331
       -0.0000325910   0.0000562944   0.0001756600  -0.0001004463   0.0000936706
        0.0001684428   0.0000465898   0.0001005040  -0.0000640771   0.0001142720
        0.0000052224  -0.0000406970   0.0000312469  -0.0000024083   0.0000143996
        0.0000740086   0.0000036315   0.0000082456  -0.0000335925  -0.0000063754
        0.0000329956  -0.0000352276  -0.0000051955  -0.0000151875   0.0000240883
       -0.0000128332  -0.0000137827   0.0000268810  -0.0000074000  -0.0000114738
        0.0000103029  -0.0001247080  -0.0000889784   0.0001361030  -0.0000924513
       -0.0000825428   0.0000452058  -0.0000281574  -0.0000192393  -0.0000126919
       -0.0000411000  -0.0000241351   0.0000027428  -0.0000137786  -0.0000119829
       -0.0000027457   0.0000421712  -0.0000017645   0.0000177773  -0.0000106281
        0.0000193266  -0.0000005996   0.0000398395  -0.0000156519  -0.0000829711
        0.0000001770   0.0000291196   0.0000057171   0.0000185861  -0.0000081040
       -0.0000093550  -0.0000406145  -0.0000092166   0.0000005232   0.0000107760
       -0.0000119374   0.0000091903  -0.0000241995   0.0000422979  -0.0000293777
       -0.0000081014   0.0000209994   0.0000197319  -0.0000089392   0.0000141190
       -0.0000102613  -0.0000007947  -0.0000185259  -0.0000129761  -0.0001014229
        0.0000058594  -0.0000289280   0.0000313574  -0.0000267954   0.0001236584
       -0.0001877459   0.0000897330  -0.0001386127  -0.0000923637  -0.0016396560
        0.0001313154
       -0.1642225020  -0.0705425148  -0.0037954624   0.5069155710   0.1391932152
        0.1337082924  -0.0785563143  -0.0487578412   0.0237947967  -0.0054503351
       -0.0150915800   0.0129575596  -0.0016345204  -0.0057424384  -0.0008700659
        0.0077149506   0.0196155917  -0.0014115849  -0.0023943644  -0.0083894785
        0.0011133553  -0.0065879741   0.0083345032  -0.0016279626  -0.0009587219
       -0.0043674596   0.0005268050  -0.0041115789   0.0031122589   0.0009256411
        0.0038941233  -0.0011916471  -0.0001360320   0.0000774855  -0.0000716101
        0.0019529485   0.0078389277  -0.0001214592  -0.0032472659  -0.0007348266
       -0.0035385954   0.0006574005  -0.0003259434  -0.0006973039  -0.0004680570
       -0.0004095013  -0.0004549688   0.0000490705   0.0002857210  -0.0002730928
        0.0005645460   0.0000765299  -0.0002588157   0.0003091547  -0.0002497081
        0.0005982822  -0.0008848310   0.0004846732   0.0003374523  -0.0003773136
        0.0007599894  -0.0001330386  -0.0006166504   0.0009811141  -0.0002893179
        0.0015403861  -0.0012444881   0.0000261734  -0.0008541056   0.0001734111
        0.0008264742  -0.0009742587  -0.0006871745  -0.0008826655   0.0006520546
       -0.0002745636   0.0008625078  -0.0004777968  -0.0011132983   0.0001136818
        0.0006230087   0.0012684208   0.0011520890   0.0003303128  -0.0001511331
        0.0001403962   0.0000266018   0.0001099224   0.0000007259  -0.0000992862
       -0.0002352366  -0.0000852122  -0.0001290277   0.0000281554   0.0001570588
       -0.0001396732  -0.0003088233  -0.0005174699   0.0002559786   0.0009766584
       -0.0005517594  -0.0007875944  -0.0003877525   0.0002993682  -0.0002313025
       -0.0562852623  -0.0337683373  -0.0126420441   0.0011192298  -0.0039308946
       -0.0011559911  -0.1752400769   0.0409594360  -0.1290001354   0.0022625110
       -0.0052929197  -0.0023083760  -0.0085798762  -0.0102628484   0.0036977295
       -0.0243105466  -0.0137721825  -0.0056246033   0.0000920795   0.0147220612
       -0.0154464205   0.0003714883   0.0002670284  -0.0006474246  -0.0004085680
       -0.0012301866   0.0010260554  -0.0001224948  -0.0000388554  -0.0000391619
        0.0000429985   0.0000628067  -0.0002088276   0.0000067767   0.0000135362
       -0.0000899354  -0.0000694632   0.0000525401  -0.0005597826  -0.0000505738
        0.0001772193  -0.0001368093  -0.0000291085   0.0000541881   0.0000068309
       -0.0000611066   0.0000411172  -0.0000462010  -0.0000651158  -0.0000190279
       -0.0000120218  -0.0003073344  -0.0000816071   0.0000888003  -0.0002261068
       -0.0000985071   0.0002017758   0.0000034286  -0.0000425894   0.0000670299
        0.0000395303  -0.0000211372   0.0000831169   0.0000609802  -0.0000532190
       -0.0000038322   0.0000398135   0.0000425346  -0.0001069732   0.0000400886
       -0.0000645376   0.0000270873  -0.0002912674  -0.0000153030   0.0001068603
        0.0001638987  -0.0002867541   0.0001354988  -0.0000350341  -0.0000092561
       -0.0000042900   0.0000708971  -0.0000373769  -0.0000306442   0.0000521629
        0.0000110980   0.0000529158   0.0002160678   0.0000272574   0.0000414612
        0.0000087651  -0.0000651144   0.0000023230   0.0001139609   0.0000240355
        0.0003137665   0.0000327919   0.0000322608   0.0000152180  -0.0000216104
       -0.0002035728  -0.0001432136   0.0002312969   0.0000113148   0.0002015811
       -0.0015205146  -0.0005114992  -0.0007692065   0.0011084007   0.0004957821
        0.0000482014
       -0.0782554548  -0.1141317938   0.0023880505   0.1391932152   0.4358543138
       -0.1915633178  -0.0002049616  -0.1800405695   0.1404114436  -0.0511428080
       -0.0468069391   0.0028996635  -0.0026306170   0.0041762718   0.0005049272
        0.0118935538   0.0012650512   0.0100626920  -0.0016522902  -0.0048265980
       -0.0003837328  -0.0025485782   0.0043238093  -0.0008052202  -0.0002639365
       -0.0019201256   0.0006453019  -0.0022385028   0.0015237908   0.0004571180
        0.0024998019  -0.0000712167  -0.0002984080   0.0003062531  -0.0012211580
        0.0011176516   0.0040678621   0.0002922083  -0.0011808956  -0.0039319600
       -0.0002576641  -0.0012278950   0.0031172716  -0.0001232279   0.0019354309
       -0.0013531482   0.0000681885  -0.0009362454   0.0012986457   0.0005698558
        0.0003784471  -0.0001232432  -0.0006526640   0.0008127782  -0.0001888875
        0.0001733939  -0.0006832383   0.0010023438  -0.0010728235   0.0002946544
        0.0004759021   0.0008736126  -0.0002843017   0.0006334074  -0.0001123169
       -0.0000670006  -0.0000003547  -0.0000850255  -0.0000135452  -0.0003844480
       -0.0001664437  -0.0002330743  -0.0004507175   0.0003253210   0.0000017593
       -0.0008509406  -0.0008926670   0.0010558520  -0.0000187698   0.0005029443
        0.0009057891   0.0000861658   0.0004560274  -0.0002549606   0.0002556798
        0.0001853555   0.0000634941   0.0001452791  -0.0003275628   0.0003267442
       -0.0000293378  -0.0002340792  -0.0002864687   0.0000585582   0.0001661460
       -0.0001183088  -0.0003881051  -0.0002321069   0.0003443903   0.0005582003
        0.0003094624  -0.0004757293  -0.0001453111   0.0001162562  -0.0001009600
        0.0053764167   0.0139128433  -0.0103526734  -0.0074895851   0.0008641548
        0.0010287926  -0.0086076365  -0.0800695247   0.0222700662  -0.0223765398
       -0.0214953122  -0.0033199034  -0.0087839549  -0.0092403218   0.0037609661
        0.0082947390   0.0075735365  -0.0013434507   0.0009557185  -0.0042453553
        0.0049307212  -0.0005772246  -0.0010095008   0.0012066049  -0.0007004244
       -0.0000056108  -0.0002088255   0.0001968592   0.0003795165  -0.0003674269
        0.0000640685   0.0001643896  -0.0001727267   0.0000508812   0.0000188057
       -0.0001086942  -0.0000184403   0.0000906818  -0.0002783186  -0.0000930815
       -0.0000778090  -0.0000250507   0.0000270425  -0.0000434757  -0.0000717227
       -0.0000315237   0.0000535756  -0.0000712348  -0.0000893481  -0.0000103030
       -0.0000805750  -0.0001530982   0.0000212318   0.0000448241  -0.0001530774
       -0.0000103295   0.0001590946   0.0000124820  -0.0000126694   0.0000859977
        0.0000265410  -0.0000416383   0.0000720111  -0.0000189501   0.0000858773
        0.0000386512  -0.0000503898  -0.0000409290  -0.0000266660  -0.0000067508
       -0.0000274916  -0.0000421890  -0.0002871182  -0.0000095862   0.0001851206
        0.0000061401  -0.0000602746   0.0000360693  -0.0000312621   0.0000046195
       -0.0000122150   0.0000569561  -0.0000464380  -0.0000252250   0.0000351157
        0.0000030654   0.0000201957   0.0000281042  -0.0000379613   0.0000405532
        0.0000538717  -0.0000517492   0.0000093048   0.0000941657   0.0000398911
        0.0001091207  -0.0000494637   0.0000263707  -0.0000141094  -0.0006003306
        0.0005277158  -0.0007162930  -0.0001370390  -0.0003421208   0.0000378400
        0.0006661415   0.0010544425  -0.0001287128   0.0155202283  -0.0059493433
        0.0176371934
       -0.0056281650   0.0008721396  -0.0627495896   0.1337082924  -0.1915633178
        0.4280558477  -0.0280272071   0.0983253225  -0.1715448385   0.0527966908
        0.0366261362   0.0071213735  -0.0037598777   0.0000517972   0.0062478835
       -0.0047770960   0.0069571547  -0.0169291379  -0.0000330067  -0.0002961089
        0.0009310392  -0.0003155203  -0.0006930497   0.0000379389   0.0001904193
        0.0002327556  -0.0001510907   0.0003068723  -0.0002881199   0.0000048791
       -0.0003747294   0.0000300452   0.0001089935  -0.0002788954   0.0002113450
        0.0000754204  -0.0002538466   0.0006697084  -0.0003084996   0.0031923832
       -0.0024141678   0.0008721267  -0.0031202079  -0.0009743132  -0.0015097366
        0.0009816548  -0.0001121153   0.0005862788  -0.0013644276  -0.0010445484
        0.0003019527   0.0001764731   0.0010309215  -0.0012740653   0.0008434091
       -0.0002378134   0.0006605141  -0.0003958317   0.0012481537  -0.0007051199
        0.0002763433   0.0000696941   0.0008644772  -0.0001011259   0.0001676310
       -0.0008736719   0.0003822354   0.0002669754   0.0001100034  -0.0003205520
        0.0001210472  -0.0002362102   0.0001683824  -0.0004919803   0.0001887380
       -0.0005730539   0.0009437034  -0.0011611939  -0.0005411210   0.0002385278
       -0.0004920510   0.0006024391   0.0001622967   0.0000592773  -0.0001983053
       -0.0000344702  -0.0000772026  -0.0001001592   0.0000902005  -0.0001125701
       -0.0000727893  -0.0000139866   0.0000311744   0.0000235584   0.0000174608
       -0.0000345805  -0.0000775073  -0.0000796939   0.0000261263   0.0002048175
       -0.0003148915  -0.0000908310  -0.0000178174   0.0001351890  -0.0000195279
       -0.0443090728  -0.0374992378  -0.0003123586   0.0018030256   0.0048102157
        0.0070591552  -0.0827192067   0.0599683537  -0.1611516163  -0.0116562332
       -0.0095950927   0.0006243225   0.0225685833   0.0178741443  -0.0007362659
       -0.0127102905  -0.0074961098  -0.0015316872  -0.0015763175   0.0172956538
       -0.0170758452  -0.0000098527  -0.0005073257   0.0003009414   0.0007597198
        0.0005011262  -0.0003052019  -0.0007473601  -0.0003108481  -0.0002087451
       -0.0000144338  -0.0000490320   0.0000348093  -0.0000079167  -0.0000034700
       -0.0000211788  -0.0000167091  -0.0000262706  -0.0000038858   0.0000473723
        0.0001205678  -0.0000161689  -0.0000160673   0.0000742494   0.0000405432
       -0.0000191060   0.0000105275   0.0000293233   0.0000238290   0.0000312473
        0.0000220221   0.0000405254  -0.0000071800  -0.0000117985   0.0000939068
        0.0000947903  -0.0000113816   0.0000384435  -0.0000040080  -0.0000009794
        0.0000487109   0.0000079491  -0.0000321163   0.0000898076  -0.0000808828
       -0.0000124084   0.0000191133   0.0000759061  -0.0000082776   0.0000727414
       -0.0000264674   0.0000474678  -0.0000146545   0.0000887562  -0.0000138800
        0.0000805540  -0.0001106534   0.0000158165   0.0000068288  -0.0000184433
        0.0000248226   0.0000383910   0.0000284297  -0.0000035379  -0.0000083985
        0.0000116591   0.0000146979   0.0000826278   0.0000160373   0.0000311426
       -0.0000688068  -0.0000228797  -0.0000127998  -0.0000271967  -0.0000082236
        0.0000234643   0.0000540500   0.0000293112   0.0000238040  -0.0019257948
       -0.0003832804  -0.0010786570   0.0002797777   0.0000789559   0.0002698213
        0.0004266260  -0.0015838731   0.0013398709  -0.0142499448   0.0067057692
       -0.0153673627
       -0.0073730036  -0.0220198844   0.0128892271  -0.0785563143  -0.0002049616
       -0.0280272071   0.5199308604   0.1614568536   0.1639294505  -0.2315889188
       -0.1434527657   0.0055367607  -0.0079170802  -0.0125554537   0.0046429113
       -0.0453489478  -0.0127510525  -0.0339620925   0.0033393375   0.0074064765
       -0.0013915220   0.0022844064  -0.0068255376   0.0017135919   0.0006381908
        0.0030703883  -0.0007526547   0.0025140067  -0.0022175637  -0.0004541604
       -0.0023308509   0.0008204654   0.0001565816  -0.0003798946  -0.0001665272
       -0.0007476130  -0.0042357129   0.0014231926   0.0008047700   0.0020579379
       -0.0002590917   0.0005588873  -0.0019137328   0.0002930574  -0.0007881042
        0.0011171631  -0.0000162760   0.0009462403  -0.0014043699  -0.0007612053
       -0.0001275635   0.0001005445   0.0007415371  -0.0009651939   0.0002791384
       -0.0001029213   0.0008560205  -0.0006038972   0.0010932745  -0.0001159817
       -0.0001887933  -0.0000078145   0.0005444734  -0.0002950443   0.0002972721
       -0.0005303608   0.0002773568   0.0000592745   0.0001906972  -0.0000664908
       -0.0001049195   0.0001687335   0.0001712838  -0.0001792142  -0.0002800959
        0.0001952614   0.0005317889  -0.0012192502  -0.0015769937  -0.0005660827
       -0.0019264720   0.0008161712  -0.0008329488   0.0001375224  -0.0000927499
       -0.0002480304   0.0000473722  -0.0004865347   0.0002828994  -0.0004299022
        0.0002235946   0.0001626283   0.0002265931  -0.0000377299  -0.0001850048
        0.0000774718  -0.0002055421   0.0003341596  -0.0002512306   0.0001216888
       -0.0002082353   0.0007516485   0.0000965054  -0.0000863286   0.0000934171
       -0.0115576262  -0.0113782074   0.0050124130   0.0011870425   0.0005389542
        0.0011050334   0.0245843719   0.0206667855  -0.0026586824  -0.0009847659
       -0.0013916844   0.0011756856  -0.0033140262  -0.0028932642   0.0005686607
        0.0009990304  -0.0011807345   0.0017530267  -0.1611923356   0.0203563590
       -0.1241113064   0.0007726838   0.0001900764  -0.0009691274   0.0008934239
        0.0001000449   0.0010578414   0.0003730093   0.0011621209  -0.0010594180
        0.0001378860  -0.0001210283   0.0001665000   0.0000666896   0.0000974660
        0.0001052984   0.0000224712   0.0000778541   0.0002246752  -0.0000146663
        0.0001394276   0.0000096915   0.0000245401   0.0000730274   0.0000545622
       -0.0000561095   0.0000481235  -0.0000280943  -0.0000240820   0.0000420946
        0.0000063862   0.0000331615  -0.0000135357  -0.0000110938   0.0000113522
       -0.0000256419  -0.0000022959   0.0000134041  -0.0000375872   0.0000193093
        0.0000300266  -0.0000178430   0.0000255110   0.0000608389  -0.0000117984
        0.0000097114   0.0000186788   0.0000471357   0.0000247345   0.0001047768
        0.0000366661  -0.0000488707  -0.0001628807   0.0000440883  -0.0001882469
        0.0000950547  -0.0000202368  -0.0000990092   0.0000814669  -0.0000634431
        0.0000231482   0.0000173476   0.0000644038  -0.0000108509  -0.0000117726
        0.0000148616   0.0000025879   0.0000365555   0.0000857247   0.0000146124
       -0.0000580413   0.0000154409   0.0001034976  -0.0000903288   0.0000484388
       -0.0001023504   0.0000446689   0.0000321567   0.0000248381  -0.0002672821
       -0.0002419673  -0.0001543541   0.0002683910   0.0000614592   0.0002119249
       -0.0000287478  -0.0006407743   0.0003085406  -0.0016750531  -0.0001264121
       -0.0048674553
       -0.0101710364  -0.0197296622   0.0141066625  -0.0487578412  -0.1800405695
        0.0983253225   0.1614568536   0.4183048618  -0.1995190055  -0.0979813663
       -0.1442776974   0.0316890101  -0.0212549912  -0.0207228689   0.0103832503
       -0.0293296537   0.0007445698  -0.0299643200   0.0024818970   0.0101517547
        0.0013175138   0.0078550138  -0.0098550783   0.0022512445   0.0011789502
        0.0053057409  -0.0006888704   0.0054721037  -0.0040514675  -0.0011716164
       -0.0054828021   0.0013731254   0.0003983237  -0.0003845489   0.0007971724
       -0.0025173099  -0.0101117572  -0.0000230529   0.0034504124   0.0052253276
        0.0011862949   0.0016139157  -0.0033774984  -0.0010240526  -0.0027280987
        0.0020310347  -0.0001252301   0.0014334744  -0.0022476651  -0.0008504732
       -0.0004712814   0.0000843502   0.0012210733  -0.0015263368   0.0009115849
       -0.0006840886   0.0011662286  -0.0005288332   0.0009927179  -0.0004399950
       -0.0010252179  -0.0004583485   0.0004427889  -0.0009295805   0.0003121945
       -0.0011556411   0.0008807259   0.0001241375   0.0006756238   0.0000673978
       -0.0003805976   0.0008038921   0.0008149704   0.0000328069  -0.0003713126
        0.0009631571   0.0009847891  -0.0017537799   0.0002079908   0.0005907866
       -0.0012907074  -0.0003988002  -0.0009421396  -0.0003961909   0.0000349221
       -0.0002943657   0.0000260512  -0.0001539157   0.0001325101   0.0000762466
        0.0001482206   0.0000262820   0.0001286131   0.0000047779  -0.0001249552
        0.0000734505   0.0002305361   0.0004070841  -0.0000910299  -0.0005412069
        0.0000048921   0.0004678015   0.0003613932  -0.0001788997   0.0002565749
       -0.0207007434  -0.0159580518   0.0006160261   0.0027395544   0.0010742824
        0.0022247677   0.0471739386   0.0007063967   0.0368045278  -0.0005623156
        0.0002120066   0.0008682347  -0.0022862604  -0.0009854845   0.0000816897
        0.0012040938   0.0003614510   0.0005242324   0.0189362248  -0.0423145175
        0.0288674718  -0.0004689446  -0.0009029041  -0.0002518181  -0.0004391762
       -0.0026604862   0.0032900114  -0.0018790145   0.0001234866  -0.0014685204
        0.0000057933  -0.0001360066   0.0002482108   0.0000042585   0.0000397688
        0.0000378685   0.0000453140  -0.0000717818   0.0007050700   0.0001038498
       -0.0000030663   0.0002008808  -0.0000168136   0.0000468247   0.0000374851
        0.0000028965  -0.0000765080   0.0000306824   0.0000868112   0.0000483568
        0.0000104974   0.0000356628   0.0000048016  -0.0000439783   0.0000626749
       -0.0000147801  -0.0000672413   0.0000141180   0.0000037224  -0.0001071228
       -0.0000402808   0.0000201532  -0.0001060274   0.0000276088  -0.0000519390
       -0.0000490231  -0.0000902144  -0.0000122212   0.0000561043   0.0000999479
        0.0000832433  -0.0000031416   0.0001338085   0.0002819034  -0.0003028302
       -0.0000682697   0.0001361329  -0.0001502441   0.0000430665  -0.0000046300
        0.0000423863   0.0000022652   0.0001205317   0.0000318157  -0.0000888534
        0.0000267227  -0.0000479729  -0.0000532267  -0.0000054268   0.0000217534
       -0.0000856871   0.0000502694   0.0000303041  -0.0002191046  -0.0000301433
       -0.0003126643   0.0000447040   0.0000127495   0.0000601987  -0.0006236879
       -0.0004112737  -0.0002753660   0.0002698999   0.0001481657   0.0000443992
       -0.0001878895  -0.0011907394   0.0005796200  -0.0009605015   0.0023997439
        0.0027708065
        0.0031076633   0.0059162508   0.0017132449   0.0237947967   0.1404114436
       -0.1715448385   0.1639294505  -0.1995190055   0.4495922336  -0.0459484176
       -0.0119430052  -0.0704480615   0.0172931579   0.0200952514  -0.0035921056
       -0.0126639370  -0.0030561002   0.0027984543  -0.0033644444  -0.0075274403
       -0.0019508991  -0.0025202972   0.0068777576  -0.0008494187  -0.0002417713
       -0.0030055840   0.0013402105  -0.0021581667   0.0016812855   0.0003249337
        0.0019299027  -0.0005053694  -0.0000382982   0.0003179496  -0.0001550683
        0.0004321700   0.0035355792  -0.0015410026  -0.0009946244  -0.0018045114
       -0.0002048890  -0.0007351227   0.0023598843  -0.0001299263   0.0005327623
       -0.0004833367   0.0001403276  -0.0006876777   0.0009327183   0.0007726496
       -0.0004151309  -0.0003815615  -0.0009786661   0.0009563508  -0.0009704182
        0.0001027967  -0.0008294223   0.0011831283  -0.0015095539   0.0009079632
        0.0000165893  -0.0000015347  -0.0010331825   0.0002592386  -0.0003306214
        0.0007724737  -0.0005968427  -0.0000245339  -0.0003254654   0.0001181063
        0.0000478703  -0.0000051814  -0.0005534996   0.0002086504  -0.0001301347
       -0.0000315288  -0.0004398780   0.0010971043  -0.0005485961   0.0015264768
        0.0016985272  -0.0000003739   0.0010303663  -0.0006758947   0.0004468009
        0.0004135887   0.0000881413   0.0004765747  -0.0006136939   0.0007803133
       -0.0002349828  -0.0005336337  -0.0006154177   0.0001107691   0.0003629342
       -0.0002714320  -0.0005421129  -0.0004239869   0.0008110178   0.0009697989
        0.0002824141  -0.0013321943  -0.0002437227   0.0001952103  -0.0001879039
        0.0121005581   0.0043355851   0.0009488646  -0.0021346084  -0.0002822393
       -0.0015085486  -0.0294879028   0.0156980894  -0.0377037674  -0.0004819644