      -----------------------------------------------------------      
     |                   =====================                   |     
     |                           x T B                           |     
     |                   =====================                   |     
     |                         S. Grimme                         |     
     |          Mulliken Center for Theoretical Chemistry        |     
     |                    University of Bonn                     |     
      -----------------------------------------------------------      

   * xtb version 6.7.1 (edcfbbe) compiled by 'albert@albert-system' on 2024-07-22

   xtb is free software: you can redistribute it and/or modify it under
   the terms of the GNU Lesser General Public License as published by
   the Free Software Foundation, either version 3 of the License, or
   (at your option) any later version.
   
   xtb is distributed in the hope that it will be useful,
   but WITHOUT ANY WARRANTY; without even the implied warranty of
   MERCHANTABILITY or FITNESS FOR A PARTICULAR PURPOSE.  See the
   GNU Lesser General Public License for more details.
   
   Cite this work as:
   * C. Bannwarth, E. Caldeweyher, S. Ehlert, A. Hansen, P. Pracht,
     J. Seibert, S. Spicher, S. Grimme, WIREs Comput. Mol. Sci., 2020, 11,
     e01493. DOI: 10.1002/wcms.1493
   
   for GFN2-xTB:
   * C. Bannwarth, S. Ehlert and S. Grimme., J. Chem. Theory Comput., 2019,
     15, 1652-1671. DOI: 10.1021/acs.jctc.8b01176
   for GFN1-xTB:
   * S. Grimme, C. Bannwarth, P. Shushkov, J. Chem. Theory Comput., 2017,
     13, 1989-2009. DOI: 10.1021/acs.jctc.7b00118
   for GFN0-xTB:
   * P. Pracht, E. Caldeweyher, S. Ehlert, S. Grimme, ChemRxiv, 2019, preprint.
     DOI: 10.26434/chemrxiv.8326202.v1
   for GFN-FF:
   * S. Spicher and S. Grimme, Angew. Chem. Int. Ed., 2020, 59, 15665-15673.
     DOI: 10.1002/anie.202004239
   
   for ALPB and GBSA implicit solvation:
   * S. Ehlert, M. Stahn, S. Spicher, S. Grimme, J. Chem. Theory Comput.,
     2021, 17, 4250-4261. DOI: 10.1021/acs.jctc.1c00471
   
   for ddCOSMO and CPCM-X implicit solvation:
   * M. Stahn, S. Ehlert, S. Grimme, J. Phys. Chem. A,
     2023, XX, XXXX-XXXX. DOI: 10.1021/acs.jpca.3c04382
   
   for DFT-D4:
   * E. Caldeweyher, C. Bannwarth and S. Grimme, J. Chem. Phys., 2017,
     147, 034112. DOI: 10.1063/1.4993215
   * E. Caldeweyher, S. Ehlert, A. Hansen, H. Neugebauer, S. Spicher,
     C. Bannwarth and S. Grimme, J. Chem. Phys., 2019, 150, 154122.
     DOI: 10.1063/1.5090222
   * E. Caldeweyher, J.-M. Mewes, S. Ehlert and S. Grimme, Phys. Chem. Chem. Phys.
     2020, 22, 8499-8512. DOI: 10.1039/D0CP00502A
   
   for sTDA-xTB:
   * S. Grimme and C. Bannwarth, J. Chem. Phys., 2016, 145, 054103.
     DOI: 10.1063/1.4959605
   
   in the mass-spec context:
   * V. Asgeirsson, C. Bauer and S. Grimme, Chem. Sci., 2017, 8, 4879.
     DOI: 10.1039/c7sc00601b
   * J. Koopman and S. Grimme, ACS Omega 2019, 4, 12, 15120-15133.
     DOI: 10.1021/acsomega.9b02011
   
   for metadynamics refer to:
   * S. Grimme, J. Chem. Theory Comput., 2019, 155, 2847-2862
     DOI: 10.1021/acs.jctc.9b00143
   
   for SPH calculations refer to:
   * S. Spicher and S. Grimme, J. Chem. Theory Comput., 2021, 17, 1701-1714
     DOI: 10.1021/acs.jctc.0c01306
   
   for ONIOM refer to:
   * C. Plett, A. Katbashev, S. Ehlert, S. Grimme, M. Bursch,
     Phys. Chem. Chem. Phys., 2023, 25, 17860-17868. DOI: 10.1039/D3CP02178E
   
   for DIPRO refer to:
   * J. Kohn, N. Gildemeister, S. Grimme, D. Fazzi, A. Hansen,
     J. Chem. Phys., 2023, just accepted.
   
   for PTB refer to:
   * S. Grimme, M. Mueller, A. Hansen, J. Chem. Phys., 2023, 158, 124111.
     DOI: 10.1063/5.0137838
   
   with help from (in alphabetical order)
   P. Atkinson, C. Bannwarth, F. Bohle, G. Brandenburg, E. Caldeweyher
   M. Checinski, S. Dohm, S. Ehlert, S. Ehrlich, I. Gerasimov, C. Hölzer
   A. Katbashev, J. Kohn, J. Koopman, C. Lavigne, S. Lehtola, F. März, M. Müller,
   F. Musil, H. Neugebauer, J. Pisarek, C. Plett, P. Pracht, F. Pultar,
   J. Seibert, P. Shushkov, S. Spicher, M. Stahn, M. Steiner, T. Strunk,
   J. Stückrath, T. Rose, and J. Unsleber
   
 * started run on 2025/08/24 at 17:18:38.980     
   ID    Z sym.   atoms
    1    6 C      1-5, 7-13, 15-31, 33-46, 48-72
    2    7 N      6, 14, 32, 47
    3    1 H      73-116

           -------------------------------------------------
          |                Calculation Setup                |
           -------------------------------------------------

          program call               : xtb data2507/gas/PPI-An-NPIM/PPI-An-NPIM_gas_T1_crest.xyz --gfn 2 --spinpol --tblite --uhf 2 --ohess vtight --parallel 40 --molden --ceasefiles --namespace data2507/gas/PPI-An-NPIM/PPI-An-NPIM_gas_T1_finalOpt
          calculation namespace      : data2507/gas/PPI-An-NPIM/PPI-An-NPIM_gas_T1_finalOpt
          coordinate file            : data2507/gas/PPI-An-NPIM/PPI-An-NPIM_gas_T1_crest.xyz
          omp threads                :                    40

repulsion energy          3.4033448439673E+00 Eh
dispersion energy         2.1064361959854E-04 Eh
interaction energy        0.0000000000000E+00 Eh
number of electrons       3.3600000000000E+02 e
integral cutoff           1.7347787504999E+01 bohr

------------------------------------------------------------
  cycle        total energy    energy error   density error
------------------------------------------------------------
      1     -179.5663969338  -1.8296995E+02   9.8429620E-02
      2     -179.6894006455  -1.2300371E-01   5.8024596E-02
      3     -179.3726661076   3.1673454E-01   3.4944496E-02
      4     -179.4347208086  -6.2054701E-02   2.4088585E-02
      5     -179.7496849711  -3.1496416E-01   8.3948370E-03
      6     -179.7568019516  -7.1169805E-03   6.1157291E-03
      7     -179.7569647283  -1.6277663E-04   5.2897800E-03
      8     -179.7571933607  -2.2863249E-04   3.1037904E-03
      9     -179.7575771192  -3.8375850E-04   8.6260263E-04
     10     -179.7576534408  -7.6321566E-05   4.6941844E-04
     11     -179.7576692306  -1.5789798E-05   2.8164660E-04
     12     -179.7576713022  -2.0715775E-06   1.5375299E-04
     13     -179.7576734341  -2.1319062E-06   6.8901495E-05
     14     -179.7576738075  -3.7345509E-07   4.5690067E-05
     15     -179.7576740844  -2.7682944E-07   2.7908630E-05
     16     -179.7576741335  -4.9154352E-08   1.2730072E-05
------------------------------------------------------------

electronic energy        -1.8316122962111E+02 Eh
total energy             -1.7975767413352E+02 Eh

 total:                                   0.529 sec
 - repulsion                              0.001 sec (  0%)
 - dispersion                             0.022 sec (  4%)
 - coulomb                                0.011 sec (  2%)
 - hamiltonian                            0.021 sec (  4%)
 - scc                                    0.474 sec ( 89%)

      ----------------------------------------------------------- 
     |                   =====================                   |
     |                        A N C O P T                        |
     |                   =====================                   |
     |               Approximate Normal Coordinate               |
     |                Rational Function Optimizer                |
      ----------------------------------------------------------- 

Optimization log is written to '/dev/null'
      ----------------------------------------------------------- 
     |                   =====================                   |
     |                        A N C O P T                        |
     |                   =====================                   |
     |               Approximate Normal Coordinate               |
     |                Rational Function Optimizer                |
      ----------------------------------------------------------- 

          ...................................................
          :                      SETUP                      :
          :.................................................:
          :   optimization level         verytight          :
          :   max. optcycles                  2320          :
          :   ANC micro-cycles                  20          :
          :   degrees of freedom               342          :
          :.................................................:
          :   RF solver                   davidson          :
          :   write xtbopt.log                true          :
          :   linear?                        false          :
          :   energy convergence         0.1000000E-06 Eh   :
          :   grad. convergence          0.2000000E-03 Eh/α :
          :   maxmium RF displ.          1.0000000          :
          :   Hlow (freq-cutoff)         0.1000000E-01      :
          :   Hmax (freq-cutoff)         5.0000000          :
          :   S6 in model hess.         20.0000000          :
          ...................................................

generating ANC from exact Hessian ...
Using Lindh-Hessian (1995)
 Shifting diagonal of input Hessian by   9.985445005679756E-003
 Lowest  eigenvalues of input Hessian
    0.000000    0.000000    0.000000    0.000000    0.000000    0.000000
    0.010000    0.010024    0.010042    0.010109    0.010137    0.010163
    0.010258    0.010542    0.010723    0.010758    0.010824    0.010950
 Highest eigenvalues
    2.127690    2.139914    2.143869    2.191843    2.241215    2.256416
 

........................................................................
.............................. CYCLE    1 ..............................
........................................................................
------------------------------------------------------------
  cycle        total energy    energy error   density error
------------------------------------------------------------
      1     -179.7576740020  -1.8316123E+02   1.8981757E-05
      2     -179.7576740243  -2.2390452E-08   1.7325182E-05
------------------------------------------------------------

 total:                                   0.095 sec
 * total energy  :  -179.7576740 Eh     change        0.1091724E-06 Eh
   gradient norm :     0.0091575 Eh/α   predicted     0.0000000E+00 (-100.00%)
   displ. norm   :     0.0288873 α      lambda       -0.6134690E-04
   maximum displ.:     0.0102602 α      in ANC's #21, #64, #24, ...

........................................................................
.............................. CYCLE    2 ..............................
........................................................................
------------------------------------------------------------
  cycle        total energy    energy error   density error
------------------------------------------------------------
      1     -179.7577322309  -1.8316170E+02   2.8568578E-04
      2     -179.7577325434  -3.1243769E-07   1.9670075E-04
      3     -179.7577304517   2.0916549E-06   1.3000376E-04
      4     -179.7577345133  -4.0615298E-06   3.7357624E-05
      5     -179.7577349077  -3.9444902E-07   1.6768651E-05
------------------------------------------------------------

 total:                                   0.169 sec
 * total energy  :  -179.7577349 Eh     change       -0.6088335E-04 Eh
   gradient norm :     0.0047734 Eh/α   predicted    -0.4155393E-04 ( -31.75%)
   displ. norm   :     0.0482237 α      lambda       -0.4681636E-04
   maximum displ.:     0.0250457 α      in ANC's #21, #24, #64, ...

........................................................................
.............................. CYCLE    3 ..............................
........................................................................
------------------------------------------------------------
  cycle        total energy    energy error   density error
------------------------------------------------------------
      1     -179.7577628939  -1.8316171E+02   3.4796901E-04
      2     -179.7577634295  -5.3559228E-07   2.0546799E-04
      3     -179.7577587528   4.6767356E-06   1.2657432E-04
      4     -179.7577639405  -5.1877690E-06   3.1750852E-05
      5     -179.7577641448  -2.0425753E-07   1.8466866E-05
------------------------------------------------------------

 total:                                   0.179 sec
 * total energy  :  -179.7577641 Eh     change       -0.2923710E-04 Eh
   gradient norm :     0.0016149 Eh/α   predicted    -0.2482676E-04 ( -15.08%)
   displ. norm   :     0.0512393 α      lambda       -0.9802004E-05
   maximum displ.:     0.0315969 α      in ANC's #21, #24, #23, ...

........................................................................
.............................. CYCLE    4 ..............................
........................................................................
------------------------------------------------------------
  cycle        total energy    energy error   density error
------------------------------------------------------------
      1     -179.7577748040  -1.8316139E+02   2.8623377E-04
      2     -179.7577749696  -1.6563217E-07   1.7030617E-04
      3     -179.7577718341   3.1355205E-06   9.7634954E-05
      4     -179.7577752527  -3.4185765E-06   1.9941403E-05
      5     -179.7577753590  -1.0626658E-07   1.0042992E-05
------------------------------------------------------------

 total:                                   0.168 sec
 * total energy  :  -179.7577754 Eh     change       -0.1121415E-04 Eh
   gradient norm :     0.0017598 Eh/α   predicted    -0.5142343E-05 ( -54.14%)
   displ. norm   :     0.0751943 α      lambda       -0.1141470E-04
   maximum displ.:     0.0473432 α      in ANC's #21, #23, #24, ...

........................................................................
.............................. CYCLE    5 ..............................
........................................................................
------------------------------------------------------------
  cycle        total energy    energy error   density error
------------------------------------------------------------
      1     -179.7577864654  -1.8316115E+02   3.7912168E-04
      2     -179.7577864658  -3.9148063E-10   2.2644437E-04
      3     -179.7577796886   6.7771347E-06   1.3343342E-04
      4     -179.7577870174  -7.3287305E-06   1.6788393E-05
      5     -179.7577870891  -7.1719796E-08   8.6288591E-06
------------------------------------------------------------

 total:                                   0.166 sec
 * total energy  :  -179.7577871 Eh     change       -0.1173013E-04 Eh
   gradient norm :     0.0011679 Eh/α   predicted    -0.5753899E-05 ( -50.95%)
   displ. norm   :     0.0571861 α      lambda       -0.4852031E-05
   maximum displ.:     0.0343141 α      in ANC's #21, #7, #23, ...

........................................................................
.............................. CYCLE    6 ..............................
........................................................................
------------------------------------------------------------
  cycle        total energy    energy error   density error
------------------------------------------------------------
      1     -179.7577925343  -1.8316126E+02   2.6383988E-04
      2     -179.7577925969  -6.2666999E-08   1.5494642E-04
      3     -179.7577920743   5.2261117E-07   4.1702162E-05
      4     -179.7577926602  -5.8591181E-07   6.0097179E-06
------------------------------------------------------------

 total:                                   0.136 sec
 * total energy  :  -179.7577927 Eh     change       -0.5571161E-05 Eh
   gradient norm :     0.0009051 Eh/α   predicted    -0.2440470E-05 ( -56.19%)
   displ. norm   :     0.0633458 α      lambda       -0.4122662E-05
   maximum displ.:     0.0351489 α      in ANC's #21, #7, #8, ...

........................................................................
.............................. CYCLE    7 ..............................
........................................................................
------------------------------------------------------------
  cycle        total energy    energy error   density error
------------------------------------------------------------
      1     -179.7577972357  -1.8316140E+02   2.6040668E-04
      2     -179.7577972396  -3.9064787E-09   1.5342187E-04
      3     -179.7577956815   1.5581767E-06   6.3592804E-05
      4     -179.7577973522  -1.6707305E-06   5.9283477E-06
      5     -179.7577973599  -7.7545508E-09   3.2936780E-06
------------------------------------------------------------

 total:                                   0.164 sec
 * total energy  :  -179.7577974 Eh     change       -0.4699697E-05 Eh
   gradient norm :     0.0004833 Eh/α   predicted    -0.2066514E-05 ( -56.03%)
   displ. norm   :     0.0604730 α      lambda       -0.2763496E-05
   maximum displ.:     0.0300008 α      in ANC's #21, #7, #8, ...

........................................................................
.............................. CYCLE    8 ..............................
........................................................................
------------------------------------------------------------
  cycle        total energy    energy error   density error
------------------------------------------------------------
      1     -179.7578004019  -1.8316158E+02   2.1641290E-04
      2     -179.7578004217  -1.9836534E-08   1.2700910E-04
      3     -179.7577999449   4.7679194E-07   3.7604404E-05
      4     -179.7578004593  -5.1441424E-07   4.6930241E-06
------------------------------------------------------------

 total:                                   0.135 sec
 * total energy  :  -179.7578005 Eh     change       -0.3099407E-05 Eh
   gradient norm :     0.0004277 Eh/α   predicted    -0.1388717E-05 ( -55.19%)
   displ. norm   :     0.0604394 α      lambda       -0.2536524E-05
   maximum displ.:     0.0272766 α      in ANC's #7, #8, #21, ...

........................................................................
.............................. CYCLE    9 ..............................
........................................................................
------------------------------------------------------------
  cycle        total energy    energy error   density error
------------------------------------------------------------
      1     -179.7578033829  -1.8316175E+02   1.9366230E-04
      2     -179.7578033556   2.7283789E-08   1.1444068E-04
      3     -179.7578016599   1.6956810E-06   6.5218877E-05
      4     -179.7578034848  -1.8248871E-06   3.4584632E-06
      5     -179.7578034864  -1.5961348E-09   2.2808692E-06
------------------------------------------------------------

 total:                                   0.172 sec
 * total energy  :  -179.7578035 Eh     change       -0.3027058E-05 Eh
   gradient norm :     0.0005894 Eh/α   predicted    -0.1271771E-05 ( -57.99%)
   displ. norm   :     0.0799650 α      lambda       -0.3217343E-05
   maximum displ.:     0.0367558 α      in ANC's #7, #8, #4, ...

........................................................................
.............................. CYCLE   10 ..............................
........................................................................
------------------------------------------------------------
  cycle        total energy    energy error   density error
------------------------------------------------------------
      1     -179.7578069861  -1.8316188E+02   2.5732641E-04
      2     -179.7578070100  -2.3996847E-08   1.5110015E-04
      3     -179.7578064273   5.8273108E-07   4.1049530E-05
      4     -179.7578070584  -6.3103712E-07   4.4607854E-06
------------------------------------------------------------

 total:                                   0.138 sec
 * total energy  :  -179.7578071 Eh     change       -0.3571953E-05 Eh
   gradient norm :     0.0006285 Eh/α   predicted    -0.1614860E-05 ( -54.79%)
   displ. norm   :     0.0690874 α      lambda       -0.2304346E-05
   maximum displ.:     0.0330451 α      in ANC's #7, #8, #4, ...

........................................................................
.............................. CYCLE   11 ..............................
........................................................................
------------------------------------------------------------
  cycle        total energy    energy error   density error
------------------------------------------------------------
      1     -179.7578093488  -1.8316193E+02   2.3239365E-04
      2     -179.7578093279   2.0863581E-08   1.3673060E-04
      3     -179.7578075574   1.7705137E-06   6.6495030E-05
      4     -179.7578094550  -1.8975779E-06   3.8134882E-06
      5     -179.7578094569  -1.9609558E-09   2.4025403E-06
------------------------------------------------------------

 total:                                   0.164 sec
 * total energy  :  -179.7578095 Eh     change       -0.2398575E-05 Eh
   gradient norm :     0.0003844 Eh/α   predicted    -0.1157786E-05 ( -51.73%)
   displ. norm   :     0.0427589 α      lambda       -0.1287296E-05
   maximum displ.:     0.0219310 α      in ANC's #7, #4, #8, ...

........................................................................
.............................. CYCLE   12 ..............................
........................................................................
------------------------------------------------------------
  cycle        total energy    energy error   density error
------------------------------------------------------------
      1     -179.7578108537  -1.8316189E+02   1.4893743E-04
      2     -179.7578108565  -2.8442173E-09   8.7848588E-05
      3     -179.7578104487   4.0784229E-07   3.4613564E-05
      4     -179.7578108877  -4.3898956E-07   2.9923398E-06
------------------------------------------------------------

 total:                                   0.134 sec
 * total energy  :  -179.7578109 Eh     change       -0.1430755E-05 Eh
   gradient norm :     0.0001889 Eh/α   predicted    -0.6474795E-06 ( -54.75%)
   displ. norm   :     0.0397809 α      lambda       -0.1203675E-05
   maximum displ.:     0.0206485 α      in ANC's #7, #4, #8, ...

........................................................................
.............................. CYCLE   13 ..............................
........................................................................
------------------------------------------------------------
  cycle        total energy    energy error   density error
------------------------------------------------------------
      1     -179.7578122288  -1.8316178E+02   1.4160905E-04
      2     -179.7578122152   1.3578614E-08   8.3932738E-05
      3     -179.7578113387   8.7653368E-07   4.5164510E-05
      4     -179.7578122783  -9.3963848E-07   2.5300722E-06
------------------------------------------------------------

 total:                                   0.135 sec
 * total energy  :  -179.7578123 Eh     change       -0.1390635E-05 Eh
   gradient norm :     0.0003567 Eh/α   predicted    -0.6070140E-06 ( -56.35%)
   displ. norm   :     0.0443500 α      lambda       -0.1225484E-05
   maximum displ.:     0.0226267 α      in ANC's #7, #4, #1, ...

........................................................................
.............................. CYCLE   14 ..............................
........................................................................
------------------------------------------------------------
  cycle        total energy    energy error   density error
------------------------------------------------------------
      1     -179.7578136996  -1.8316161E+02   1.5148451E-04
      2     -179.7578137088  -9.2657046E-09   8.8909338E-05
      3     -179.7578135409   1.6797455E-07   2.2507818E-05
      4     -179.7578137228  -1.8195283E-07   2.8611283E-06
------------------------------------------------------------

 total:                                   0.134 sec
 * total energy  :  -179.7578137 Eh     change       -0.1444493E-05 Eh
   gradient norm :     0.0004489 Eh/α   predicted    -0.6158152E-06 ( -57.37%)
   displ. norm   :     0.0525263 α      lambda       -0.1289427E-05
   maximum displ.:     0.0269612 α      in ANC's #7, #4, #1, ...

........................................................................
.............................. CYCLE   15 ..............................
........................................................................
------------------------------------------------------------
  cycle        total energy    energy error   density error
------------------------------------------------------------
      1     -179.7578152674  -1.8316146E+02   1.7310744E-04
      2     -179.7578152581   9.3845642E-09   1.0186704E-04
      3     -179.7578142902   9.6786104E-07   4.7873521E-05
      4     -179.7578153255  -1.0353019E-06   3.0669576E-06
      5     -179.7578153276  -2.1025528E-09   1.4471526E-06
------------------------------------------------------------

 total:                                   0.163 sec
 * total energy  :  -179.7578153 Eh     change       -0.1604796E-05 Eh
   gradient norm :     0.0003555 Eh/α   predicted    -0.6481480E-06 ( -59.61%)
   displ. norm   :     0.0544246 α      lambda       -0.1188326E-05
   maximum displ.:     0.0283044 α      in ANC's #7, #4, #1, ...

........................................................................
.............................. CYCLE   16 ..............................
........................................................................
------------------------------------------------------------
  cycle        total energy    energy error   density error
------------------------------------------------------------
      1     -179.7578166712  -1.8316137E+02   1.7539536E-04
      2     -179.7578166832  -1.1948714E-08   1.0292807E-04
      3     -179.7578165730   1.1019435E-07   1.8136082E-05
------------------------------------------------------------

 total:                                   0.114 sec
 * total energy  :  -179.7578166 Eh     change       -0.1245375E-05 Eh
   gradient norm :     0.0001920 Eh/α   predicted    -0.5972283E-06 ( -52.04%)
   displ. norm   :     0.0577852 α      lambda       -0.1159362E-05
   maximum displ.:     0.0302203 α      in ANC's #7, #4, #1, ...

........................................................................
.............................. CYCLE   17 ..............................
........................................................................
------------------------------------------------------------
  cycle        total energy    energy error   density error
------------------------------------------------------------
      1     -179.7578158616  -1.8316137E+02   1.9631440E-04
      2     -179.7578153821   4.7946725E-07   1.3025942E-04
      3     -179.7578156092  -2.2711006E-07   9.8772801E-05
      4     -179.7578176220  -2.0128361E-06   2.1154573E-05
      5     -179.7578178043  -1.8225128E-07   2.0412050E-06
------------------------------------------------------------

 total:                                   0.164 sec
 * total energy  :  -179.7578178 Eh     change       -0.1231304E-05 Eh
   gradient norm :     0.0002727 Eh/α   predicted    -0.5827987E-06 ( -52.67%)
   displ. norm   :     0.0605688 α      lambda       -0.1122567E-05
   maximum displ.:     0.0315934 α      in ANC's #7, #4, #1, ...

........................................................................
.............................. CYCLE   18 ..............................
........................................................................
------------------------------------------------------------
  cycle        total energy    energy error   density error
------------------------------------------------------------
      1     -179.7578191085  -1.8316144E+02   1.8445715E-04
      2     -179.7578191212  -1.2708739E-08   1.0818496E-04
      3     -179.7578189692   1.5196775E-07   2.0910003E-05
      4     -179.7578191351  -1.6581760E-07   3.0658333E-06
------------------------------------------------------------

 total:                                   0.135 sec
 * total energy  :  -179.7578191 Eh     change       -0.1330766E-05 Eh
   gradient norm :     0.0003860 Eh/α   predicted    -0.5663042E-06 ( -57.45%)
   displ. norm   :     0.0739089 α      lambda       -0.1295905E-05
   maximum displ.:     0.0380459 α      in ANC's #7, #4, #1, ...

........................................................................
.............................. CYCLE   19 ..............................
........................................................................
------------------------------------------------------------
  cycle        total energy    energy error   density error
------------------------------------------------------------
      1     -179.7578205475  -1.8316158E+02   2.1695746E-04
      2     -179.7578205463   1.2380781E-09   1.2743688E-04
      3     -179.7578196318   9.1447211E-07   4.6858365E-05
      4     -179.7578206089  -9.7708917E-07   3.2878218E-06
------------------------------------------------------------

 total:                                   0.136 sec
 * total energy  :  -179.7578206 Eh     change       -0.1473868E-05 Eh
   gradient norm :     0.0003952 Eh/α   predicted    -0.6529278E-06 ( -55.70%)
   displ. norm   :     0.0746151 α      lambda       -0.1122721E-05
   maximum displ.:     0.0378667 α      in ANC's #7, #4, #1, ...

........................................................................
.............................. CYCLE   20 ..............................
........................................................................
------------------------------------------------------------
  cycle        total energy    energy error   density error
------------------------------------------------------------
      1     -179.7578218415  -1.8316173E+02   2.1077397E-04
      2     -179.7578218538  -1.2333032E-08   1.2357882E-04
      3     -179.7578215138   3.3996187E-07   3.0201573E-05
      4     -179.7578218798  -3.6591277E-07   3.4912933E-06
------------------------------------------------------------

 total:                                   0.134 sec
 * total energy  :  -179.7578219 Eh     change       -0.1270837E-05 Eh
   gradient norm :     0.0002476 Eh/α   predicted    -0.5656315E-06 ( -55.49%)
   displ. norm   :     0.0613504 α      lambda       -0.8242175E-06
   maximum displ.:     0.0304079 α      in ANC's #7, #4, #1, ...
 * RMSD in coord.:     0.0830565 α      energy gain  -0.1477462E-03 Eh

generating ANC from exact Hessian ...
Using Lindh-Hessian (1995)
 Shifting diagonal of input Hessian by   9.984745304703677E-003
 Lowest  eigenvalues of input Hessian
    0.000000    0.000000    0.000000    0.000000    0.000000    0.000000
    0.010000    0.010023    0.010041    0.010109    0.010137    0.010163
    0.010259    0.010547    0.010721    0.010760    0.010828    0.010954
 Highest eigenvalues
    2.125878    2.140617    2.143986    2.191843    2.243506    2.256515
 

........................................................................
.............................. CYCLE   21 ..............................
........................................................................
------------------------------------------------------------
  cycle        total energy    energy error   density error
------------------------------------------------------------
      1     -179.7578227896  -1.8316184E+02   1.6750689E-04
      2     -179.7578227911  -1.5359376E-09   9.8244418E-05
      3     -179.7578221365   6.5459739E-07   3.9345353E-05
      4     -179.7578228367  -7.0016333E-07   3.7274196E-06
------------------------------------------------------------

 total:                                   0.134 sec
 * total energy  :  -179.7578228 Eh     change       -0.9569081E-06 Eh
   gradient norm :     0.0001303 Eh/α   predicted     0.0000000E+00 (-100.00%)
   displ. norm   :     0.0072189 α      lambda       -0.1493500E-07
   maximum displ.:     0.0027041 α      in ANC's #15, #23, #28, ...

........................................................................
.............................. CYCLE   22 ..............................
........................................................................
------------------------------------------------------------
  cycle        total energy    energy error   density error
------------------------------------------------------------
      1     -179.7578232070  -1.8316182E+02   3.1836794E-05
      2     -179.7578232001   6.9212831E-09   2.0756420E-05
      3     -179.7578231936   6.5581673E-09   1.5709596E-05
------------------------------------------------------------

 total:                                   0.106 sec
 * total energy  :  -179.7578232 Eh     change       -0.3568852E-06 Eh
   gradient norm :     0.0000874 Eh/α   predicted    -0.1540311E-06 ( -56.84%)
   displ. norm   :     0.0469748 α      lambda       -0.1637678E-05
   maximum displ.:     0.0181371 α      in ANC's #15, #23, #19, ...

........................................................................
.............................. CYCLE   23 ..............................
........................................................................
------------------------------------------------------------
  cycle        total energy    energy error   density error
------------------------------------------------------------
      1     -179.7578233278  -1.8316162E+02   1.9423068E-04
      2     -179.7578228050   5.2285043E-07   1.2404089E-04
      3     -179.7578208415   1.9634730E-06   1.0751790E-04
      4     -179.7578243904  -3.5488818E-06   7.3357928E-06
      5     -179.7578244063  -1.5937474E-08   2.0441877E-06
------------------------------------------------------------

 total:                                   0.161 sec
 * total energy  :  -179.7578244 Eh     change       -0.1212748E-05 Eh
   gradient norm :     0.0002106 Eh/α   predicted    -0.8201785E-06 ( -32.37%)
   displ. norm   :     0.0073723 α      lambda       -0.2242654E-06
   maximum displ.:     0.0028999 α      in ANC's #3, #1, #15, ...

........................................................................
.............................. CYCLE   24 ..............................
........................................................................
------------------------------------------------------------
  cycle        total energy    energy error   density error
------------------------------------------------------------
      1     -179.7578246798  -1.8316160E+02   2.8514258E-05
      2     -179.7578246808  -9.6687813E-10   1.6962325E-05
------------------------------------------------------------

 total:                                   0.080 sec
 * total energy  :  -179.7578247 Eh     change       -0.2744765E-06 Eh
   gradient norm :     0.0000979 Eh/α   predicted    -0.1123287E-06 ( -59.08%)
   displ. norm   :     0.0278193 α      lambda       -0.6375457E-06
   maximum displ.:     0.0110001 α      in ANC's #3, #1, #8, ...

........................................................................
.............................. CYCLE   25 ..............................
........................................................................
------------------------------------------------------------
  cycle        total energy    energy error   density error
------------------------------------------------------------
      1     -179.7578252732  -1.8316159E+02   9.8750811E-05
      2     -179.7578252860  -1.2762001E-08   5.8671537E-05
      3     -179.7578249793   3.0666834E-07   3.2063589E-05
      4     -179.7578253311  -3.5178152E-07   2.3353517E-06
------------------------------------------------------------

 total:                                   0.132 sec
 * total energy  :  -179.7578253 Eh     change       -0.6503454E-06 Eh
   gradient norm :     0.0002512 Eh/α   predicted    -0.3236784E-06 ( -50.23%)
   displ. norm   :     0.0264233 α      lambda       -0.3774534E-06
   maximum displ.:     0.0110120 α      in ANC's #3, #1, #8, ...

........................................................................
.............................. CYCLE   26 ..............................
........................................................................
------------------------------------------------------------
  cycle        total energy    energy error   density error
------------------------------------------------------------
      1     -179.7578257378  -1.8316160E+02   8.5857970E-05
      2     -179.7578257327   5.1359166E-09   5.1031468E-05
      3     -179.7578253255   4.0714204E-07   3.2158615E-05
      4     -179.7578257695  -4.4401881E-07   2.7112458E-06
------------------------------------------------------------

 total:                                   0.135 sec
 * total energy  :  -179.7578258 Eh     change       -0.4384138E-06 Eh
   gradient norm :     0.0002628 Eh/α   predicted    -0.1904489E-06 ( -56.56%)
   displ. norm   :     0.0324138 α      lambda       -0.4141876E-06
   maximum displ.:     0.0141881 α      in ANC's #3, #1, #8, ...

........................................................................
.............................. CYCLE   27 ..............................
........................................................................
------------------------------------------------------------
  cycle        total energy    energy error   density error
------------------------------------------------------------
      1     -179.7578262142  -1.8316163E+02   9.6534980E-05
      2     -179.7578262007   1.3506252E-08   5.7859109E-05
      3     -179.7578255700   6.3062728E-07   4.1935110E-05
      4     -179.7578262696  -6.9961109E-07   3.4782348E-06
------------------------------------------------------------

 total:                                   0.132 sec
 * total energy  :  -179.7578263 Eh     change       -0.5001016E-06 Eh
   gradient norm :     0.0001498 Eh/α   predicted    -0.2093614E-06 ( -58.14%)
   displ. norm   :     0.0326233 α      lambda       -0.3812033E-06
   maximum displ.:     0.0149844 α      in ANC's #3, #1, #5, ...

........................................................................
.............................. CYCLE   28 ..............................
........................................................................
------------------------------------------------------------
  cycle        total energy    energy error   density error
------------------------------------------------------------
      1     -179.7578265244  -1.8316168E+02   8.7845871E-05
      2     -179.7578265018   2.2614756E-08   5.3202418E-05
      3     -179.7578258331   6.6869794E-07   4.3523036E-05
      4     -179.7578266094  -7.7635647E-07   4.3568057E-06
------------------------------------------------------------

 total:                                   0.135 sec
 * total energy  :  -179.7578266 Eh     change       -0.3398066E-06 Eh
   gradient norm :     0.0000998 Eh/α   predicted    -0.1923377E-06 ( -43.40%)
   displ. norm   :     0.0371736 α      lambda       -0.4173974E-06
   maximum displ.:     0.0176966 α      in ANC's #1, #3, #5, ...

........................................................................
.............................. CYCLE   29 ..............................
........................................................................
------------------------------------------------------------
  cycle        total energy    energy error   density error
------------------------------------------------------------
      1     -179.7578270364  -1.8316172E+02   9.2003385E-05
      2     -179.7578270350   1.4451018E-09   5.5373535E-05
      3     -179.7578265354   4.9961884E-07   4.1627937E-05
      4     -179.7578271222  -5.8686425E-07   5.9597962E-06
------------------------------------------------------------

 total:                                   0.135 sec
 * total energy  :  -179.7578271 Eh     change       -0.5127855E-06 Eh
   gradient norm :     0.0002057 Eh/α   predicted    -0.2106954E-06 ( -58.91%)
   displ. norm   :     0.0442060 α      lambda       -0.4915361E-06
   maximum displ.:     0.0216836 α      in ANC's #1, #3, #5, ...

........................................................................
.............................. CYCLE   30 ..............................
........................................................................
------------------------------------------------------------
  cycle        total energy    energy error   density error
------------------------------------------------------------
      1     -179.7578274839  -1.8316177E+02   1.0653333E-04
      2     -179.7578273959   8.7948109E-08   6.6215850E-05
      3     -179.7578265461   8.4982685E-07   5.8003144E-05
      4     -179.7578277276  -1.1815359E-06   6.2429453E-06
      5     -179.7578277398  -1.2158694E-08   1.3861138E-06
------------------------------------------------------------

 total:                                   0.158 sec
 * total energy  :  -179.7578277 Eh     change       -0.6175780E-06 Eh
   gradient norm :     0.0002282 Eh/α   predicted    -0.2476444E-06 ( -59.90%)
   displ. norm   :     0.0486416 α      lambda       -0.4735403E-06
   maximum displ.:     0.0243589 α      in ANC's #1, #3, #5, ...

........................................................................
.............................. CYCLE   31 ..............................
........................................................................
------------------------------------------------------------
  cycle        total energy    energy error   density error
------------------------------------------------------------
      1     -179.7578286276  -1.8316179E+02   1.1210763E-04
      2     -179.7578286351  -7.4183788E-09   6.5634485E-05
      3     -179.7578285594   7.5657084E-08   1.4017663E-05
------------------------------------------------------------

 total:                                   0.105 sec
 * total energy  :  -179.7578286 Eh     change       -0.8196019E-06 Eh
   gradient norm :     0.0001783 Eh/α   predicted    -0.2415017E-06 ( -70.53%)
   displ. norm   :     0.0482885 α      lambda       -0.4456415E-06
   maximum displ.:     0.0247369 α      in ANC's #1, #3, #4, ...

........................................................................
.............................. CYCLE   32 ..............................
........................................................................
------------------------------------------------------------
  cycle        total energy    energy error   density error
------------------------------------------------------------
      1     -179.7578277793  -1.8316178E+02   1.2227710E-04
      2     -179.7578273152   4.6404307E-07   9.0282769E-05
      3     -179.7578286113  -1.2960618E-06   5.7266353E-05
      4     -179.7578290985  -4.8722180E-07   1.4480562E-05
------------------------------------------------------------

 total:                                   0.134 sec
 * total energy  :  -179.7578291 Eh     change       -0.5390968E-06 Eh
   gradient norm :     0.0000965 Eh/α   predicted    -0.2255892E-06 ( -58.15%)
   displ. norm   :     0.0450577 α      lambda       -0.4257829E-06
   maximum displ.:     0.0235993 α      in ANC's #1, #3, #4, ...

........................................................................
.............................. CYCLE   33 ..............................
........................................................................
------------------------------------------------------------
  cycle        total energy    energy error   density error
------------------------------------------------------------
      1     -179.7578281312  -1.8316176E+02   1.1527076E-04
      2     -179.7578279066   2.2464982E-07   8.4014342E-05
      3     -179.7578291392  -1.2326464E-06   5.0758282E-05
      4     -179.7578293996  -2.6040070E-07   1.7325026E-05
------------------------------------------------------------

 total:                                   0.133 sec
 * total energy  :  -179.7578294 Eh     change       -0.3011379E-06 Eh
   gradient norm :     0.0001258 Eh/α   predicted    -0.2170655E-06 ( -27.92%)
   displ. norm   :     0.0548811 α      lambda       -0.5811183E-06
   maximum displ.:     0.0290398 α      in ANC's #1, #3, #4, ...

........................................................................
.............................. CYCLE   34 ..............................
........................................................................
------------------------------------------------------------
  cycle        total energy    energy error   density error
------------------------------------------------------------
      1     -179.7578277185  -1.8316171E+02   1.3943794E-04
      2     -179.7578269077   8.1077670E-07   1.0867805E-04
      3     -179.7578293779  -2.4702380E-06   6.2488506E-05
      4     -179.7578298490  -4.7102770E-07   1.7792485E-05
------------------------------------------------------------

 total:                                   0.133 sec
 * total energy  :  -179.7578298 Eh     change       -0.4493201E-06 Eh
   gradient norm :     0.0002060 Eh/α   predicted    -0.2925686E-06 ( -34.89%)
   displ. norm   :     0.0660721 α      lambda       -0.6759547E-06
   maximum displ.:     0.0352284 α      in ANC's #1, #3, #4, ...

........................................................................
.............................. CYCLE   35 ..............................
........................................................................
------------------------------------------------------------
  cycle        total energy    energy error   density error
------------------------------------------------------------
      1     -179.7578291026  -1.8316163E+02   1.6174242E-04
      2     -179.7578289364   1.6621118E-07   1.1004610E-04
      3     -179.7578299054  -9.6891893E-07   7.5167947E-05
      4     -179.7578307334  -8.2805408E-07   2.3103480E-05
      5     -179.7578309521  -2.1873785E-07   2.3437275E-06
------------------------------------------------------------

 total:                                   0.161 sec
 * total energy  :  -179.7578310 Eh     change       -0.1103181E-05 Eh
   gradient norm :     0.0002121 Eh/α   predicted    -0.3396045E-06 ( -69.22%)
   displ. norm   :     0.0687427 α      lambda       -0.6393448E-06
   maximum displ.:     0.0369749 α      in ANC's #1, #3, #4, ...

........................................................................
.............................. CYCLE   36 ..............................
........................................................................
------------------------------------------------------------
  cycle        total energy    energy error   density error
------------------------------------------------------------
      1     -179.7578317337  -1.8316159E+02   1.4993440E-04
      2     -179.7578317470  -1.3255004E-08   8.7818897E-05
      3     -179.7578315763   1.7070400E-07   2.2748824E-05
      4     -179.7578317658  -1.8956925E-07   2.3462141E-06
------------------------------------------------------------

 total:                                   0.134 sec
 * total energy  :  -179.7578318 Eh     change       -0.8136993E-06 Eh
   gradient norm :     0.0001438 Eh/α   predicted    -0.3234097E-06 ( -60.25%)
   displ. norm   :     0.0730349 α      lambda       -0.6905935E-06
   maximum displ.:     0.0395858 α      in ANC's #1, #3, #4, ...

........................................................................
.............................. CYCLE   37 ..............................
........................................................................
------------------------------------------------------------
  cycle        total energy    energy error   density error
------------------------------------------------------------
      1     -179.7578326320  -1.8316155E+02   1.5753863E-04
      2     -179.7578326445  -1.2435152E-08   9.2284539E-05
      3     -179.7578325428   1.0170081E-07   1.6855539E-05
------------------------------------------------------------

 total:                                   0.108 sec
 * total energy  :  -179.7578325 Eh     change       -0.7769305E-06 Eh
   gradient norm :     0.0001010 Eh/α   predicted    -0.3476994E-06 ( -55.25%)
   displ. norm   :     0.0854825 α      lambda       -0.8319644E-06
   maximum displ.:     0.0466297 α      in ANC's #3, #1, #4, ...

........................................................................
.............................. CYCLE   38 ..............................
........................................................................
------------------------------------------------------------
  cycle        total energy    energy error   density error
------------------------------------------------------------
      1     -179.7578319918  -1.8316155E+02   1.9359146E-04
      2     -179.7578319869   4.8311222E-09   1.2378195E-04
      3     -179.7578318576   1.2932546E-07   9.0457800E-05
      4     -179.7578336175  -1.7598603E-06   1.4713368E-05
      5     -179.7578337086  -9.1068756E-08   2.3159361E-06
------------------------------------------------------------

 total:                                   0.180 sec
 * total energy  :  -179.7578337 Eh     change       -0.1165777E-05 Eh
   gradient norm :     0.0001566 Eh/α   predicted    -0.4211305E-06 ( -63.88%)
   displ. norm   :     0.0989473 α      lambda       -0.9347652E-06
   maximum displ.:     0.0543448 α      in ANC's #3, #1, #4, ...

........................................................................
.............................. CYCLE   39 ..............................
........................................................................
------------------------------------------------------------
  cycle        total energy    energy error   density error
------------------------------------------------------------
      1     -179.7578348164  -1.8316157E+02   2.1111047E-04
      2     -179.7578348341  -1.7743588E-08   1.2362787E-04
      3     -179.7578344483   3.8581058E-07   3.0357493E-05
      4     -179.7578348653  -4.1693329E-07   3.7563891E-06
------------------------------------------------------------

 total:                                   0.133 sec
 * total energy  :  -179.7578349 Eh     change       -0.1156706E-05 Eh
   gradient norm :     0.0002186 Eh/α   predicted    -0.4704690E-06 ( -59.33%)
   displ. norm   :     0.1088923 α      lambda       -0.9705387E-06
   maximum displ.:     0.0600778 α      in ANC's #3, #1, #4, ...

........................................................................
.............................. CYCLE   40 ..............................
........................................................................
------------------------------------------------------------
  cycle        total energy    energy error   density error
------------------------------------------------------------
      1     -179.7578363996  -1.8316161E+02   2.3355906E-04
      2     -179.7578364096  -9.9955457E-09   1.3701098E-04
      3     -179.7578354815   9.2802887E-07   4.6801091E-05
      4     -179.7578364761  -9.9452771E-07   3.7993009E-06
------------------------------------------------------------

 total:                                   0.134 sec
 * total energy  :  -179.7578365 Eh     change       -0.1610800E-05 Eh
   gradient norm :     0.0002253 Eh/α   predicted    -0.4885745E-06 ( -69.67%)
   displ. norm   :     0.1243246 α      lambda       -0.1056742E-05
   maximum displ.:     0.0688296 α      in ANC's #3, #1, #4, ...

........................................................................
.............................. CYCLE   41 ..............................
........................................................................
------------------------------------------------------------
  cycle        total energy    energy error   density error
------------------------------------------------------------
      1     -179.7578376954  -1.8316168E+02   2.7041799E-04
      2     -179.7578377296  -3.4208739E-08   1.5842075E-04
      3     -179.7578372577   4.7189701E-07   3.4277326E-05
      4     -179.7578377695  -5.1181254E-07   5.3858033E-06
------------------------------------------------------------

 total:                                   0.134 sec
 * total energy  :  -179.7578378 Eh     change       -0.1293468E-05 Eh
   gradient norm :     0.0001813 Eh/α   predicted    -0.5323520E-06 ( -58.84%)
   displ. norm   :     0.1385728 α      lambda       -0.1097184E-05
   maximum displ.:     0.0769378 α      in ANC's #3, #1, #4, ...

........................................................................
.............................. CYCLE   42 ..............................
........................................................................
------------------------------------------------------------
  cycle        total energy    energy error   density error
------------------------------------------------------------
      1     -179.7578383373  -1.8316174E+02   3.0701424E-04
      2     -179.7578383371   2.1142910E-10   1.8041346E-04
      3     -179.7578360547   2.2823704E-06   7.3600481E-05
      4     -179.7578384965  -2.4417830E-06   5.3723404E-06
      5     -179.7578384998  -3.3421657E-09   3.1749263E-06
------------------------------------------------------------

 total:                                   0.162 sec
 * total energy  :  -179.7578385 Eh     change       -0.7303011E-06 Eh
   gradient norm :     0.0001072 Eh/α   predicted    -0.5545136E-06 ( -24.07%)
   displ. norm   :     0.1372964 α      lambda       -0.9591082E-06
   maximum displ.:     0.0764451 α      in ANC's #3, #1, #4, ...
 * RMSD in coord.:     0.1163153 α      energy gain  -0.1662007E-04 Eh

generating ANC from exact Hessian ...
Using Lindh-Hessian (1995)
 Shifting diagonal of input Hessian by   9.984963788761870E-003
 Lowest  eigenvalues of input Hessian
    0.000000    0.000000    0.000000    0.000000    0.000000    0.000000
    0.010000    0.010023    0.010041    0.010109    0.010137    0.010163
    0.010257    0.010552    0.010718    0.010759    0.010830    0.010951
 Highest eigenvalues
    2.125434    2.140647    2.143952    2.191831    2.243898    2.256366
 

........................................................................
.............................. CYCLE   43 ..............................
........................................................................
------------------------------------------------------------
  cycle        total energy    energy error   density error
------------------------------------------------------------
      1     -179.7578395131  -1.8316179E+02   3.1017873E-04
      2     -179.7578395667  -5.3593567E-08   1.8176592E-04
      3     -179.7578391631   4.0360317E-07   3.5159405E-05
      4     -179.7578396116  -4.4852283E-07   5.7578949E-06
------------------------------------------------------------

 total:                                   0.134 sec
 * total energy  :  -179.7578396 Eh     change       -0.1111775E-05 Eh
   gradient norm :     0.0000973 Eh/α   predicted     0.0000000E+00 (-100.00%)
   displ. norm   :     0.0064122 α      lambda       -0.1094531E-07
   maximum displ.:     0.0026140 α      in ANC's #24, #25, #16, ...

........................................................................
.............................. CYCLE   44 ..............................
........................................................................
------------------------------------------------------------
  cycle        total energy    energy error   density error
------------------------------------------------------------
      1     -179.7578398109  -1.8316186E+02   3.4542925E-05
      2     -179.7578397581   5.2814528E-08   2.6138922E-05
      3     -179.7578398980  -1.3994904E-07   1.5905118E-05
------------------------------------------------------------

 total:                                   0.106 sec
 * total energy  :  -179.7578399 Eh     change       -0.2864430E-06 Eh
   gradient norm :     0.0000641 Eh/α   predicted    -0.1212982E-06 ( -57.65%)
   displ. norm   :     0.0400207 α      lambda       -0.1225523E-05
   maximum displ.:     0.0153470 α      in ANC's #24, #25, #16, ...

........................................................................
.............................. CYCLE   45 ..............................
........................................................................
------------------------------------------------------------
  cycle        total energy    energy error   density error
------------------------------------------------------------
      1     -179.7578399522  -1.8316185E+02   1.8316297E-04
      2     -179.7578395250   4.2719398E-07   1.1758016E-04
      3     -179.7578373794   2.1456584E-06   1.0155074E-04
      4     -179.7578407909  -3.4115479E-06   4.5276506E-06
      5     -179.7578407965  -5.6091665E-09   1.7648741E-06
------------------------------------------------------------

 total:                                   0.163 sec
 * total energy  :  -179.7578408 Eh     change       -0.8984983E-06 Eh
   gradient norm :     0.0001676 Eh/α   predicted    -0.6137700E-06 ( -31.69%)
   displ. norm   :     0.0048072 α      lambda       -0.1317542E-06
   maximum displ.:     0.0016451 α      in ANC's #13, #8, #7, ...

........................................................................
.............................. CYCLE   46 ..............................
........................................................................
------------------------------------------------------------
  cycle        total energy    energy error   density error
------------------------------------------------------------
      1     -179.7578409512  -1.8316173E+02   2.1037423E-05
      2     -179.7578409505   6.5546146E-10   1.3079114E-05
------------------------------------------------------------

 total:                                   0.076 sec
 * total energy  :  -179.7578410 Eh     change       -0.1540006E-06 Eh
   gradient norm :     0.0000830 Eh/α   predicted    -0.6600827E-07 ( -57.14%)
   displ. norm   :     0.0209324 α      lambda       -0.3868414E-06
   maximum displ.:     0.0074440 α      in ANC's #13, #8, #7, ...

........................................................................
.............................. CYCLE   47 ..............................
........................................................................
------------------------------------------------------------
  cycle        total energy    energy error   density error
------------------------------------------------------------
      1     -179.7578412351  -1.8316157E+02   8.8048880E-05
      2     -179.7578412200   1.5095935E-08   5.4766106E-05
      3     -179.7578409302   2.8980730E-07   4.3081611E-05
      4     -179.7578413876  -4.5738113E-07   3.1934521E-06
------------------------------------------------------------

 total:                                   0.135 sec
 * total energy  :  -179.7578414 Eh     change       -0.4370696E-06 Eh
   gradient norm :     0.0001718 Eh/α   predicted    -0.1954299E-06 ( -55.29%)
   displ. norm   :     0.0188482 α      lambda        0.1065740E-06
   maximum displ.:     0.0066899 α      in ANC's #13, #8, #7, ...

........................................................................
.............................. CYCLE   48 ..............................
........................................................................
------------------------------------------------------------
  cycle        total energy    energy error   density error
------------------------------------------------------------
      1     -179.7578412823  -1.8316140E+02   7.8607581E-05
      2     -179.7578412728   9.4822781E-09   4.6669953E-05
      3     -179.7578408584   4.1447993E-07   3.4838124E-05
      4     -179.7578413219  -4.6353895E-07   2.9187464E-06
------------------------------------------------------------

 total:                                   0.133 sec
 * total energy  :  -179.7578413 Eh     change        0.6572040E-07 Eh
   gradient norm :     0.0003821 Eh/α   predicted     0.5194168E-07 ( -20.97%)
   displ. norm   :     0.0063243 α      lambda       -0.2191736E-06
   maximum displ.:     0.0020192 α      in ANC's #21, #13, #16, ...

........................................................................
.............................. CYCLE   49 ..............................
........................................................................
------------------------------------------------------------
  cycle        total energy    energy error   density error
------------------------------------------------------------
      1     -179.7578414923  -1.8316163E+02   3.2246872E-05
      2     -179.7578414759   1.6443835E-08   2.3130686E-05
      3     -179.7578414894  -1.3492951E-08   1.5456894E-05
------------------------------------------------------------

 total:                                   0.105 sec
 * total energy  :  -179.7578415 Eh     change       -0.1674606E-06 Eh
   gradient norm :     0.0001604 Eh/α   predicted    -0.1120292E-06 ( -33.10%)
   displ. norm   :     0.0057307 α      lambda       -0.1194202E-06
   maximum displ.:     0.0023314 α      in ANC's #7, #3, #8, ...

........................................................................
.............................. CYCLE   50 ..............................
........................................................................
------------------------------------------------------------
  cycle        total energy    energy error   density error
------------------------------------------------------------
      1     -179.7578404763  -1.8316178E+02   5.7398877E-05
      2     -179.7578398715   6.0485604E-07   6.1911338E-05
      3     -179.7578416691  -1.7976187E-06   1.1992794E-05
      4     -179.7578416683   7.8995299E-10   5.7697297E-06
------------------------------------------------------------

 total:                                   0.136 sec
 * total energy  :  -179.7578417 Eh     change       -0.1789669E-06 Eh
   gradient norm :     0.0000604 Eh/α   predicted    -0.6231572E-07 ( -65.18%)
   displ. norm   :     0.0148950 α      lambda       -0.1276788E-06
   maximum displ.:     0.0061619 α      in ANC's #7, #3, #8, ...

........................................................................
.............................. CYCLE   51 ..............................
........................................................................
------------------------------------------------------------
  cycle        total energy    energy error   density error
------------------------------------------------------------
      1     -179.7578416673  -1.8316192E+02   5.6824474E-05
      2     -179.7578416896  -2.2301975E-08   3.6080682E-05
      3     -179.7578417174  -2.7842759E-08   2.5409291E-05
      4     -179.7578418255  -1.0800551E-07   3.9168161E-06
------------------------------------------------------------

 total:                                   0.131 sec
 * total energy  :  -179.7578418 Eh     change       -0.1571324E-06 Eh
   gradient norm :     0.0001422 Eh/α   predicted    -0.6694140E-07 ( -57.40%)
   displ. norm   :     0.0203584 α      lambda       -0.1411895E-06
   maximum displ.:     0.0084619 α      in ANC's #7, #3, #8, ...

........................................................................
.............................. CYCLE   52 ..............................
........................................................................
------------------------------------------------------------
  cycle        total energy    energy error   density error
------------------------------------------------------------
      1     -179.7578418894  -1.8316195E+02   7.2160039E-05
      2     -179.7578418520   3.7338339E-08   4.5054584E-05
      3     -179.7578415184   3.3360612E-07   3.8556582E-05
      4     -179.7578419960  -4.7762060E-07   4.0988657E-06
------------------------------------------------------------

 total:                                   0.133 sec
 * total energy  :  -179.7578420 Eh     change       -0.1705914E-06 Eh
   gradient norm :     0.0001756 Eh/α   predicted    -0.7151656E-07 ( -58.08%)
   displ. norm   :     0.0229810 α      lambda       -0.1502637E-06
   maximum displ.:     0.0097228 α      in ANC's #3, #7, #8, ...

........................................................................
.............................. CYCLE   53 ..............................
........................................................................
------------------------------------------------------------
  cycle        total energy    energy error   density error
------------------------------------------------------------
      1     -179.7578420558  -1.8316189E+02   7.8274943E-05
      2     -179.7578420425   1.3316878E-08   4.8322032E-05
      3     -179.7578416774   3.6509675E-07   3.8788856E-05
      4     -179.7578421640  -4.8661465E-07   6.1660138E-06
------------------------------------------------------------

 total:                                   0.138 sec
 * total energy  :  -179.7578422 Eh     change       -0.1680029E-06 Eh
   gradient norm :     0.0001379 Eh/α   predicted    -0.7827761E-07 ( -53.41%)
   displ. norm   :     0.0269305 α      lambda       -0.1557370E-06
   maximum displ.:     0.0119046 α      in ANC's #3, #7, #1, ...

........................................................................
.............................. CYCLE   54 ..............................
........................................................................
------------------------------------------------------------
  cycle        total energy    energy error   density error
------------------------------------------------------------
      1     -179.7578420973  -1.8316180E+02   8.8601485E-05
      2     -179.7578420123   8.5002966E-08   5.7479537E-05
      3     -179.7578416883   3.2399828E-07   4.6884282E-05
      4     -179.7578423385  -6.5023153E-07   6.6617245E-06
------------------------------------------------------------

 total:                                   0.133 sec
 * total energy  :  -179.7578423 Eh     change       -0.1744730E-06 Eh
   gradient norm :     0.0000611 Eh/α   predicted    -0.7994742E-07 ( -54.18%)
   displ. norm   :     0.0233119 α      lambda       -0.1161372E-06
   maximum displ.:     0.0108388 α      in ANC's #3, #7, #1, ...

........................................................................
.............................. CYCLE   55 ..............................
........................................................................
------------------------------------------------------------
  cycle        total energy    energy error   density error
------------------------------------------------------------
      1     -179.7578422167  -1.8316173E+02   7.4181691E-05
      2     -179.7578422106   6.1199046E-09   4.8381182E-05
      3     -179.7578422028   7.8590290E-09   3.5529421E-05
      4     -179.7578424608  -2.5800711E-07   1.0220665E-05
------------------------------------------------------------

 total:                                   0.134 sec
 * total energy  :  -179.7578425 Eh     change       -0.1222564E-06 Eh
   gradient norm :     0.0000866 Eh/α   predicted    -0.6082200E-07 ( -50.25%)
   displ. norm   :     0.0298891 α      lambda       -0.1503804E-06
   maximum displ.:     0.0143571 α      in ANC's #3, #7, #1, ...

........................................................................
.............................. CYCLE   56 ..............................
........................................................................
------------------------------------------------------------
  cycle        total energy    energy error   density error
------------------------------------------------------------
      1     -179.7578419455  -1.8316169E+02   9.4674675E-05
      2     -179.7578416895   2.5604373E-07   6.8749259E-05
      3     -179.7578422779  -5.8848627E-07   4.5527052E-05
      4     -179.7578426347  -3.5676189E-07   1.0470742E-05
------------------------------------------------------------

 total:                                   0.132 sec
 * total energy  :  -179.7578426 Eh     change       -0.1739317E-06 Eh
   gradient norm :     0.0001227 Eh/α   predicted    -0.7767995E-07 ( -55.34%)
   displ. norm   :     0.0215496 α      lambda       -0.9824727E-07
   maximum displ.:     0.0108386 α      in ANC's #3, #1, #7, ...

........................................................................
.............................. CYCLE   57 ..............................
........................................................................
------------------------------------------------------------
  cycle        total energy    energy error   density error
------------------------------------------------------------
      1     -179.7578421613  -1.8316170E+02   7.1372094E-05
      2     -179.7578421602   1.1320367E-09   5.1438895E-05
      3     -179.7578426677  -5.0753832E-07   3.0197798E-05
      4     -179.7578427212  -5.3511684E-08   1.4033596E-05
------------------------------------------------------------

 total:                                   0.141 sec
 * total energy  :  -179.7578427 Eh     change       -0.8653478E-07 Eh
   gradient norm :     0.0000939 Eh/α   predicted    -0.5266018E-07 ( -39.15%)
   displ. norm   :     0.0188850 α      lambda       -0.9507900E-07
   maximum displ.:     0.0098619 α      in ANC's #3, #1, #7, ...

   *** GEOMETRY OPTIMIZATION CONVERGED AFTER 57 ITERATIONS ***

------------------------------------------------------------------------
 total energy gain   :        -0.0001686 Eh       -0.1058 kcal/mol
 total RMSD          :         0.1813804 a0        0.0960 Å
 total power (kW/mol):        -0.0077654 (step)   -0.0541 (real)
------------------------------------------------------------------------

 ANCopt (total)                0 d,  0 h,  0 min,  8.182 sec
 optimizer setup                ...        0 min,  0.001 sec (  0.007%)
 model hessian                  ...        0 min,  0.210 sec (  2.561%)
 ANC generation                 ...        0 min,  0.042 sec (  0.518%)
 coordinate transformation      ...        0 min,  0.008 sec (  0.093%)
 single point calculation       ...        0 min,  7.857 sec ( 96.029%)
 optimization log               ...        0 min,  0.017 sec (  0.210%)
 hessian update                 ...        0 min,  0.011 sec (  0.130%)
 rational function              ...        0 min,  0.012 sec (  0.146%)

================
 final structure:
================
116
 xtb: 6.7.1 (edcfbbe)
C          -13.11092096662537       -2.43453410672357       -0.70716429541185
C          -13.11748915288676       -1.20427345186243       -0.06977819136148
C          -11.93918191678745       -0.50416672659738        0.09937360054188
C          -10.73272713078989       -1.02830016258380       -0.36337224940347
C           -9.51289898168539       -0.25989498543263       -0.17015096565490
N           -9.56016832940935        1.09441488086119       -0.04168283174282
C           -8.32605140401178        1.51592429792941        0.07961559039174
C           -7.96251057937904        2.90855474536543        0.27915732647259
C           -8.77244259046184        3.89174064669346       -0.28962975420549
C           -8.46931414605012        5.22854590959381       -0.12325088345149
C           -7.35793656253586        5.60409628011951        0.61471115586891
C           -6.56356756965239        4.63419654353794        1.20311028243675
C           -6.86296942483215        3.29400939445746        1.04462548433289
N           -7.44401377533703        0.46691651824195        0.03075103422974
C           -6.04186531926937        0.51497626198913        0.07889195636200
C           -5.34053889940410        1.30935973658305       -0.82450278670161
C           -3.96298374361615        1.32715546971877       -0.79803237528344
C           -3.25111764780089        0.54149988155193        0.11399814891389
C           -1.79108165384309        0.53290661270642        0.11613210744864
C           -1.07232255287443        1.75444041269959        0.30418050336362
C           -1.73366383061626        2.95525201566914        0.57651406947406
C           -1.03337056133284        4.13490278346835        0.81410329257531
C            0.34388137008484        4.12094127985631        0.83115551885500
C            1.02825711284854        2.92905111786142        0.60437438922052
C            0.35322244180915        1.74227784418476        0.30970245870989
C            1.05600371869894        0.50950333363241        0.11281743154221
C            2.51091821397941        0.49764785610568        0.09930751208568
C            3.23238927588371       -0.34064999700928        0.95832894389009
C            4.60830260018149       -0.37295466873512        0.93772684307624
C            5.32206337149973        0.41929248562252        0.03485753290508
C            6.76670380797536        0.41614891593625       -0.06105010326920
N            7.46473657875539        1.48237509600679       -0.37206657691464
C            8.76507046359186        1.09943140602449       -0.35385379531097
C            9.91459101490408        1.90574929557874       -0.58323817872015
C            9.79655358382820        3.27179080390192       -0.85962771180267
C           10.91830256578565        4.04020857228211       -1.04669863736503
C           12.17606784518498        3.44786242932833       -0.95416904984244
C           12.30318542526586        2.10421949200785       -0.68829684895927
C           11.18082388015644        1.28325980728819       -0.50059473341089
C           11.27975914905107       -0.14522320398724       -0.25342068513032
C           12.51702819871682       -0.80408761926049       -0.24350893906809
C           12.61999218836741       -2.16211726471413       -0.05488844474913
C           11.47389720238556       -2.93160819818672        0.11673528935217
C           10.24244760699572       -2.32459674750529        0.12196692461938
C           10.11712084031011       -0.93693762497513       -0.03942917908060
C            8.86703708392879       -0.25707709002466       -0.03948767119485
N            7.57357842361144       -0.68243482590745        0.15793412917006
C            7.10832306930274       -1.96949701938624        0.49162266138020
C            6.29491141028611       -2.65782724586349       -0.40108513259233
C            5.80103115601482       -3.90300702312718       -0.05671370375297
C            6.11688403562125       -4.46367434592526        1.16963397623384
C            6.93013115812065       -3.77743886250622        2.05746451053931
C            7.42485845325114       -2.52972217757549        1.72587494103987
C            4.60949590588746        1.28442870492255       -0.80270673552340
C            3.23579028730913        1.32562337455781       -0.76900120291431
C            0.33303749418521       -0.71329740835758       -0.07601983404560
C            0.98703679343141       -1.91404114302799       -0.36252690327754
C            0.28255746346604       -3.09486694353571       -0.58482293701615
C           -1.09464652890461       -3.08427227856034       -0.57210724905541
C           -1.77438191110288       -1.89155938132905       -0.34074243000665
C           -1.09281359116184       -0.70140459409547       -0.07053790945265
C           -3.97113821695705       -0.24513163821441        1.01816293606145
C           -5.34906429342700       -0.25592222244304        1.00806426899451
C           -8.19287314262331       -0.67973707177818       -0.11885995700513
C           -7.58544025001896       -2.00273937886487       -0.18294205642659
C           -6.50364524274411       -2.25556008337007       -1.02532279791637
C           -5.91500231894354       -3.50603857003077       -1.04982269237535
C           -6.39839794789313       -4.52053980519831       -0.24089392270421
C           -7.48181248894473       -4.28125309888724        0.58942778503749
C           -8.07109269045387       -3.03223434565253        0.62252356375792
C          -10.73684109997631       -2.25697041807946       -1.02106855285959
C          -11.91908930583142       -2.95349460706432       -1.18598320349796
H          -14.03190744670938       -2.98408222117604       -0.83728403196068
H          -14.04641728805926       -0.79117294835267        0.29644869961817
H          -11.92791983185340        0.45701246982098        0.58960147230284
H           -9.63492979800980        3.58156448012148       -0.85860483941347
H           -9.09965720774110        5.98250524021237       -0.57144689621634
H           -7.11722770950036        6.64949413668347        0.73972183225843
H           -5.70786309823776        4.92250085257831        1.79646924862082
H           -6.25156505356322        2.55062035515526        1.53470006522240
H           -5.88451580379190        1.90061748936444       -1.54650142528287
H           -3.42068540314893        1.92351459272652       -1.51671893408941
H           -2.81191573333228        2.97093664246556        0.62080532844469
H           -1.57704199506019        5.04855991184331        1.00249304240365
H            0.90071109983092        5.02298292598658        1.03579209722768
H            2.10461506946822        2.92522979410618        0.67734703087650
H            2.69537844694216       -0.94129613195757        1.67832790555889
H            5.12926568162557       -0.99662803710938        1.64802018422183
H            8.80403193487391        3.69147518155093       -0.91225323706588
H           10.83255814194600        5.09565002480609       -1.25898814308134
H           13.06258210298535        4.04986779596175       -1.09282837051922
H           13.29749342394092        1.69165274637795       -0.62333452661035
H           13.42440107577454       -0.24264378035818       -0.39667771450470
H           13.59158862981142       -2.63382855878339       -0.05366600792438
H           11.55048927920094       -4.00171211292283        0.24083776446318
H            9.35629958522827       -2.92846825943335        0.23593280683908
H            6.05322593900559       -2.21001470578319       -1.35363905417901
H            5.16900694861484       -4.43706769416850       -0.75009160785654
H            5.72939594875828       -5.43551837394986        1.43511658032210
H            7.17638557792892       -4.21224051649308        3.01451233476106
H            8.05596367565465       -1.98323122120838        2.41167548905026
H            5.16497193478553        1.90868003671392       -1.48503157968074
H            2.69914092105482        1.97048469551906       -1.44965704311198
H            2.06385166233133       -1.93067265914051       -0.43061129010764
H            0.82370934472285       -4.00809226957647       -0.78308083352341
H           -1.65424206626430       -3.98888663760276       -0.75790781298413
H           -2.85264968985826       -1.88988770880612       -0.38772315584563
H           -3.43592232376377       -0.83127688950591        1.75043273909538
H           -5.89725689614972       -0.85695768554918        1.71836111064301
H           -6.13140644745990       -1.47430273588899       -1.67272347685653
H           -5.07667606659332       -3.68868927594646       -1.70661061271441
H           -5.93559400103041       -5.49610114356199       -0.25999631366761
[...]
eigval :     3077.81  3078.42  3078.65  3081.04  3081.67  3082.03
eigval :     3082.51  3083.55  3084.02  3084.42  3084.48  3085.27
eigval :     3086.89  3087.05  3087.60  3087.61  3090.50  3091.60
eigval :     3092.67  3093.39  3094.22  3094.75  3095.31  3095.78
eigval :     3096.84  3097.06  3097.52  3098.93  3102.22  3102.46
eigval :     3103.75  3105.05  3105.54  3106.52  3111.43  3114.39
 reduced masses (amu)
   1: 11.16   2: 11.53   3: 11.56   4: 11.41   5: 11.60   6: 11.60   7: 11.21   8: 11.14
   9: 11.09  10: 11.13  11: 10.98  12: 10.90  13: 10.89  14: 10.60  15: 10.45  16: 10.84
  17: 10.92  18: 10.96  19: 10.39  20: 10.59  21: 10.44  22: 10.44  23: 10.60  24: 10.49
  25: 10.19  26: 10.42  27: 10.48  28: 10.34  29: 10.98  30: 10.26  31: 10.19  32: 10.84
  33: 10.61  34: 10.94  35: 10.74  36: 10.87  37: 10.96  38: 11.00  39: 10.93  40: 10.96
  41: 11.17  42: 11.02  43: 10.64  44: 10.58  45: 10.62  46: 10.99  47: 10.79  48: 10.71
  49: 10.73  50: 11.01  51: 10.33  52: 10.81  53: 10.66  54: 10.64  55: 10.87  56: 11.13
  57: 10.72  58: 11.01  59: 10.85  60: 10.54  61:  9.02  62:  9.28  63: 10.24  64:  9.04
  65:  9.19  66:  9.45  67:  9.36  68: 10.69  69: 10.04  70: 11.06  71: 11.15  72: 10.95
  73: 11.13  74: 10.80  75: 10.30  76: 10.28  77: 11.35  78: 10.89  79:  9.99  80: 10.84
  81: 10.81  82: 11.17  83: 10.64  84: 10.91  85: 10.51  86: 10.83  87: 10.54  88: 11.15
  89: 10.36  90:  9.85  91: 10.70  92: 10.65  93: 11.16  94: 11.20  95: 11.19  96: 11.19
  97: 11.17  98: 11.14  99: 11.07 100: 11.23 101: 11.11 102: 11.29 103: 11.25 104: 11.38
 105: 11.32 106: 11.31 107: 11.52 108: 11.43 109: 11.35 110: 10.77 111: 11.19 112: 10.45
 113:  9.85 114: 11.37 115:  9.67 116: 10.65 117: 11.13 118: 10.12 119: 11.00 120: 11.19
 121: 11.51 122: 11.33 123: 11.65 124: 11.16 125: 11.43 126: 10.69 127:  3.09 128:  6.51
 129:  3.97 130:  5.20 131:  5.54 132:  5.53 133:  4.60 134:  9.22 135:  4.94 136: 10.56
 137:  5.20 138:  5.03 139:  3.46 140:  3.41 141:  3.73 142:  3.37 143:  3.49 144:  3.31
 145:  3.32 146:  3.28 147:  3.29 148:  3.26 149:  4.08 150:  4.01 151: 11.14 152:  3.67
 153:  3.79 154:  3.72 155:  3.75 156:  3.44 157:  3.48 158:  4.01 159: 11.41 160: 11.28
 161:  4.02 162:  2.73 163:  3.32 164:  3.25 165:  3.61 166:  3.23 167:  4.08 168:  4.08
 169:  3.73 170:  3.15 171:  2.94 172:  2.89 173:  3.09 174:  3.72 175:  3.69 176: 11.76
 177: 11.74 178: 10.67 179: 11.75 180: 11.59 181: 11.13 182: 10.89 183: 10.86 184: 10.63
 185: 10.61 186:  9.65 187:  9.28 188: 10.83 189:  6.21 190:  7.63 191:  6.87 192:  6.74
 193:  5.94 194:  7.58 195:  6.80 196:  6.19 197:  8.30 198:  4.02 199:  6.47 200:  4.15
 201:  4.21 202:  4.28 203:  7.54 204:  8.01 205:  3.33 206:  3.45 207:  5.91 208:  8.76
 209:  7.66 210:  1.43 211:  1.47 212:  2.94 213:  1.50 214:  2.76 215:  1.87 216:  1.47
 217:  1.54 218:  2.62 219:  2.03 220:  3.64 221:  5.55 222:  3.18 223:  2.87 224:  2.29
 225:  4.75 226:  7.17 227: 10.08 228:  4.82 229:  5.67 230:  4.46 231:  5.93 232:  7.23
 233:  4.81 234:  7.49 235:  6.61 236:  3.80 237:  3.64 238:  3.65 239:  6.89 240:  6.99
 241:  9.37 242:  9.72 243: 10.88 244: 11.39 245: 11.77 246: 11.50 247: 11.24 248: 11.75
 249: 11.84 250: 11.07 251: 11.23 252: 11.03 253: 10.82 254: 11.12 255: 10.61 256: 11.14
 257: 11.17 258: 11.12 259:  7.88 260: 10.84 261:  9.04 262: 10.14 263:  9.74 264:  9.52
 265:  9.78 266: 10.19 267:  8.90 268:  9.59 269:  9.01 270:  9.37 271:  9.08 272:  9.60
 273:  9.01 274:  9.77 275:  9.17 276: 10.02 277: 10.00 278: 10.06 279: 10.06 280: 10.92
 281: 11.50 282: 10.98 283: 11.26 284: 11.45 285: 11.09 286: 11.88 287: 11.71 288: 11.64
 289: 11.54 290: 11.82 291: 11.73 292: 11.73 293: 11.48 294: 11.47 295: 11.48 296: 11.49
 297: 11.53 298: 11.53 299: 11.40 300: 11.48 301: 11.47 302: 11.47 303: 11.48 304: 11.53
 305:  1.75 306:  1.76 307:  1.75 308:  1.77 309:  1.80 310:  1.77 311:  1.76 312:  1.77
 313:  1.79 314:  1.78 315:  1.76 316:  1.80 317:  1.79 318:  1.83 319:  1.76 320:  1.78
 321:  1.78 322:  1.86 323:  1.84 324:  1.82 325:  1.85 326:  1.85 327:  1.85 328:  1.84
 329:  1.84 330:  1.88 331:  1.90 332:  1.88 333:  1.90 334:  1.89 335:  1.88 336:  1.84
 337:  1.86 338:  1.87 339:  1.85 340:  1.88 341:  1.87 342:  1.92 343:  1.86 344:  1.86
 345:  1.86 346:  1.86 347:  1.82 348:  1.84
 IR intensities (km·mol⁻¹)
   1:  0.11   2:  0.25   3:  0.14   4:  0.11   5:  0.24   6:  0.06   7:  0.80   8:  0.29
   9:  0.12  10:  0.28  11:  0.07  12:  0.05  13:  0.44  14:  0.25  15:  0.27  16:  0.91
  17:  0.34  18:  0.09  19:  0.32  20:  0.37  21:  0.18  22:  0.07  23:  0.38  24:  0.18
  25:  1.33  26:  1.94  27:  3.95  28:  0.58  29:  0.45  30:  0.80  31:  0.56  32:  0.53
  33:  1.78  34:  1.49  35:  1.93  36:  1.98  37:  4.01  38:  4.16  39:  0.41  40:  0.24
  41:  3.11  42:  2.78  43:  0.15  44:  1.63  45:  0.68  46:  0.45  47:  0.60  48:  2.49
  49:  0.70  50:  0.52  51:  0.88  52:  0.94  53:  0.11  54:  4.80  55:  0.68  56:  4.55
  57:  0.15  58:  0.37  59:  0.13  60:  1.04  61:  0.17  62:  0.62  63:  0.51  64:  0.97
  65:  0.90  66:  0.14  67:  0.28  68:  0.21  69:  0.86  70:  3.47  71:  0.82  72:  0.69
  73:  0.01  74:  0.35  75:  0.26  76:  0.97  77:  1.47  78:  0.55  79:  0.55  80:  4.56
  81:  1.02  82:  0.60  83:  1.03  84:  1.00  85:  0.56  86:  1.15  87:  2.33  88:  1.60
  89:  8.03  90:  0.13  91:  0.69  92:  6.74  93:  0.07  94:  0.77  95:  1.95  96:  0.34
  97:  0.06  98:  1.07  99:  0.76 100:  0.61 101:  2.36 102:  0.33 103:  7.92 104:  4.17
 105:  1.54 106:  6.49 107:  3.19 108: 25.38 109:  4.84 110:  0.25 111:  1.89 112:  3.82
 113:  5.34 114:  3.67 115: 13.29 116: 13.20 117:  5.49 118: 18.20 119:  2.24 120:  0.58
 121:  3.90 122:  3.57 123:  0.35 124:  8.19 125:  3.47 126:  3.79 127:  8.15 128: 18.12
 129: 48.37 130: 33.00 131: 44.52 132: 19.04 133: 15.76 134: 11.27 135:  1.31 136:  6.60
 137:  0.72 138: 28.87 139:  6.12 140:  3.76 141:  0.70 142:  0.19 143:  5.45 144: 12.47
 145:  0.99 146:  2.05 147:  4.77 148:  0.72 149:  1.96 150:  2.07 151:  0.09 152:  0.90
 153:  0.42 154:  1.15 155:  1.27 156:  3.42 157:  2.94 158:  0.63 159:  4.62 160:  4.54
 161:  0.08 162:  0.18 163:  0.19 164:  0.44 165:  1.75 166:  0.40 167:  0.81 168:  2.00
 169:  0.73 170:  0.67 171:  0.10 172:  0.47 173:  0.64 174:  3.97 175:  1.44 176:  0.06
 177:  6.17 178:  1.17 179: 24.10 180:  0.18 181:  5.39 182:  4.29 183:  0.83 184:  0.96
 185:  1.48 186:  4.71 187:  0.79 188:  0.24 189:  1.33 190:  0.06 191:  0.16 192:  0.37
 193:  0.48 194:  1.17 195:  0.99 196:  0.44 197:  0.92 198:  0.34 199:  0.16 200:  1.57
 201:  2.51 202:  0.02 203:  0.52 204:  1.68 205:  1.33 206:  0.95 207:  1.87 208:  5.51
 209:  1.59 210:  0.25 211:  0.30 212:  7.53 213:  2.87 214:  4.65 215:  0.27 216:  7.95
 217:  0.33 218:  1.38 219:  2.06 220:  5.16 221:  1.78 222:  7.74 223: 10.83 224:  5.16
 225:  6.63 226:  9.33 227:  8.65 228:  0.63 229: 29.89 230:  0.48 231:  3.50 232:  2.57
 233:  0.96 234:  6.84 235:  1.47 236:  0.56 237:  3.18 238:  2.13 239: 39.89 240:  0.36
 241: 34.14 242:  0.89 243: 18.44 244:  3.79 245:  0.84 246:  6.40 247:  0.86 248: 53.11
 249:  8.81 250:191.45 251: 33.97 252:  1.11 253: 44.20 254:  7.51 255:  0.60 256: 39.01
 257:250.93 258: 43.24 259:  2.08 260:194.27 261: 42.48 262:  8.62 263:  6.73 264: 17.81
 265: 17.00 266:  1.44 267:  1.10 268: 43.81 269:  9.79 270: 13.81 271:  8.97 272: 29.29
 273: 14.80 274: 14.28 275: 69.34 276: 38.72 277: 53.24 278: 29.81 279: 30.00 280:  0.45
 281: 21.72 282: 28.74 283:  0.74 284:  5.30 285:  2.52 286:  9.52 287:  6.76 288: 19.96
 289:  0.58 290:141.83 291: 31.29 292: 43.13 293: 35.05 294:  0.81 295:  5.41 296: 18.41
 297:  2.46 298:  3.05 299:  2.52 300: 14.42 301: 16.20 302:  4.25 303:  2.86 304:  6.21
 305:  4.11 306:  1.05 307:  0.78 308: 12.11 309: 29.52 310:  0.50 311:  0.96 312:  7.00
 313: 11.55 314:  9.29 315:  2.00 316: 13.98 317: 12.99 318: 27.02 319:  2.01 320: 33.01
 321:  0.53 322:205.12 323: 49.77 324: 23.54 325:148.31 326: 30.06 327: 29.49 328: 44.53
 329: 16.66 330: 36.57 331: 49.27 332: 22.46 333: 49.48 334: 21.12 335: 76.03 336: 15.71
 337: 61.64 338: 12.84 339:  8.47 340: 64.33 341: 64.82 342: 15.67 343: 22.99 344:  4.62
 345: 24.51 346: 24.06 347:129.86 348: 18.06
 Raman intensities (Ä⁴*amu⁻¹)
   1:  0.00   2:  0.00   3:  0.00   4:  0.00   5:  0.00   6:  0.00   7:  0.00   8:  0.00
   9:  0.00  10:  0.00  11:  0.00  12:  0.00  13:  0.00  14:  0.00  15:  0.00  16:  0.00
  17:  0.00  18:  0.00  19:  0.00  20:  0.00  21:  0.00  22:  0.00  23:  0.00  24:  0.00
  25:  0.00  26:  0.00  27:  0.00  28:  0.00  29:  0.00  30:  0.00  31:  0.00  32:  0.00
  33:  0.00  34:  0.00  35:  0.00  36:  0.00  37:  0.00  38:  0.00  39:  0.00  40:  0.00
  41:  0.00  42:  0.00  43:  0.00  44:  0.00  45:  0.00  46:  0.00  47:  0.00  48:  0.00
  49:  0.00  50:  0.00  51:  0.00  52:  0.00  53:  0.00  54:  0.00  55:  0.00  56:  0.00
  57:  0.00  58:  0.00  59:  0.00  60:  0.00  61:  0.00  62:  0.00  63:  0.00  64:  0.00
  65:  0.00  66:  0.00  67:  0.00  68:  0.00  69:  0.00  70:  0.00  71:  0.00  72:  0.00
  73:  0.00  74:  0.00  75:  0.00  76:  0.00  77:  0.00  78:  0.00  79:  0.00  80:  0.00
  81:  0.00  82:  0.00  83:  0.00  84:  0.00  85:  0.00  86:  0.00  87:  0.00  88:  0.00
  89:  0.00  90:  0.00  91:  0.00  92:  0.00  93:  0.00  94:  0.00  95:  0.00  96:  0.00
  97:  0.00  98:  0.00  99:  0.00 100:  0.00 101:  0.00 102:  0.00 103:  0.00 104:  0.00
 105:  0.00 106:  0.00 107:  0.00 108:  0.00 109:  0.00 110:  0.00 111:  0.00 112:  0.00
 113:  0.00 114:  0.00 115:  0.00 116:  0.00 117:  0.00 118:  0.00 119:  0.00 120:  0.00
 121:  0.00 122:  0.00 123:  0.00 124:  0.00 125:  0.00 126:  0.00 127:  0.00 128:  0.00
 129:  0.00 130:  0.00 131:  0.00 132:  0.00 133:  0.00 134:  0.00 135:  0.00 136:  0.00
 137:  0.00 138:  0.00 139:  0.00 140:  0.00 141:  0.00 142:  0.00 143:  0.00 144:  0.00
 145:  0.00 146:  0.00 147:  0.00 148:  0.00 149:  0.00 150:  0.00 151:  0.00 152:  0.00
 153:  0.00 154:  0.00 155:  0.00 156:  0.00 157:  0.00 158:  0.00 159:  0.00 160:  0.00
 161:  0.00 162:  0.00 163:  0.00 164:  0.00 165:  0.00 166:  0.00 167:  0.00 168:  0.00
 169:  0.00 170:  0.00 171:  0.00 172:  0.00 173:  0.00 174:  0.00 175:  0.00 176:  0.00
 177:  0.00 178:  0.00 179:  0.00 180:  0.00 181:  0.00 182:  0.00 183:  0.00 184:  0.00
 185:  0.00 186:  0.00 187:  0.00 188:  0.00 189:  0.00 190:  0.00 191:  0.00 192:  0.00
 193:  0.00 194:  0.00 195:  0.00 196:  0.00 197:  0.00 198:  0.00 199:  0.00 200:  0.00
 201:  0.00 202:  0.00 203:  0.00 204:  0.00 205:  0.00 206:  0.00 207:  0.00 208:  0.00
 209:  0.00 210:  0.00 211:  0.00 212:  0.00 213:  0.00 214:  0.00 215:  0.00 216:  0.00
 217:  0.00 218:  0.00 219:  0.00 220:  0.00 221:  0.00 222:  0.00 223:  0.00 224:  0.00
 225:  0.00 226:  0.00 227:  0.00 228:  0.00 229:  0.00 230:  0.00 231:  0.00 232:  0.00
 233:  0.00 234:  0.00 235:  0.00 236:  0.00 237:  0.00 238:  0.00 239:  0.00 240:  0.00
 241:  0.00 242:  0.00 243:  0.00 244:  0.00 245:  0.00 246:  0.00 247:  0.00 248:  0.00
 249:  0.00 250:  0.00 251:  0.00 252:  0.00 253:  0.00 254:  0.00 255:  0.00 256:  0.00
 257:  0.00 258:  0.00 259:  0.00 260:  0.00 261:  0.00 262:  0.00 263:  0.00 264:  0.00
 265:  0.00 266:  0.00 267:  0.00 268:  0.00 269:  0.00 270:  0.00 271:  0.00 272:  0.00
 273:  0.00 274:  0.00 275:  0.00 276:  0.00 277:  0.00 278:  0.00 279:  0.00 280:  0.00
 281:  0.00 282:  0.00 283:  0.00 284:  0.00 285:  0.00 286:  0.00 287:  0.00 288:  0.00
 289:  0.00 290:  0.00 291:  0.00 292:  0.00 293:  0.00 294:  0.00 295:  0.00 296:  0.00
 297:  0.00 298:  0.00 299:  0.00 300:  0.00 301:  0.00 302:  0.00 303:  0.00 304:  0.00
 305:  0.00 306:  0.00 307:  0.00 308:  0.00 309:  0.00 310:  0.00 311:  0.00 312:  0.00
 313:  0.00 314:  0.00 315:  0.00 316:  0.00 317:  0.00 318:  0.00 319:  0.00 320:  0.00
 321:  0.00 322:  0.00 323:  0.00 324:  0.00 325:  0.00 326:  0.00 327:  0.00 328:  0.00
 329:  0.00 330:  0.00 331:  0.00 332:  0.00 333:  0.00 334:  0.00 335:  0.00 336:  0.00
 337:  0.00 338:  0.00 339:  0.00 340:  0.00 341:  0.00 342:  0.00 343:  0.00 344:  0.00
 345:  0.00 346:  0.00 347:  0.00 348:  0.00
 output can be read by thermo (or use thermo option).
 writing <g98.out> molden fake output.
 recommended (thermochemical) frequency scaling factor: 1.0
           -------------------------------------------------
          |             Thermodynamic Functions             |
           -------------------------------------------------

Refinement of some symmetry elements was terminated before convergence was reached.
Some symmetry elements may remain unidentified.
Molecule has no symmetry elements
It seems to be the C1 point group
c1  symmetry found (for desy threshold:  0.10E+00) used in thermo

          ...................................................
          :                      SETUP                      :
          :.................................................:
          :  # frequencies                         342      :
          :  # imaginary freq.                       0      :
          :  linear?                             false      :
          :  only rotor calc.                    false      :
          :  symmetry                               c1      :
          :  rotational number                       1      :
          :  scaling factor                  1.0000000      :
          :  rotor cutoff                   50.0000000 cm⁻¹ :
          :  imag. cutoff                  -20.0000000 cm⁻¹ :
          :.................................................:

    mode    ω/cm⁻¹     T·S(HO)/kcal·mol⁻¹    T·S(FR)/kcal·mol⁻¹   T·S(vib)
   ------------------------------------------------------------------------
       1      4.56    -2.85351 (  0.01%)    -1.76584 ( 99.99%)    -1.76591
       2      5.51    -2.74188 (  0.01%)    -1.71003 ( 99.99%)    -1.71018
       3      6.56    -2.63864 (  0.03%)    -1.65840 ( 99.97%)    -1.65869
       4     10.67    -2.35003 (  0.21%)    -1.51409 ( 99.79%)    -1.51582
       5     15.88    -2.11452 (  1.01%)    -1.39630 ( 98.99%)    -1.40353
       6     19.14    -2.00395 (  2.10%)    -1.34098 ( 97.90%)    -1.35492
       7     22.72    -1.90251 (  4.09%)    -1.29022 ( 95.91%)    -1.31525
       8     30.84    -1.72169 ( 12.64%)    -1.19969 ( 87.36%)    -1.26569
       9     31.80    -1.70358 ( 14.06%)    -1.19061 ( 85.94%)    -1.26274
      10     35.57    -1.63743 ( 20.38%)    -1.15746 ( 79.62%)    -1.25529
      11     39.95    -1.56868 ( 28.96%)    -1.12299 ( 71.04%)    -1.25208
      12     42.63    -1.53040 ( 34.57%)    -1.10379 ( 65.43%)    -1.25128
      13     47.40    -1.46779 ( 44.68%)    -1.07237 ( 55.32%)    -1.24905
      14     48.42    -1.45520 ( 46.80%)    -1.06604 ( 53.20%)    -1.24817
      15     55.28    -1.37717 ( 59.90%)    -1.02682 ( 40.10%)    -1.23669
      16     56.90    -1.36014 ( 62.65%)    -1.01826 ( 37.35%)    -1.23243
      17     60.55    -1.32351 ( 68.27%)    -0.99982 ( 31.73%)    -1.22079
      18     67.21    -1.26217 ( 76.56%)    -0.96891 ( 23.44%)    -1.19342
      19     71.29    -1.22762 ( 80.52%)    -0.95147 ( 19.48%)    -1.17381
      20     76.63    -1.18527 ( 84.66%)    -0.93007 ( 15.34%)    -1.14611
      21     81.94    -1.14603 ( 87.82%)    -0.91021 ( 12.18%)    -1.11732
      22     83.21    -1.13708 ( 88.46%)    -0.90567 ( 11.54%)    -1.11039
      23     85.87    -1.11866 ( 89.69%)    -0.89633 ( 10.31%)    -1.09574
      24     92.17    -1.07736 ( 92.03%)    -0.87537 (  7.97%)    -1.06126
      25    102.86    -1.01351 ( 94.71%)    -0.84285 (  5.29%)    -1.00449
      26    117.12    -0.93840 ( 96.78%)    -0.80440 (  3.22%)    -0.93409
      27    118.89    -0.92973 ( 96.97%)    -0.79995 (  3.03%)    -0.92579
      28    125.26    -0.89968 ( 97.52%)    -0.78449 (  2.48%)    -0.89683
      29    132.36    -0.86805 ( 98.00%)    -0.76816 (  2.00%)    -0.86606
      30    141.31    -0.83065 ( 98.46%)    -0.74877 (  1.54%)    -0.82939
      31    152.80    -0.78624 ( 98.87%)    -0.72562 (  1.13%)    -0.78555
      32    163.60    -0.74770 ( 99.14%)    -0.70539 (  0.86%)    -0.74733
      33    172.80    -0.71701 ( 99.30%)    -0.68918 (  0.70%)    -0.71681
      34    187.49    -0.67160 ( 99.50%)    -0.66501 (  0.50%)    -0.67156
      35    202.04    -0.63043 ( 99.63%)    -0.64287 (  0.37%)    -0.63047
      36    217.46    -0.59038 ( 99.72%)    -0.62108 (  0.28%)    -0.59046
      37    221.90    -0.57945 ( 99.74%)    -0.61508 (  0.26%)    -0.57955
      38    223.52    -0.57555 ( 99.75%)    -0.61294 (  0.25%)    -0.57565
      39    230.96    -0.55798 ( 99.78%)    -0.60324 (  0.22%)    -0.55808
      40    239.24    -0.53921 ( 99.81%)    -0.59280 (  0.19%)    -0.53931
      41    241.00    -0.53532 ( 99.82%)    -0.59063 (  0.18%)    -0.53542
      42    243.53    -0.52979 ( 99.82%)    -0.58753 (  0.18%)    -0.52990
      43    247.96    -0.52029 ( 99.83%)    -0.58220 (  0.17%)    -0.52039
      44    257.88    -0.49972 ( 99.86%)    -0.57057 (  0.14%)    -0.49982
      45    263.20    -0.48911 ( 99.87%)    -0.56453 (  0.13%)    -0.48921
      46    267.25    -0.48120 ( 99.88%)    -0.56000 (  0.12%)    -0.48130
      47    273.70    -0.46890 ( 99.89%)    -0.55293 (  0.11%)    -0.46899
      48    280.17    -0.45696 ( 99.90%)    -0.54602 (  0.10%)    -0.45705
   ------------------------------------------------------------------------

   temp. (K)  partition function   enthalpy   heat capacity  entropy
                                   cal/mol     cal/K/mol   cal/K/mol   J/K/mol
 298.15  VIB  0.622E+29            33953.230    210.843    216.019
         ROT  0.349E+09              888.752      2.981     42.070
         INT  0.217E+38            34841.982    213.824    258.089
         TR   0.269E+29             1481.254      4.968     46.303
         TOT                       36323.2361   218.7917   304.3913  1273.5732

       T/K    H(0)-H(T)+PV         H(T)/Eh          T*S/Eh         G(T)/Eh
   ------------------------------------------------------------------------
    298.15    0.578848E-01    0.947844E+00    0.144626E+00    0.803218E+00
   ------------------------------------------------------------------------

         :::::::::::::::::::::::::::::::::::::::::::::::::::::
         ::                  THERMODYNAMIC                  ::
         :::::::::::::::::::::::::::::::::::::::::::::::::::::
         :: total free energy        -178.954625006949 Eh   ::
         ::.................................................::
         :: total energy             -179.757842799295 Eh   ::
         :: zero point energy           0.889959158856 Eh   ::
         :: G(RRHO) w/o ZPVE           -0.086741366510 Eh   ::
         :: G(RRHO) contrib.            0.803217792346 Eh   ::
         :::::::::::::::::::::::::::::::::::::::::::::::::::::

optimized geometry written to: xtbopt.xyz


           -------------------------------------------------
          | TOTAL ENERGY             -179.757842799295 Eh   |
          | TOTAL ENTHALPY           -178.809998879218 Eh   |
          | TOTAL FREE ENERGY        -178.954625006949 Eh   |
          | GRADIENT NORM               0.000090129910 Eh/α |
           -------------------------------------------------

------------------------------------------------------------------------
 * finished run on 2025/08/24 at 17:18:59.907     
------------------------------------------------------------------------
 total:
 * wall-time:     0 d,  0 h,  0 min, 20.927 sec
 *  cpu-time:     0 d,  0 h, 12 min, 43.305 sec
 * ratio c/w:    36.475 speedup
 SCF:
 * wall-time:     0 d,  0 h,  0 min,  0.532 sec
 *  cpu-time:     0 d,  0 h,  0 min, 21.117 sec
 * ratio c/w:    39.709 speedup
 ANC optimizer:
 * wall-time:     0 d,  0 h,  0 min,  8.320 sec
 *  cpu-time:     0 d,  0 h,  5 min, 32.679 sec
 * ratio c/w:    39.988 speedup
 analytical hessian:
 * wall-time:     0 d,  0 h,  0 min, 11.949 sec
 *  cpu-time:     0 d,  0 h,  6 min, 46.676 sec
 * ratio c/w:    34.035 speedup

