116
 energy: -179.757842799336 gnorm: 0.000090211012 xtb: 6.7.1 (edcfbbe)
C          -13.11093618201724       -2.43446669228645       -0.70711428059511
C          -13.11749570175322       -1.20420489061613       -0.06973030083220
C          -11.93918420947858       -0.50410403974153        0.09941615608495
C          -10.73273378314993       -1.02824460033787       -0.36333299039312
C           -9.51290093624289       -0.25984547297243       -0.17011730576956
N           -9.56016274438472        1.09446486501933       -0.04165137057393
C           -8.32604318858353        1.51596803196349        0.07964200800626
C           -7.96249437563662        2.90859692414538        0.27918004449005
C           -8.77242322420669        3.89178607354219       -0.28960592497075
C           -8.46928719953979        5.22859003962822       -0.12323044550122
C           -7.35790507369246        5.60413587896203        0.61472705891490
C           -6.56353910529617        4.63423301002837        1.20312510540175
C           -6.86294853088310        3.29404715202749        1.04464369147657
N           -7.44401122308167        0.46695554866994        0.03077620381644
C           -6.04186234735787        0.51500803480512        0.07891214764682
C           -5.34053492157998        1.30938626054564       -0.82448642996166
C           -3.96297958024177        1.32717482701825       -0.79802085817772
C           -3.25111441452341        0.54151710331810        0.11400855235890
C           -1.79107845813978        0.53291619346655        0.11613742940466
C           -1.07231230484233        1.75444655823019        0.30418118439697
C           -1.73364634451756        2.95526209926305        0.57651496321027
C           -1.03334606927320        4.13490961498439        0.81409968294606
C            0.34390584853868        4.12094092985975        0.83114712607688
C            1.02827455895625        2.92904678869641        0.60436568776289
C            0.35323264540535        1.74227653521694        0.30969818488013
C            1.05600678023630        0.50949800130361        0.11281285614192
C            2.51092116625426        0.49763488228356        0.09929787876755
C            3.23239083739040       -0.34066524917274        0.95831825526208
C            4.60830392059919       -0.37297716112048        0.93771140798714
C            5.32206568847818        0.41926468019472        0.03483822359560
C            6.76670577368385        0.41611337900021       -0.06107444983780
N            7.46474304153565        1.48233536134301       -0.37209522099064
C            8.76507498483500        1.09938489462120       -0.35388631004582
C            9.91459895728550        1.90569636494056       -0.58327611332714
C            9.79656771399624        3.27173800889979       -0.85966761857140
C           10.91832006635041        4.04014957730741       -1.04674380091696
C           12.17608256720132        3.44779701021195       -0.95421756998510
C           12.30319404006139        2.10415387135552       -0.68834346772870
C           11.18082885165004        1.28320039091823       -0.50063600155592
C           11.27975750383431       -0.14528270696372       -0.25345980545329
C           12.51702313827217       -0.80415358325346       -0.24355122833952
C           12.61998067571386       -2.16218343860319       -0.05492872322525
C           11.47388225979570       -2.93166807158795        0.11670035451598
C           10.24243586099297       -2.32465016392994        0.12193522891831
C           10.11711579668741       -0.93699066689789       -0.03946285922956
C            8.86703559986395       -0.25712358663661       -0.03951817430879
N            7.57357540154080       -0.68247420541678        0.15790888346639
C            7.10831447300303       -1.96953338041438        0.49160128606885
C            6.29489609377185       -2.65786090592036       -0.40110246719168
C            5.80101052185807       -3.90303749617889       -0.05672714113895
C            6.11686474658658       -4.46370433241217        1.16962041485306
C            6.93011856130761       -3.77747155761519        2.05744691267692
C            7.42485123198100       -2.52975804181643        1.72585343857954
C            4.60949982905891        1.28440316866599       -0.80272506744436
C            3.23579454385713        1.32560508983305       -0.76901481159659
C            0.33303349400649       -0.71329928480521       -0.07601975162635
C            0.98702550606660       -1.91404694383358       -0.36252700805116
C            0.28253921737138       -3.09486944365389       -0.58481852176150
C           -1.09466467511230       -3.08426754546260       -0.57209804494321
C           -1.77439300465656       -1.89155068535978       -0.34073293484883
C           -1.09281750990619       -0.70139899523680       -0.07053287063110
C           -3.97113594631477       -0.24510906836865        1.01817722577650
C           -5.34906211450782       -0.25589245541836        1.00808338741214
C           -8.19287711645254       -0.67969438143195       -0.11883017211692
C           -7.58545137476535       -2.00269998085287       -0.18291208280406
C           -6.50366063174768       -2.25552781983599       -1.02529615920900
C           -5.91502434096219       -3.50600943136471       -1.04979592592254
C           -6.39842245811059       -4.52050672363096       -0.24086369824981
C           -7.48183284786281       -4.28121289540867        0.58946137368166
C           -8.07110639399463       -3.03219099896664        0.62255702942882
C          -10.73685648143040       -2.25691598215870       -1.02102713504963
C          -11.91910890991222       -2.95343426872317       -1.18593644319795
H          -14.03192599371162       -2.98401021155602       -0.83722984315125
H          -14.04642039554430       -0.79109888407651        0.29649911171916
H          -11.92791538060553        0.45707595329413        0.58964231095592
H           -9.63491404191721        3.58161342990893       -0.85857745816655
H           -9.09962787800437        5.98255188846243       -0.57142557385757
H           -7.11719031060700        6.64953269334397        0.73973507050760
H           -5.70783105312346        4.92253387420213        1.79648058142328
H           -6.25154634131017        2.55065576676336        1.53471743561711
H           -5.88451125039955        1.90064560146228       -1.54648420163926
H           -3.42068062595576        1.92352985621791       -1.51671035079955
H           -2.81189801048175        2.97095244907502        0.62080995861490
H           -1.57701206149181        5.04856991880110        1.00248973591177
H            0.90074101566554        5.02298001757710        1.03578018638590
H            2.10463275026947        2.92521995650410        0.67733457888972
H            2.69537937676442       -0.94130731570767        1.67832013977209
H            5.12926621588861       -0.99665201755879        1.64800401913848
H            8.80404807882309        3.69142749152570       -0.91229041176749
H           10.83258042775243        5.09559110826086       -1.25903484942000
H           13.06259949305959        4.04979749305476       -1.09288103587694
H           13.29750010528672        1.69158203292684       -0.62338389610513
H           13.42439842036029       -0.24271476268011       -0.39672415100817
H           13.59157465153407       -2.63389981779879       -0.05370885462037
H           11.55046916676558       -4.00177217074552        0.24080442995293
H            9.35628507519992       -2.92851683708270        0.23590525833189
H            6.05320964218521       -2.21004876288752       -1.35365632670999
H            5.16898109778690       -4.43709606810113       -0.75010190694485
H            5.72937249788531       -5.43554586818939        1.43510606771570
H            7.17637404523339       -4.21227283063448        3.01449463617334
H            8.05596170969042       -1.98326919298164        2.41165082980524
H            5.16497674474525        1.90865040111312       -1.48505294009774
H            2.69914617815218        1.97046803271789       -1.44966990402473
H            2.06384005020292       -1.93068421696375       -0.43061512464625
H            0.82368562493398       -4.00809794916704       -0.78307671336479
H           -1.65426559757311       -3.98887929873563       -0.75789507666369
H           -2.85266093863184       -1.88987344903597       -0.38770989974048
H           -3.43592056606737       -0.83125584399656        1.75044618356540
H           -5.89725538482016       -0.85692380849672        1.71838319161318
H           -6.13142000568231       -1.47427355132009       -1.67269950105404
H           -5.07670133761266       -3.68866567304278       -1.70658645378164
H           -5.93562368595842       -5.49607051855519       -0.25996600202786
H           -7.86540852239000       -5.07087530320367        1.21875200448415
H           -8.91158889492422       -2.84051973440046        1.27358941544353
H           -9.81566518814984       -2.66013805843762       -1.41485504019297
H          -11.91143695049148       -3.90582815569284       -1.69666039355735
