$hessian                                                                        
        0.5877967934  -0.1195361761  -0.1468731446  -0.2091598327   0.1440476777
       -0.0466583775  -0.0621944499   0.0052575537   0.0277734720   0.0028799541
        0.0136394010  -0.0180124952  -0.0058076731  -0.0025892186   0.0044617988
       -0.0003887703   0.0011354265   0.0006674775  -0.0006242625  -0.0003460555
        0.0002939698   0.0000137853   0.0002445439  -0.0000130268  -0.0000836285
       -0.0000288779  -0.0001155337   0.0000899814   0.0000112965   0.0001370818
        0.0000478747   0.0000171393   0.0000200048   0.0002365690   0.0000357111
       -0.0001177343   0.0008977303  -0.0000134834  -0.0001412660  -0.0003602567
        0.0002717091   0.0000838792   0.0002149365   0.0000995304  -0.0000273690
       -0.0003552719  -0.0000462457  -0.0000434323   0.0002102682   0.0000157210
       -0.0000217366   0.0001114865   0.0000911365  -0.0000115414   0.0000114802
        0.0000535857   0.0000380142  -0.0000525572   0.0000487514  -0.0000313503
       -0.0000322783  -0.0000397198   0.0000009178   0.0000677163   0.0000511522
        0.0000264182  -0.0000068795   0.0000165254  -0.0000355622   0.0000757083
       -0.0001053968   0.0000295544   0.0000130742  -0.0000254671   0.0000393460
        0.0000723107  -0.0000061847  -0.0000241973  -0.0000623947   0.0000521501
        0.0000086801  -0.0000419865  -0.0000756288   0.0000268850  -0.0000050342
       -0.0000265284  -0.0000333086   0.0001719210  -0.0000472581   0.0000577423
       -0.0004133685  -0.0003323651  -0.0001603796   0.0011011159   0.0025126374
       -0.0016191110  -0.0009359136  -0.0001653617   0.0008289986  -0.0000036715
        0.0005602760  -0.0000756501  -0.0001192833  -0.0003150878   0.0001124020
        0.0003078577   0.0002277857  -0.0004169009   0.0002626247  -0.0011380019
       -0.0000369550   0.0080953476  -0.0200214865   0.0172349859  -0.0897768136
       -0.0309993597   0.0519535124  -0.2291209845  -0.0114468333   0.1168389369
        0.0017919901  -0.0000029485   0.0001597383  -0.0029448506   0.0014891723
        0.0047323012   0.0000155709  -0.0000296266   0.0000434197   0.0000273898
        0.0000100454  -0.0000117777  -0.0000037243  -0.0000225907   0.0000188347
        0.0000573018   0.0000402607   0.0000332179  -0.0000285137  -0.0001167822
        0.0000628461  -0.0000162829  -0.0000103158  -0.0000399980   0.0000049700
       -0.0000199285  -0.0000135973   0.0000024514  -0.0000216113   0.0000199676
        0.0000220191   0.0000026186   0.0000213129   0.0000102321   0.0000237744
        0.0000119581  -0.0000015418   0.0000077156  -0.0000036814  -0.0000066533
       -0.0000118012  -0.0000127667  -0.0000199712  -0.0000163364   0.0000224451
       -0.0000065791  -0.0000216253   0.0000128356   0.0000195106  -0.0000269290
        0.0000008105   0.0000222230  -0.0000030229  -0.0000085160   0.0000097982
        0.0000126062  -0.0000113664   0.0000149159   0.0000115182   0.0000156846
       -0.0000226091   0.0000373465   0.0000478151   0.0000175007  -0.0000490319
       -0.0000348124   0.0000415473  -0.0000229279  -0.0000273259   0.0000478144
        0.0000468854  -0.0000293528  -0.0000204862   0.0000171269   0.0000204903
        0.0000112527  -0.0001272002  -0.0000049185  -0.0030114177   0.0009375761
        0.0049739325   0.0008329164   0.0167810587  -0.0161645021
       -0.1195361761   0.4198814812  -0.2256002916   0.0887055116  -0.1658558390
        0.0627233319   0.0466813655   0.0170393228  -0.0402724436   0.0130433648
       -0.0324111322   0.0167406954  -0.0004843685  -0.0000412567  -0.0004684898
        0.0004380204   0.0000013996  -0.0000277371   0.0001630537   0.0000628801
       -0.0000011531   0.0000227746   0.0000168086   0.0000381386   0.0000523049
       -0.0000337083   0.0000168868  -0.0000332518   0.0000919473  -0.0000409134
       -0.0000087018  -0.0000818961  -0.0000376548   0.0000097427  -0.0000065317
        0.0002029638  -0.0001148652   0.0000032960  -0.0000787640   0.0000906194
       -0.0000196643  -0.0000045277   0.0000179970  -0.0000076240   0.0000296309
        0.0000958562  -0.0000144886  -0.0000056035  -0.0000299734  -0.0000011459
       -0.0000129166  -0.0000183557  -0.0000720867  -0.0000002303   0.0000107136
        0.0000110624  -0.0000013753  -0.0000072073  -0.0000078719   0.0000017868
       -0.0000028667  -0.0000030002   0.0000051638  -0.0000038007  -0.0000054228
        0.0000034528  -0.0000044040   0.0000097284   0.0000049661  -0.0000324582
        0.0000544030  -0.0000053048  -0.0000078044  -0.0000048887  -0.0000027180
        0.0000019627   0.0000015065  -0.0000012979   0.0000104443   0.0000042727
       -0.0000090192  -0.0000114227   0.0000191805  -0.0000078468   0.0000125544
       -0.0000134777   0.0000037278  -0.0000286178  -0.0000023142  -0.0000149565
        0.0000722404   0.0000499962   0.0000204109   0.0000801437  -0.0000733622
       -0.0001424574  -0.0000584051   0.0000297205  -0.0001273972  -0.0000109639
       -0.0000662270  -0.0000066622  -0.0000788086   0.0000058844   0.0001356490
        0.0000480865   0.0000576187  -0.0000994795  -0.0000749256  -0.0001835819
        0.0002148020  -0.0611593108   0.0062172059   0.0284609243   0.0246556891
       -0.1821791534   0.1168477664  -0.0113598312  -0.0401650662   0.0137275749
        0.0160425292  -0.0156947345   0.0064445140   0.0011632273   0.0042913609
        0.0035342005  -0.0000265360   0.0000217990  -0.0000379601   0.0000000970
       -0.0000037617   0.0000058581  -0.0000026187  -0.0000042484  -0.0000000574
       -0.0000041297  -0.0000029753   0.0000155771  -0.0000376679  -0.0000433705
        0.0000241781  -0.0000028358   0.0000170249   0.0000014571   0.0000099039
       -0.0000015767  -0.0000111446   0.0000018497  -0.0000034620   0.0000036159
        0.0000034423   0.0000039323   0.0000047142  -0.0000003024   0.0000077669
        0.0000037650  -0.0000022115   0.0000057163   0.0000024944  -0.0000051747
       -0.0000067286  -0.0000011167  -0.0000007815  -0.0000005380  -0.0000009373
        0.0000069545  -0.0000021860  -0.0000052680   0.0000090369  -0.0000009221
       -0.0000080519   0.0000092059   0.0000031045  -0.0000081009   0.0000040194
        0.0000085314  -0.0000083190   0.0000096515  -0.0000021654   0.0000110498
       -0.0000131956  -0.0000637779  -0.0000128990  -0.0000155764  -0.0000208414
        0.0000190085   0.0000114455  -0.0000081260   0.0000175515  -0.0000016873
        0.0000096012   0.0000105112  -0.0000304691  -0.0000001948   0.0000210085
       -0.0000441217   0.0001398620   0.0000618974   0.0014938428   0.0045301619
        0.0032403760   0.0002761763  -0.0154872275   0.0144634457
       -0.1468731446  -0.2256002916   0.4033250728   0.0066181402   0.0327276934
       -0.0803683530  -0.0097599787  -0.0177718694   0.0242365573  -0.0179252952
        0.0169581523  -0.0119716219   0.0037437892   0.0014969892  -0.0025142729
       -0.0001644944  -0.0006508094  -0.0003578481   0.0001193394   0.0001958094
       -0.0001016844  -0.0000001020  -0.0002132539   0.0000227473  -0.0000418341
        0.0000342999   0.0000280200   0.0000002612  -0.0000883051  -0.0000282988
       -0.0000183905   0.0001137865   0.0000243509  -0.0002491055  -0.0000273598
       -0.0001633635  -0.0004066944   0.0000009121   0.0001817250   0.0001831673
       -0.0001688102  -0.0000448083  -0.0001665768  -0.0000611203   0.0000001275
        0.0002297970   0.0000565387   0.0000406851  -0.0001731815  -0.0000146768
        0.0000175784  -0.0000633925  -0.0000293836   0.0000156102  -0.0000117591
       -0.0000350447  -0.0000237493   0.0000319820  -0.0000291244   0.0000168136
        0.0000243474   0.0000213527   0.0000003319  -0.0000410357  -0.0000247785
       -0.0000223649   0.0000004535  -0.0000236997   0.0000204974  -0.0000358324
        0.0000430734  -0.0000230667  -0.0000026037   0.0000223939  -0.0000267959
       -0.0000495958   0.0000047567   0.0000191331   0.0000261037  -0.0000375992
        0.0000062721   0.0000322803   0.0000414294  -0.0000129417  -0.0000073438
        0.0000257584   0.0000235513  -0.0000951587   0.0000383833  -0.0000411304
        0.0002211546   0.0001692802   0.0000880424  -0.0006147747  -0.0012990104
        0.0010815246   0.0005690156   0.0000477529  -0.0003136760   0.0000116450
       -0.0001747392   0.0000608821   0.0001385420   0.0001323093  -0.0002310843
       -0.0002005202  -0.0002487192   0.0003378258   0.0000977777   0.0009792235
       -0.0001045262   0.0555766642   0.0058317087  -0.0356576282  -0.0018528314
        0.1449646949  -0.1843047131   0.1169231966   0.0135678706  -0.1082987687
       -0.0154579305   0.0155949599  -0.0051338810   0.0050693941   0.0029949803
        0.0025054354   0.0000211534  -0.0000018013   0.0000200208  -0.0000069212
       -0.0000000686   0.0000081628   0.0000112212   0.0000223305  -0.0000000967
       -0.0000091674  -0.0000118343  -0.0000089700   0.0000496714   0.0000737616
       -0.0000199861   0.0000072291  -0.0000046708   0.0000204540  -0.0000122939
        0.0000127932   0.0000107440  -0.0000027640   0.0000134534  -0.0000114677
       -0.0000138793  -0.0000039298  -0.0000144052  -0.0000051948  -0.0000178504
       -0.0000110816   0.0000031309  -0.0000104044  -0.0000003974   0.0000062345
        0.0000123108   0.0000048055   0.0000075070   0.0000088658  -0.0000083772
       -0.0000023848   0.0000135586  -0.0000023820  -0.0000190163   0.0000160232
        0.0000070269  -0.0000205260  -0.0000025072   0.0000122390  -0.0000085107
       -0.0000128029   0.0000102537  -0.0000151174  -0.0000005047  -0.0000135058
        0.0000296753   0.0000284272  -0.0000170269   0.0000005071   0.0000458023
        0.0000021562  -0.0000306670   0.0000170128  -0.0000004639  -0.0000240915
       -0.0000286296  -0.0000049744   0.0000492460  -0.0000076401  -0.0000240001
        0.0001732665  -0.0000112159  -0.0001511129   0.0045524909   0.0033975014
        0.0023068162  -0.0001462742   0.0068865046  -0.0044226382
       -0.2091598327   0.0887055116   0.0066181402   0.5728218632  -0.1167563780
       -0.1414977866  -0.2667982015   0.0246890610   0.1020171473  -0.0054633922
       -0.0517594031   0.0525453324   0.0121366031   0.0056898955  -0.0075024079
       -0.0000350773  -0.0016586626  -0.0016725300   0.0009588894   0.0004638621
       -0.0004013117  -0.0001621704  -0.0003013924  -0.0000229755   0.0001232449
        0.0000668602   0.0001831420  -0.0000394493   0.0000470733  -0.0001496816
        0.0000042732   0.0001781329  -0.0000654809  -0.0004054088  -0.0000956195
        0.0001154545  -0.0012056126   0.0000738035   0.0003962855   0.0004484108
       -0.0004660276  -0.0000583715  -0.0003342238  -0.0000714080  -0.0000415525
        0.0001676221   0.0000179961   0.0000575611   0.0001269028   0.0000263889
        0.0000537288  -0.0001258227  -0.0001442651  -0.0000395673   0.0000261562
       -0.0000069628  -0.0000301467   0.0000219071  -0.0000636860  -0.0000008594
        0.0000456133   0.0000399223   0.0000031480  -0.0000685580  -0.0000657504
       -0.0000191367  -0.0000076918   0.0000123537   0.0000177868  -0.0001138600
        0.0001541136   0.0000221329   0.0000092567  -0.0000176336  -0.0000325504
       -0.0000808591   0.0000252127   0.0000064836   0.0000369924  -0.0000518807
        0.0000025562   0.0000341217   0.0000729952  -0.0000083071   0.0000357969
        0.0000175655   0.0000205911  -0.0002363197   0.0000608127  -0.0000151340
        0.0006096429   0.0004850081   0.0002014775  -0.0015025657  -0.0045621913
        0.0029131702   0.0016243445   0.0005028399  -0.0016519935  -0.0001688902
       -0.0011446433   0.0000915329   0.0001681008   0.0005303515  -0.0001069536
       -0.0004825612  -0.0004141470   0.0006381651  -0.0006617640   0.0020488121
        0.0002690970  -0.0455353207   0.0092777302   0.0113134406   0.0323178140
        0.0411106260  -0.0557484418  -0.0221501032   0.0164687296  -0.0026393033
       -0.0456941163  -0.0156513444   0.0195039321  -0.0228338287   0.0013244066
        0.0122333300   0.0001005011  -0.0000577049   0.0000301397  -0.0000145988
       -0.0000333858   0.0000289998  -0.0000000934   0.0000090651   0.0000244185
       -0.0000334479  -0.0000238682   0.0000110156  -0.0000146395   0.0000803431
        0.0000221679   0.0000054798  -0.0000377933   0.0000268265  -0.0000141925
        0.0000292192  -0.0000015224   0.0000024674   0.0000153480  -0.0000256378
       -0.0000024126  -0.0000060527  -0.0000191381   0.0000016735  -0.0000163765
       -0.0000172266   0.0000086428  -0.0000119048  -0.0000047634   0.0000331559
        0.0000107030   0.0000249869   0.0000323749   0.0000151817  -0.0000253634
        0.0000026574   0.0000108993  -0.0000001473  -0.0000118929   0.0000123619
        0.0000069476  -0.0000164223  -0.0000073595   0.0000061127  -0.0000045883
       -0.0000195154   0.0000175207  -0.0000162481  -0.0000110253  -0.0000148465
        0.0000337558   0.0000094891   0.0000229907   0.0000172097  -0.0000260959
       -0.0000174963   0.0000051568   0.0000016215  -0.0000126576  -0.0000245674
       -0.0000063277   0.0000022725   0.0000057161   0.0000119166   0.0000242344
       -0.0001275310   0.0002103334   0.0001278633  -0.0003513755   0.0003653829
        0.0001693960   0.0019312931   0.0006168761   0.0020737628
        0.1440476777  -0.1658558390   0.0327276934  -0.1167563780   0.4376129127
       -0.2413487069  -0.0302622673  -0.0749426218   0.0447077195  -0.0167421583
        0.0083470678   0.0031454276  -0.0025937628  -0.0023511377   0.0075287855
       -0.0004440467   0.0008142147   0.0001443040  -0.0002078662  -0.0001314121
        0.0001880698   0.0000124915   0.0001894244  -0.0000351835  -0.0000542547
        0.0000395501  -0.0000470496   0.0000112000   0.0000004529   0.0000889779
        0.0000217261   0.0000238047   0.0000233239   0.0002444477  -0.0000223846
       -0.0000648018   0.0005263543  -0.0000081513  -0.0000699532  -0.0003493577
        0.0002679222   0.0000588204   0.0002477365   0.0001507563   0.0000016786
       -0.0004367725  -0.0000824405  -0.0000740619   0.0003352512   0.0000114657
        0.0000042968   0.0000698614   0.0000396996  -0.0000430301  -0.0000047396
        0.0000505143   0.0000245350  -0.0000426649   0.0000350466  -0.0000252394
       -0.0000087137  -0.0000303438   0.0000061097   0.0000452634   0.0000256493
        0.0000156553   0.0000084587   0.0000219734  -0.0000360450   0.0000215317
       -0.0000234198   0.0000403598   0.0000333394  -0.0000301114   0.0000380346
        0.0000506523   0.0000143934  -0.0000213085  -0.0000246022   0.0000311062
        0.0000017831  -0.0000424147  -0.0000488886   0.0000226646   0.0000047535
       -0.0000435991  -0.0000218132   0.0001374942  -0.0001004222   0.0000498430
       -0.0003240892  -0.0002498640  -0.0001462622  -0.0000473224   0.0011646783
       -0.0006019061  -0.0008543295  -0.0001128778   0.0003672681  -0.0000022227
        0.0002490275   0.0000406728  -0.0000314477  -0.0001350816   0.0000066884
        0.0001760894   0.0000513541  -0.0001376049   0.0002760137  -0.0005394679
       -0.0001115691   0.0154540580  -0.0037587275  -0.0084497471   0.0039859359
       -0.0385663168   0.0348636555   0.0000520421   0.0010505056  -0.0001245434
       -0.0151477552  -0.1640218060   0.1301987665   0.0172418738   0.0005091062
       -0.0086567222  -0.0000454043   0.0000457954  -0.0000132017   0.0000163997
       -0.0000284878  -0.0000136184  -0.0000197123  -0.0000332496  -0.0000121952
        0.0000113633   0.0000117043   0.0000071589  -0.0000246861  -0.0001013309
        0.0000150100  -0.0000072975   0.0000012426  -0.0000171428   0.0000192961
       -0.0000225612   0.0000007823   0.0000077324  -0.0000198466   0.0000112383
        0.0000245820   0.0000063280   0.0000177801   0.0000125718   0.0000216767
        0.0000060213   0.0000005458   0.0000076695  -0.0000039970  -0.0000008705
       -0.0000079487   0.0000031743  -0.0000248464  -0.0000037297   0.0000055514
       -0.0000053200  -0.0000252343   0.0000133221   0.0000169561  -0.0000249631
        0.0000010910   0.0000226777  -0.0000048209  -0.0000078127   0.0000042509
        0.0000088983  -0.0000026966   0.0000289847   0.0000157227   0.0000079866
       -0.0000160213  -0.0000346703  -0.0000186399   0.0000222703  -0.0000412891
       -0.0000212900   0.0000515325  -0.0000117141  -0.0000062705   0.0000081453
        0.0000454961  -0.0000372046   0.0000001274   0.0000401725   0.0000223154
       -0.0000451874  -0.0000650323   0.0000495921   0.0001112404   0.0002087307
       -0.0005519383   0.0012035831   0.0003657293   0.0062653983
       -0.0466583775   0.0627233319  -0.0803683530  -0.1414977866  -0.2413487069
        0.4182415573   0.1499542614   0.0162053875  -0.1429973325   0.0209275604
        0.0199975719  -0.0293486883  -0.0010837634   0.0041499711   0.0020887804
       -0.0005807717   0.0008665912   0.0003381143  -0.0003372978  -0.0002213951
        0.0000593245   0.0000736330   0.0001076584   0.0000666629  -0.0001017475
       -0.0001452295  -0.0001008453   0.0000817526  -0.0000142887   0.0000430905
        0.0000279039  -0.0000103093   0.0000209824   0.0000553578  -0.0000702352
       -0.0000362906   0.0002838584   0.0001531967  -0.0000533511  -0.0001238786
        0.0000064015  -0.0000095151   0.0000698903   0.0000106803   0.0000507781
        0.0000796104   0.0000221502   0.0000054491  -0.0001730302   0.0000084678
       -0.0000126114   0.0000016296   0.0000354268   0.0000294637  -0.0000139953
       -0.0000390347  -0.0000013628   0.0000284940   0.0000024921   0.0000284694
       -0.0000006828   0.0000168860   0.0000012869  -0.0000141693   0.0000065961
       -0.0000089924   0.0000074880  -0.0000194038   0.0000234593   0.0000469410
       -0.0000688123  -0.0000215296  -0.0000265116   0.0000354139  -0.0000141591
       -0.0000109285  -0.0000293276   0.0000226681   0.0000184963  -0.0000147231
       -0.0000033144   0.0000219302   0.0000117886  -0.0000226537  -0.0000259664
        0.0000262961   0.0000078419   0.0000494995   0.0000049917  -0.0000333874
       -0.0000868658  -0.0001075686   0.0000152914   0.0014357928   0.0011653612
       -0.0013380953  -0.0004489745  -0.0000157478   0.0001972130   0.0001964035
        0.0002238957  -0.0002212117  -0.0000275178  -0.0000499748   0.0000197827
        0.0000234838   0.0001628628  -0.0000467609   0.0001486917  -0.0006157481
       -0.0000237808   0.0071775955  -0.0056570819  -0.0029136819  -0.0199795514
        0.0149203908  -0.0020692227   0.0124867852  -0.0088765380   0.0026174211
        0.0199941719   0.1301415463  -0.1676829949  -0.0036676338   0.0000672178
        0.0029521282  -0.0000194508  -0.0000145382  -0.0000123426  -0.0000149379
        0.0000563997   0.0000008302   0.0000215424   0.0000366244   0.0000167570
        0.0000045712   0.0000037603   0.0000061044   0.0000103322   0.0000694221
        0.0000167106   0.0000057766   0.0000138489   0.0000120413  -0.0000208586
        0.0000082038   0.0000040776  -0.0000073371   0.0000110538  -0.0000008679
       -0.0000221172  -0.0000009140  -0.0000069847  -0.0000140459  -0.0000128137
        0.0000032197  -0.0000040617   0.0000025827   0.0000056703  -0.0000185322
        0.0000025051  -0.0000147752   0.0000070395  -0.0000070411   0.0000033172
        0.0000056712   0.0000173109  -0.0000140663  -0.0000118556   0.0000196006
       -0.0000049019  -0.0000129460   0.0000069657   0.0000047619  -0.0000003415
        0.0000031535  -0.0000046857  -0.0000114819  -0.0000056280  -0.0000028930
        0.0000174320   0.0000188572  -0.0000258969  -0.0000301420   0.0000676560
        0.0000417296  -0.0000120083   0.0000360995   0.0000505253  -0.0000224660
       -0.0000527176   0.0000284115   0.0000039071  -0.0000421616  -0.0000426906
        0.0000797621  -0.0000351987  -0.0001067810  -0.0000174899  -0.0005588506
        0.0001443284   0.0017522572   0.0065873701   0.0003967706
       -0.0621944499   0.0466813655  -0.0097599787  -0.2667982015  -0.0302622673
        0.1499542614   0.6078262694  -0.1331662006  -0.1450421640  -0.0693213481
        0.0135840655  -0.0010310457  -0.0188536626  -0.0227419384   0.0282763019
       -0.0016217294  -0.0002723147   0.0023356040  -0.0009613011  -0.0005412271
        0.0009051031   0.0003031660   0.0001640947  -0.0002290325  -0.0000596726
        0.0000066763  -0.0001080856   0.0000191487   0.0001735150   0.0000187737
        0.0000537324  -0.0002670965   0.0000778155   0.0004628096   0.0000626354
        0.0001773541   0.0015173172   0.0001368887  -0.0000866159  -0.0005758653
        0.0003760150   0.0000218001   0.0003981731   0.0002035062   0.0001430491
       -0.0002779218  -0.0000194491  -0.0000107826  -0.0000878992   0.0000541433
       -0.0000203256   0.0000150666   0.0000740774   0.0000464042  -0.0000363737
       -0.0000221613  -0.0000084911  -0.0000011576   0.0000348892  -0.0000084636
       -0.0000247333  -0.0000074585  -0.0000028638   0.0000234591   0.0000073351
        0.0000302079   0.0000547521  -0.0000197893   0.0000330016   0.0001270747
       -0.0001782879  -0.0000139972  -0.0000276956   0.0000682582   0.0000099362
        0.0000321769  -0.0000332749  -0.0000052650  -0.0000032612   0.0000260418
       -0.0000125354   0.0000059333  -0.0000329871   0.0000095771  -0.0000736796
        0.0000123594   0.0000113586   0.0004521104  -0.0001453047  -0.0000721519
       -0.0005008236  -0.0004185515  -0.0002867248  -0.0011860595   0.0049320014
        0.0013963850  -0.0023318206  -0.0017446772   0.0018263755   0.0000680898
        0.0009980263   0.0000553646  -0.0001978415  -0.0003889003   0.0001852506
        0.0004374905   0.0005901889  -0.0005948088   0.0005310344  -0.0017705219
       -0.0000055108   0.0235943140   0.0098665184  -0.0191865505  -0.0161788757
       -0.0172168887   0.0225208453  -0.0021656124   0.0048607232   0.0006786755
       -0.0040409304  -0.0013400367   0.0043498513  -0.1858504982   0.1237485092
       -0.0365322863  -0.0002191785   0.0000543520  -0.0000694762  -0.0000218271
        0.0000268098   0.0000065759  -0.0000258002  -0.0000256452  -0.0000361400
       -0.0000694081  -0.0000098608  -0.0000549584  -0.0000860821  -0.0000281810
       -0.0001612986  -0.0000163231  -0.0000029059   0.0000333851  -0.0000046204
       -0.0000133141   0.0000356344  -0.0000169603   0.0000103156  -0.0000107594
       -0.0000160537   0.0000006829  -0.0000004973  -0.0000119704   0.0000011391
        0.0000054283  -0.0000087870   0.0000227833  -0.0000008997  -0.0000131339
       -0.0000072044  -0.0000086518   0.0000059877  -0.0000067846  -0.0000097417
       -0.0000036186   0.0000169589  -0.0000132768  -0.0000023507   0.0000094379
       -0.0000066474  -0.0000007779   0.0000121396  -0.0000010641   0.0000028066
        0.0000097927  -0.0000024346  -0.0000016124   0.0000007414  -0.0000121309
       -0.0000405195  -0.0000444391   0.0000824115   0.0000499800  -0.0000445794
       -0.0000444267  -0.0000601706  -0.0000694924   0.0001368511  -0.0000070964
       -0.0000656205   0.0000303968  -0.0000210193  -0.0000563267  -0.0000753585
        0.0001081199  -0.0000549930  -0.0001592935  -0.0024047783   0.0048141174
       -0.0000967188   0.0003344908  -0.0006224243   0.0003874747
        0.0052575537   0.0170393228  -0.0177718694   0.0246890610  -0.0749426218
        0.0162053875  -0.1331662006   0.4103353823  -0.2101220658  -0.0021908374
       -0.1725018455   0.1103780081  -0.0261313521  -0.0076025613   0.0198904593
        0.0016598142   0.0010726700   0.0007962522  -0.0005380010  -0.0005767611
       -0.0000799335  -0.0002101266   0.0005239541  -0.0000449842  -0.0001311411
       -0.0002270637  -0.0002087717   0.0001161424   0.0002021760   0.0000963535
        0.0000734004  -0.0003372016  -0.0000433630   0.0002558387   0.0001453286
       -0.0002603890   0.0016023585  -0.0002721342  -0.0004156259  -0.0004235408
        0.0004561740   0.0001148842   0.0004340163   0.0002751593   0.0002717011
       -0.0003595201   0.0000195763  -0.0000718596  -0.0000770232  -0.0000262039
        0.0000455244  -0.0000133246   0.0000608242   0.0000025160  -0.0000925434
        0.0000061911  -0.0000475175  -0.0000217615   0.0000031685  -0.0000308077
        0.0000068605  -0.0000180764   0.0000023370   0.0000131820   0.0000004665
        0.0000154012   0.0000700982  -0.0000781447   0.0000475624   0.0000095346
       -0.0000230350  -0.0000238848   0.0001051577   0.0000867470  -0.0000444959
        0.0000081980   0.0000160150  -0.0000195315  -0.0000028715   0.0000081013
       -0.0000015311  -0.0000082971  -0.0000112696   0.0000291942  -0.0000854821
       -0.0000207532   0.0000358187   0.0006054828  -0.0002950737  -0.0000952267
       -0.0005755562  -0.0006344542  -0.0002235518   0.0037052142   0.0078019763
       -0.0025039123  -0.0027645335  -0.0007699967   0.0023794707  -0.0000628023
        0.0016597375  -0.0001187968  -0.0004265567  -0.0008239684   0.0004448693
        0.0008066349   0.0007976142  -0.0014549781   0.0008593038  -0.0031927007
       -0.0002481801   0.0241489417  -0.0266973019   0.0161932012  -0.0118400057
       -0.0080001052   0.0098992259   0.0049724623   0.0005579349   0.0032162525
       -0.0177347105  -0.0025317314   0.0127596888   0.1232673488  -0.1413387321
        0.0378717065   0.0001199846  -0.0001206523   0.0000789438  -0.0000033660
       -0.0000138474   0.0000030070   0.0000118560  -0.0000124046   0.0000326661
        0.0000381269  -0.0000052331   0.0000369098   0.0000853573  -0.0002372583
        0.0002500494  -0.0000044924  -0.0000078919  -0.0000245196   0.0000003915
       -0.0000205323   0.0000520402   0.0000102282  -0.0000046286  -0.0000139962
        0.0000095050   0.0000027298  -0.0000026573   0.0000000952   0.0000016569
       -0.0000058059  -0.0000027537   0.0000041352  -0.0000023128   0.0000040372
        0.0000211158   0.0000054438  -0.0000052341  -0.0000157871  -0.0000002389
       -0.0000012775  -0.0000166833   0.0000071863  -0.0000039805  -0.0000037017
        0.0000037421   0.0000013157  -0.0000089174   0.0000008754   0.0000009516
       -0.0000017899   0.0000164764  -0.0000243018   0.0000228380  -0.0000360344
       -0.0001413193   0.0002340621   0.0000082226   0.0001151068  -0.0000782123
       -0.0000366657   0.0000677620  -0.0000070405   0.0000081902   0.0001038854
       -0.0000030198   0.0000393354  -0.0000579613   0.0000812752  -0.0000725770
        0.0002077816  -0.0002726039  -0.0000209935   0.0043179354   0.0003120201
        0.0030159051  -0.0006600507   0.0000035880  -0.0002077302
        0.0277734720  -0.0402724436   0.0242365573   0.1020171473   0.0447077195
       -0.1429973325  -0.1450421640  -0.2101220658   0.3911218289   0.0255311155
        0.1047373490  -0.1583385418   0.0263205146   0.0195239213  -0.0276624973
       -0.0006337392  -0.0013029735  -0.0031887672   0.0016869837  -0.0002734565
       -0.0011655767  -0.0000716415  -0.0001685560  -0.0002285245   0.0003421598
        0.0002740978   0.0002792965  -0.0002369112   0.0001088658  -0.0001658647
       -0.0000001872  -0.0000247994   0.0000078834  -0.0000250695  -0.0003133317
       -0.0000242548  -0.0020932608   0.0003625836   0.0002717245   0.0003982604
       -0.0004198261  -0.0000865385  -0.0003834260  -0.0001899038  -0.0001969118
        0.0001713125  -0.0000153074   0.0000322512   0.0001744469   0.0000177737
       -0.0000091253   0.0000348115  -0.0000338308  -0.0000443704   0.0000537292
        0.0000100853   0.0000457184   0.0000072723   0.0000083415   0.0000241601
        0.0000059886  -0.0000034243   0.0000042536  -0.0000000945   0.0000073185
       -0.0000204789  -0.0000486990   0.0000615934  -0.0000529185  -0.0000408228
        0.0000578370   0.0000272769  -0.0000300321  -0.0000798045   0.0000344627
        0.0000048634   0.0000035445   0.0000167589   0.0000038637  -0.0000069557
        0.0000073829  -0.0000136581   0.0000013487  -0.0000189509   0.0000745534
       -0.0000098434  -0.0000323679  -0.0004644555   0.0002034475   0.0001480155
        0.0005844379   0.0003784799   0.0001508900   0.0004229068  -0.0063797196
        0.0048345503   0.0026708798   0.0010804425  -0.0020875747  -0.0004286008
       -0.0015201063  -0.0001528440   0.0002324493   0.0007753128  -0.0001666349
       -0.0008202167  -0.0004377179   0.0008042542  -0.0009604123   0.0025581913
        0.0001497526  -0.0407815267   0.0234719109  -0.0023964870   0.0187464603
        0.0137259105  -0.0283468538   0.0003602689   0.0035900407   0.0038441203
        0.0194302227   0.0039552330  -0.0136286026  -0.0362591814   0.0375351338
       -0.0483100667  -0.0001012725   0.0000703886  -0.0001128675  -0.0000074780
       -0.0000243213  -0.0000212975  -0.0000300611   0.0000004067  -0.0000132562
       -0.0000498908  -0.0000005018  -0.0000019144   0.0000082511   0.0001720383
       -0.0002213210  -0.0000280669   0.0000586045   0.0000335249   0.0000032748
        0.0000174985  -0.0000355088   0.0000055432  -0.0000093393   0.0000174419
        0.0000071783   0.0000018035   0.0000085688   0.0000084163   0.0000061233
        0.0000028781   0.0000034934  -0.0000061952  -0.0000000907  -0.0000088864
       -0.0000126253  -0.0000047801  -0.0000125733   0.0000068805   0.0000041033
        0.0000014851  -0.0000060277   0.0000032257   0.0000062759  -0.0000081297
        0.0000002905   0.0000066159   0.0000018603  -0.0000015633  -0.0000032963
        0.0000027572  -0.0000104653   0.0000307812   0.0000038161   0.0000390315
        0.0001485490  -0.0000122837  -0.0000203830  -0.0000416932   0.0000626340
        0.0001568932  -0.0000250296   0.0000222069  -0.0000400347   0.0000239192
        0.0000292460   0.0000326370   0.0000420589   0.0000092064   0.0000558753
        0.0000407319   0.0003742511   0.0000949995   0.0009123926   0.0034926724
        0.0035190449   0.0003452599   0.0001646137  -0.0002040848
        0.0028799541   0.0130433648  -0.0179252952  -0.0054633922  -0.0167421583
        0.0209275604  -0.0693213481  -0.0021908374   0.0255311155   0.5165080288