$hessian                                                                        
        0.5678621298  -0.2848229264  -0.1540634554  -0.4761003036   0.2395404621
        0.1218283380  -0.0095195699   0.0376715049   0.0096753728  -0.0049509433
       -0.0033496417  -0.0020300690  -0.0000729545   0.0018517430   0.0001034691
       -0.0000015717  -0.0012647287  -0.0001341537   0.0005531178   0.0018867582
       -0.0002884022   0.0036890451   0.0001841677   0.0003619362  -0.0775001791
        0.0094179569   0.0194331856  -0.0025300178  -0.0067189838  -0.0025339005
       -0.0033352440  -0.0034439237   0.0020886007   0.0047308169   0.0030387167
        0.0002825388  -0.0039446066  -0.0021048039  -0.0000857003   0.0002731521
        0.0021353788   0.0004909980  -0.0000761915  -0.0005557918   0.0000675946
        0.0001955105   0.0004220765  -0.0000834587  -0.0003324275   0.0000649260
        0.0000008299   0.0001904091  -0.0002373786  -0.0000440682  -0.0006464349
        0.0003658881   0.0000015320   0.0001069717  -0.0007367289   0.0000590948
       -0.0002310192   0.0003289170   0.0000149877   0.0000158592  -0.0003932707
        0.0000288739   0.0000029256  -0.0000137459  -0.0000102562   0.0000194644
       -0.0001127548  -0.0000011904  -0.0001870490  -0.0001038393  -0.0000598079
        0.0006342002  -0.0001669332   0.0000038738  -0.0006832228   0.0001787457
       -0.0000046482   0.0000675493  -0.0003008367  -0.0000915474  -0.0000411096
        0.0000610123  -0.0000010512   0.0000268501  -0.0000332974  -0.0000125125
       -0.0000118384   0.0000039133   0.0000049384   0.0000144438  -0.0000604999
        0.0000063563   0.0000173012   0.0000850173  -0.0000305773   0.0002098706
        0.0002325838   0.0000937918  -0.0000639626  -0.0000292761  -0.0000025779
        0.0000384082   0.0000152075   0.0000101650  -0.0000132433   0.0000048383
       -0.0000091076   0.0000414525   0.0000453742  -0.0000080727  -0.0000270433
       -0.0000823909   0.0000289916  -0.0001064422   0.0001799634   0.0000568336
        0.0000623123   0.0001040185   0.0000033046   0.0003983690  -0.0000285295
        0.0000749694  -0.0003687113   0.0003364223  -0.0000756637   0.0017001807
       -0.0008776942  -0.0006674419  -0.0022020826  -0.0000595808   0.0016937872
        0.0009744269   0.0079537140   0.0034974929   0.0014946835   0.0000546919
        0.0009468627   0.0002323025   0.0001771784  -0.0000207520   0.0000937138
       -0.0001002705   0.0001706504  -0.0000248384   0.0002272856   0.0002087921
        0.0001697501  -0.0004051308   0.0007199032  -0.0001399655   0.0003900275
       -0.0009011046  -0.0007829315  -0.0003501780   0.0001143518  -0.0000219465
        0.0000917878   0.0000022328   0.0000544419  -0.0001278373   0.0000239045
       -0.0000222822  -0.0001011928   0.0000220783  -0.0000601710  -0.0000478417
       -0.0000084678  -0.0000698486  -0.0000460727   0.0000393450   0.0000161650
       -0.0000077523  -0.0000349698  -0.0000260007   0.0000302314   0.0000189421
       -0.0000057438  -0.0000066295   0.0000017910  -0.0000186205   0.0000131350
        0.0000134309  -0.0000093074   0.0000248550   0.0000020939   0.0000078625
        0.0000114964  -0.0000055678  -0.0000056610  -0.0000050654   0.0000240527
        0.0000002918   0.0000104097  -0.0000037298  -0.0000222407   0.0000004109
       -0.0000167260  -0.0000199581  -0.0000161642  -0.0000040347   0.0000003433
       -0.0000119699   0.0000055089  -0.0000052388   0.0000080309  -0.0000232862
       -0.0000406482  -0.0000160011  -0.0000203639   0.0000217165  -0.0000082406
        0.0000331655  -0.0000373062   0.0000624800  -0.0000146670   0.0000484198
       -0.0001236688   0.0000213186   0.0000571495  -0.0000744922  -0.0001034353
        0.0002372709  -0.0002652621  -0.0008855131
       -0.2848229264   0.2495435890   0.0987570788   0.2378472690  -0.2139305629
       -0.0781723194   0.0447215559  -0.0457258081  -0.0211292317   0.0051208097
        0.0010864501   0.0010415308   0.0001850093  -0.0001738886   0.0021167136
        0.0005694855   0.0007494852   0.0004323975  -0.0002830787  -0.0029650701
        0.0018812550  -0.0035165112  -0.0057966738  -0.0025643718   0.0040775633
        0.0180172417  -0.0025181071  -0.0034567086   0.0005779995   0.0001617511
        0.0006029219   0.0005872483   0.0006858028  -0.0014082587  -0.0007303671
        0.0005057049   0.0004464654   0.0008031048  -0.0001005857  -0.0000761931
       -0.0004035004  -0.0001339394   0.0001906127   0.0000981476  -0.0000097644
       -0.0000295140  -0.0000526061   0.0000136298   0.0000582298  -0.0000177102
       -0.0000038630  -0.0000622160   0.0000576572   0.0000109613   0.0001339109
       -0.0001079911  -0.0000027889  -0.0002239831   0.0001165408   0.0000084591
        0.0001285302  -0.0001277642  -0.0000141592  -0.0000315128   0.0001381580
       -0.0000128845   0.0000472507  -0.0000038523   0.0000052483  -0.0000192916
        0.0000135101  -0.0000093909   0.0000202648   0.0000096485   0.0000022447
       -0.0000680641   0.0000168722  -0.0000052301   0.0000770469   0.0000299327
        0.0000018901   0.0000016779  -0.0000096026   0.0000118751  -0.0000049270
        0.0000008958   0.0000035208  -0.0000044203  -0.0000046390   0.0000049023
        0.0000017520   0.0000044771   0.0000000289  -0.0000025497   0.0000001048
        0.0000044923   0.0000039586  -0.0000004650   0.0000027810  -0.0000464119
       -0.0000483242  -0.0000068109   0.0000132752   0.0000042975   0.0000031643
       -0.0000070739  -0.0000045336  -0.0000006562  -0.0000004037   0.0000006090
        0.0000014505  -0.0000059771  -0.0000120145   0.0000049726   0.0000077284
        0.0000156116  -0.0000009965   0.0000150163  -0.0000206112  -0.0000071286
       -0.0000193591  -0.0000237928  -0.0000083488  -0.0000882768  -0.0000095002
        0.0000064204   0.0000148822  -0.0000181802   0.0000057782   0.0000043487
       -0.0000042303   0.0001444915   0.0022758547   0.0004544666   0.0007240027
       -0.0022987233  -0.0030256194  -0.0012551234   0.0000002494   0.0002891812
       -0.0005687140  -0.0000845165   0.0000131274  -0.0001182789   0.0001898185
       -0.0000182735  -0.0004757216   0.0001343111  -0.0007864609  -0.0000150134
        0.0002194791   0.0001559821  -0.0007544868  -0.0002671621  -0.0000219950
        0.0003939994  -0.0000158812  -0.0001041360   0.0002103049  -0.0000545501
        0.0000091982  -0.0000144371  -0.0000191870   0.0000436000  -0.0000082439
       -0.0000175588   0.0000068567  -0.0000031264  -0.0000171058   0.0000016450
        0.0000050898   0.0000042067   0.0000080103  -0.0000065767   0.0000046961
        0.0000017642   0.0000111671  -0.0000039662   0.0000026096   0.0000046573
        0.0000017897   0.0000015352  -0.0000015385   0.0000018015  -0.0000008084
       -0.0000011690  -0.0000007644   0.0000010449  -0.0000005374   0.0000004159
        0.0000034176  -0.0000048167   0.0000012004  -0.0000021101  -0.0000044996
       -0.0000016913   0.0000008308  -0.0000018501   0.0000017223  -0.0000000207
        0.0000021473   0.0000033482   0.0000024090   0.0000008529   0.0000003414
        0.0000037358  -0.0000022352   0.0000004709  -0.0000023826   0.0000022633
        0.0000046968   0.0000019906   0.0000029685  -0.0000030252   0.0000050629
        0.0000006797  -0.0000178486   0.0000149293  -0.0000046680   0.0000383001
       -0.0000041884  -0.0000110194   0.0000395015   0.0002280920  -0.0000528953
       -0.0002321311   0.0010366125   0.0008288497
       -0.1540634554   0.0987570788   0.0685202128   0.1206297156  -0.0791810647
       -0.0920929684   0.0134436355  -0.0170145974   0.0108327613   0.0009948123
        0.0005854601   0.0000677577   0.0004661269   0.0004056280  -0.0003207099
        0.0000202353   0.0002695181   0.0001322335   0.0014979673  -0.0005692780
       -0.0002813846  -0.0015388300  -0.0033154774   0.0004611573   0.0197782543
       -0.0003579370   0.0120209311  -0.0014304481  -0.0003528931   0.0022114867
        0.0002205363   0.0025237278  -0.0005066999  -0.0019729401  -0.0011481551
       -0.0000128991   0.0016881224   0.0008059755   0.0002112193  -0.0000838732
       -0.0006536170  -0.0002531627  -0.0000087494   0.0002108037   0.0000039720
       -0.0000475100  -0.0001421406   0.0000365303   0.0001309690  -0.0000619749
        0.0000054676  -0.0000968123   0.0001249517   0.0000220588   0.0002271377
       -0.0001663368   0.0000022599  -0.0000172232   0.0002928959  -0.0000269045
        0.0000785367  -0.0001467738  -0.0000076873  -0.0000222012   0.0001404314
       -0.0000074791  -0.0000130287   0.0000050473   0.0000082604  -0.0000156424
        0.0000492540   0.0000086918   0.0000661297   0.0000318058   0.0000187733
       -0.0002162421   0.0000583252  -0.0000025091   0.0002350799  -0.0000696046
        0.0000062071  -0.0000242604   0.0001084691   0.0000292096   0.0000158250
       -0.0000226949   0.0000007654  -0.0000087651   0.0000138825   0.0000043302
        0.0000041544  -0.0000023226  -0.0000006278  -0.0000030310   0.0000214488
       -0.0000028113  -0.0000035512  -0.0000299588   0.0000099379  -0.0000670454
       -0.0000732559  -0.0000365252   0.0000180139   0.0000092568   0.0000009267
       -0.0000114343  -0.0000029900  -0.0000031381   0.0000041845  -0.0000013996
        0.0000031940  -0.0000164212  -0.0000158724   0.0000022110   0.0000093190
        0.0000277158  -0.0000089049   0.0000342328  -0.0000609416  -0.0000160178
       -0.0000289992  -0.0000484516  -0.0000072636  -0.0000949673   0.0000240015
       -0.0000314900   0.0001247890  -0.0001327339   0.0000215099  -0.0005829085
        0.0003207904   0.0002988379   0.0014729492   0.0009202502  -0.0007440334
       -0.0012169025  -0.0031432677  -0.0015934048   0.0000676276   0.0005629611
        0.0000896236  -0.0000291644   0.0000481985  -0.0000068389  -0.0000627638
       -0.0000540885   0.0001285117   0.0000572425  -0.0003981440  -0.0001457470
       -0.0000513437   0.0000567956   0.0000042310   0.0000826757  -0.0001968797
        0.0004953126  -0.0000927457   0.0000671263  -0.0000234536   0.0000108747
       -0.0000282396  -0.0000250626  -0.0000235070   0.0000301902  -0.0000139365
        0.0000070389   0.0000359249  -0.0000104909   0.0000226724   0.0000102773
        0.0000013687   0.0000169288   0.0000164728  -0.0000174398  -0.0000051125
        0.0000001244   0.0000083519   0.0000097404  -0.0000101244  -0.0000070086
        0.0000007706   0.0000012301  -0.0000000156   0.0000053470  -0.0000046010
       -0.0000042006   0.0000029420  -0.0000086223  -0.0000005362  -0.0000030735
       -0.0000058835   0.0000028029   0.0000007401   0.0000029125  -0.0000075861
        0.0000009195  -0.0000049221   0.0000016418   0.0000082635  -0.0000004876
        0.0000052834   0.0000071409   0.0000050316   0.0000009680   0.0000000260
        0.0000031460  -0.0000021040   0.0000030791  -0.0000028132   0.0000074378
        0.0000173463   0.0000064893   0.0000067632  -0.0000064617   0.0000084714
       -0.0000097404   0.0000099750  -0.0000289872   0.0000024260  -0.0000227419
        0.0000235253  -0.0000038530   0.0000438800   0.0000949380  -0.0000079954
        0.0003461988   0.0007769990   0.0005470046
       -0.4761003036   0.2378472690   0.1206297156   0.7152407589  -0.1462739606
       -0.1174801259  -0.0634949320  -0.0201148073   0.0009288788   0.0013048936
       -0.0214767628  -0.0048761924  -0.0022645652  -0.0035941030  -0.0061462339
       -0.0009949440   0.0010608318  -0.0003528073  -0.0014628717   0.0026351141
       -0.0039223262  -0.0014016345   0.0208400389   0.0033906543  -0.1329771222
       -0.0503905107   0.0013347337  -0.0319347336   0.0002127025   0.0107159852
        0.0043822433   0.0059128361   0.0043867183  -0.0098873038  -0.0057119709
        0.0008751683   0.0079369560   0.0050595453  -0.0009693372  -0.0003256977
       -0.0040124985  -0.0011511824   0.0000781943   0.0010775644  -0.0001274725
       -0.0003821073  -0.0007954896   0.0001890889   0.0006446298  -0.0001396866
        0.0000028931  -0.0003473215   0.0004411390   0.0001062919   0.0012637280
       -0.0006827481   0.0000281328  -0.0001090725   0.0015171215  -0.0001103545
        0.0003430571  -0.0006312380  -0.0000240341   0.0000049321   0.0006976002
       -0.0000425681  -0.0000411615   0.0000105435   0.0000116594  -0.0000105507
        0.0002244163   0.0000233374   0.0003429971   0.0001902653   0.0001152000
       -0.0011608659   0.0003045556  -0.0000021504   0.0012341783  -0.0003783445
        0.0000049553  -0.0001333818   0.0005897228   0.0001673860   0.0000857640
       -0.0001179428  -0.0000050961  -0.0000499077   0.0000642124   0.0000224368
        0.0000185197  -0.0000066055  -0.0000088633  -0.0000211264   0.0001151813
       -0.0000204934  -0.0000354931  -0.0001663079   0.0000541025  -0.0003506850
       -0.0003893533  -0.0001738217   0.0001069167   0.0000515109   0.0000033218
       -0.0000664503  -0.0000213840  -0.0000194539   0.0000197516  -0.0000103964
        0.0000141714  -0.0000710528  -0.0000752584   0.0000132528   0.0000484921
        0.0001410102  -0.0000518275   0.0001822674  -0.0003272284  -0.0001073955
       -0.0001050689  -0.0001863217   0.0000009323  -0.0007670587   0.0000367648
       -0.0001449476   0.0008553443  -0.0005765535   0.0000902842  -0.0035808960
        0.0017093894   0.0013100521   0.0090076807  -0.0012089120  -0.0003282856
       -0.0118644502  -0.0249286612  -0.0096297161  -0.0022121944  -0.0019687974
        0.0002405470  -0.0004281887  -0.0013488740  -0.0000783191  -0.0005349329
        0.0000240083   0.0007551880  -0.0001933816   0.0011773739  -0.0000876528
       -0.0009954517   0.0008020473   0.0009560458   0.0007832800  -0.0006303100
       -0.0009305306   0.0001043016  -0.0003811507   0.0000174000  -0.0000107045
       -0.0001814847  -0.0000225336  -0.0000952601   0.0002109531  -0.0000409277
        0.0000425246   0.0001772076  -0.0000485437   0.0001275372   0.0000967237
        0.0000215474   0.0001165872   0.0000769939  -0.0000716296  -0.0000348044
       -0.0000006047   0.0000477862   0.0000538680  -0.0000624753  -0.0000418939
        0.0000086512   0.0000125002  -0.0000005450   0.0000340069  -0.0000221729
       -0.0000235671   0.0000189123  -0.0000483534  -0.0000021101  -0.0000163683
       -0.0000264448   0.0000180971   0.0000080292   0.0000135941  -0.0000382168
        0.0000006166  -0.0000197800   0.0000096774   0.0000382874  -0.0000005138
        0.0000296861   0.0000336512   0.0000291702   0.0000070867  -0.0000016997
        0.0000207020  -0.0000084709   0.0000071182  -0.0000114348   0.0000404909
        0.0000697037   0.0000300413   0.0000358454  -0.0000403150   0.0000168110
       -0.0000621076   0.0000845652  -0.0001491417   0.0000400371  -0.0000925031
        0.0001086840   0.0000162699   0.0001627453   0.0004389564   0.0001555476
       -0.0001991275   0.0030934815   0.0003411286
        0.2395404621  -0.2139305629  -0.0791810647  -0.1462739606   0.5417697989
        0.1109261155  -0.0139949490  -0.1694958243  -0.0165018494  -0.0193646592
       -0.0242355234  -0.0098288745  -0.0026736955   0.0036484667  -0.0029086211
       -0.0001972480  -0.0021810365  -0.0004169740   0.0044322102   0.0031437247
        0.0008377560   0.0166789891  -0.0238858254  -0.0012315996  -0.0565803400
       -0.1020253133   0.0074660219   0.0014490822   0.0064114209   0.0032758934
        0.0014385947   0.0047726638  -0.0037973354  -0.0032181443  -0.0021257681
       -0.0009646491   0.0042496309   0.0007734120   0.0005858951  -0.0001686826
       -0.0016258507  -0.0003731110  -0.0002057216   0.0004489005  -0.0000308053
       -0.0001691370  -0.0003647437   0.0000656821   0.0002658933  -0.0000735214
        0.0000127718  -0.0001295301   0.0001543385   0.0000374322   0.0004876743
       -0.0002533430  -0.0000027790   0.0003606767   0.0006464967  -0.0001027168
       -0.0000417232  -0.0001115886   0.0000063778   0.0000359094   0.0001552672
       -0.0000003911  -0.0001085054   0.0000142905   0.0000023411   0.0000222802
        0.0001076621   0.0000338892   0.0001553046   0.0000903491   0.0000606024
       -0.0005106834   0.0001393583   0.0000101406   0.0005291482  -0.0002661656
       -0.0000001125  -0.0000770336   0.0003423074   0.0000695629   0.0000575959
       -0.0000666875  -0.0000112004  -0.0000193104   0.0000429980   0.0000019179
        0.0000059889  -0.0000107132  -0.0000059398  -0.0000065680   0.0000653220
       -0.0000217000  -0.0000257685  -0.0000920297   0.0000235380  -0.0001035116
       -0.0001198869  -0.0000854418   0.0000331408   0.0000190153  -0.0000043448
       -0.0000215106  -0.0000022534  -0.0000098260   0.0000122179  -0.0000063789
        0.0000044677  -0.0000295766  -0.0000208273  -0.0000021261   0.0000134553
        0.0000488492  -0.0000261831   0.0000704078  -0.0001428805  -0.0000468124
       -0.0000207864  -0.0000661613   0.0000132164  -0.0002732337   0.0000517761
       -0.0001095265   0.0004301462  -0.0002526767   0.0000633980  -0.0019614159
        0.0010794290   0.0005805185  -0.0012413400  -0.0010825626  -0.0072993189
       -0.0237956872  -0.0195985253  -0.0034182202   0.0015539390   0.0005155647
        0.0007708409   0.0004407425   0.0001124191   0.0001700410  -0.0001383173
        0.0003950008   0.0004075610  -0.0005890505   0.0002660281  -0.0000209406
       -0.0022552406   0.0006918565   0.0004188075   0.0021145450  -0.0014820864
        0.0002511271   0.0007010012   0.0002511918  -0.0004025334   0.0000681504
       -0.0000663914   0.0000004764  -0.0000268533   0.0000437825  -0.0000089634
        0.0000464671   0.0000830313  -0.0000148807   0.0000941130   0.0000410855
        0.0000036117   0.0000555735   0.0000280528  -0.0000309504  -0.0000278964
       -0.0000033874   0.0000053678   0.0000364095  -0.0000392551  -0.0000321768
        0.0000001845   0.0000026060   0.0000031999   0.0000139658  -0.0000103470
       -0.0000111506   0.0000111472  -0.0000284888  -0.0000011194  -0.0000099031
       -0.0000218445   0.0000187879   0.0000049102   0.0000096383  -0.0000139826
        0.0000041540  -0.0000120069   0.0000069648   0.0000178719  -0.0000009035
        0.0000109871   0.0000126289   0.0000100563   0.0000018813   0.0000003194
        0.0000037632  -0.0000004546   0.0000055963  -0.0000029198   0.0000189287
        0.0000303449   0.0000123170   0.0000137976  -0.0000109993  -0.0000013002
       -0.0000358214   0.0000789887  -0.0001149727   0.0000315359  -0.0001153081
        0.0000535818   0.0000264564  -0.0008939684  -0.0006858818   0.0001097455
       -0.0002796022  -0.0019393868   0.0006068405
        0.1218283380  -0.0781723194  -0.0920929684  -0.1174801259   0.1109261155
        0.2221593857  -0.0061428617  -0.0170049348  -0.0682590884  -0.0042806388
       -0.0142013777  -0.0032033332  -0.0048551336  -0.0017974592   0.0054920842
       -0.0005584396  -0.0005691898  -0.0007036966  -0.0042849071   0.0014956780
        0.0062655557   0.0041999304   0.0057926030   0.0007985077   0.0026540706
       -0.0012484445  -0.0640610054   0.0163899430   0.0083484436  -0.0030977673
        0.0046568791  -0.0047331204   0.0011664578   0.0018297152   0.0000392504
       -0.0007669397  -0.0016566922  -0.0000107811  -0.0008172800   0.0001935405
        0.0004996369   0.0000880549  -0.0000494435  -0.0001880625   0.0000370415
        0.0000639574   0.0001479406  -0.0000005650  -0.0001384394   0.0000261762
       -0.0000066957   0.0000727954  -0.0001163849  -0.0000025898  -0.0001236072
        0.0002009962   0.0000111748  -0.0000265998  -0.0002237973   0.0000382686
       -0.0000463157   0.0000691127   0.0000220089   0.0000230435  -0.0000757336
       -0.0000008113  -0.0000083615   0.0000042861  -0.0000130320   0.0000070546
       -0.0000247391   0.0000002186  -0.0000416187  -0.0000219761  -0.0000136142
        0.0001450705  -0.0000364512   0.0000046689  -0.0001532859   0.0000356020
       -0.0000042162   0.0000149777  -0.0000652782  -0.0000193143  -0.0000088997
        0.0000134466  -0.0000011706   0.0000058725  -0.0000074832  -0.0000036016
       -0.0000021641   0.0000004640  -0.0000004075   0.0000013943  -0.0000134064
        0.0000013437   0.0000000594   0.0000188055  -0.0000057535   0.0000486848
        0.0000539991   0.0000223996  -0.0000139326  -0.0000078680  -0.0000010701
        0.0000097662   0.0000027562   0.0000027378  -0.0000024178   0.0000017112
       -0.0000029470   0.0000097004   0.0000096395  -0.0000018481  -0.0000053855
       -0.0000191048   0.0000061232  -0.0000248424   0.0000412752   0.0000126534
        0.0000159443   0.0000293930   0.0000006996   0.0000774637   0.0000211339
        0.0000453122  -0.0000568946   0.0000503235   0.0000225028   0.0004032673
       -0.0003554447  -0.0003032439  -0.0011600769  -0.0061477583   0.0021451348
       -0.0128536783  -0.0046505880   0.0021580666   0.0014093722  -0.0001442623
       -0.0018316288   0.0000491782  -0.0004878144  -0.0000867663   0.0007558029
        0.0003330401  -0.0015664043  -0.0001923742   0.0007670954   0.0002884524
        0.0008411068   0.0006283370  -0.0016632712  -0.0002927950   0.0013664950
       -0.0009693499   0.0009798397   0.0002773750  -0.0000408697  -0.0000169883
        0.0000379621  -0.0000161811   0.0000136549  -0.0000238017   0.0000118253
       -0.0000063731  -0.0000249016  -0.0000002095  -0.0000139858  -0.0000075441
        0.0000003417  -0.0000165376  -0.0000068764   0.0000144470   0.0000008723
       -0.0000004147  -0.0000070476  -0.0000035186   0.0000046506   0.0000034170
       -0.0000006359  -0.0000013502   0.0000004501  -0.0000032238   0.0000027003
        0.0000026589  -0.0000015347   0.0000049475   0.0000005159   0.0000021709
        0.0000036240  -0.0000008613   0.0000003462  -0.0000020496   0.0000049645
       -0.0000002606   0.0000031776  -0.0000010306  -0.0000055746   0.0000003222
       -0.0000039676  -0.0000044556  -0.0000036920  -0.0000005669   0.0000004996
       -0.0000019925   0.0000013009  -0.0000019243   0.0000017382  -0.0000047489
       -0.0000094233  -0.0000050762  -0.0000044685   0.0000062382  -0.0000066471
        0.0000063803  -0.0000102475   0.0000205048   0.0000016599  -0.0000008298
        0.0000317713  -0.0000324537  -0.0006765267  -0.0006540292   0.0000449885
       -0.0014785785  -0.0002503745  -0.0012690180
       -0.0095195699   0.0447215559   0.0134436355  -0.0634949320  -0.0139949490
       -0.0061428617   0.5815022630  -0.0425823105   0.1745087184  -0.2339726461
       -0.0365679848  -0.0858974236   0.0174708228  -0.0764596827  -0.0033989156
       -0.0540907465   0.0063661199  -0.0210888927   0.0250950423   0.0675921713
        0.0235526350  -0.2141056926   0.0728532622  -0.0672598260  -0.0032895530
       -0.0230459643  -0.0009973914  -0.0009060839  -0.0014211763  -0.0009955705
       -0.0004503812   0.0001920379  -0.0005096538   0.0004277356   0.0003740230
        0.0000171787  -0.0003407679  -0.0002867891   0.0001901102   0.0000095383
        0.0002476038   0.0000464914   0.0000383108  -0.0000591389   0.0000113601
        0.0000109899   0.0000470995  -0.0000144678  -0.0000322718   0.0000012586
       -0.0000022450   0.0000076925  -0.0000138252  -0.0000052790  -0.0000657448
        0.0000106630  -0.0000074774  -0.0000236790  -0.0000817868   0.0000058761
       -0.0000113013   0.0000189917  -0.0000048885  -0.0000131193  -0.0000153980
       -0.0000007616   0.0000115139  -0.0000009160   0.0000023052  -0.0000090430
       -0.0000134962  -0.0000052883  -0.0000165194  -0.0000147637  -0.0000092231
        0.0000749882  -0.0000178675   0.0000020699  -0.0000815709   0.0000328191
        0.0000001519   0.0000103829  -0.0000458458  -0.0000121824  -0.0000070054
        0.0000067531   0.0000013563   0.0000008189  -0.0000052836   0.0000001217
       -0.0000009430   0.0000015865   0.0000000649   0.0000010440  -0.0000117039
        0.0000028188   0.0000009036   0.0000142237  -0.0000026768   0.0000206703
        0.0000239040   0.0000117050  -0.0000077611  -0.0000043608   0.0000007716
        0.0000043605   0.0000021670   0.0000011777  -0.0000032269  -0.0000002157
       -0.0000008220   0.0000048645   0.0000032641   0.0000007304  -0.0000021797
       -0.0000089076   0.0000045070  -0.0000164901   0.0000220356   0.0000061491
        0.0000061764   0.0000081319  -0.0000017921   0.0000520998  -0.0000088330
        0.0000100675  -0.0000675229   0.0000396976  -0.0000037492   0.0002964139
       -0.0001076579  -0.0000487639  -0.0005288160  -0.0003046525  -0.0012819598
       -0.0036079288  -0.0024824371   0.0009560869  -0.0221479316  -0.0059902509
       -0.0119739967   0.0025517614   0.0003338015  -0.0029248924  -0.0004463038
        0.0001459079  -0.0005794821   0.0025471725  -0.0002316505  -0.0026435122
       -0.0216673499   0.0120012260  -0.0083955429  -0.0007367860  -0.0011400136
        0.0011292521  -0.0000460474  -0.0000149218   0.0000402551  -0.0000179321
        0.0000402687  -0.0000049764   0.0000005972  -0.0000087006   0.0000012459
       -0.0000066594  -0.0000099829   0.0000035040  -0.0000125723  -0.0000082913
       -0.0000000420  -0.0000065695  -0.0000036046   0.0000033318   0.0000030696
        0.0000005146  -0.0000011522  -0.0000059989   0.0000062297   0.0000045529
       -0.0000011903  -0.0000008389   0.0000004104  -0.0000029774   0.0000011228
        0.0000019823  -0.0000024386   0.0000041784   0.0000002888   0.0000007627
        0.0000039261  -0.0000027713  -0.0000005598  -0.0000011212   0.0000015887
       -0.0000007530   0.0000015594  -0.0000008142  -0.0000033687  -0.0000002357
       -0.0000015031  -0.0000018118  -0.0000019522   0.0000000703   0.0000003506
       -0.0000014939   0.0000006571  -0.0000004304   0.0000006249  -0.0000027330
       -0.0000047466  -0.0000020995  -0.0000022503   0.0000033995  -0.0000008745
        0.0000047429  -0.0000121052   0.0000168908  -0.0000045070   0.0000178020
       -0.0000162044  -0.0000089432  -0.0003169185  -0.0001417467  -0.0000370464
       -0.0000645995  -0.0000056902   0.0003083059
        0.0376715049  -0.0457258081  -0.0170145974  -0.0201148073  -0.1694958243
       -0.0170049348  -0.0425823105   0.5817092420   0.0619005898  -0.0898899562
       -0.1175227515  -0.0560026843  -0.0248221121  -0.0249515061  -0.0160929808
        0.0062655856   0.0047088101   0.0048506531   0.0169321246  -0.0481904284
       -0.0003952488   0.1246553642  -0.1612249969   0.0457397342  -0.0133949091
       -0.0201304714  -0.0070986317   0.0015743539  -0.0013967441  -0.0009286933
       -0.0005139992  -0.0006846656  -0.0005491325   0.0014509858   0.0008663404
       -0.0001076835  -0.0013733076  -0.0006230898   0.0001644404   0.0000303635
        0.0006746309   0.0001619143   0.0000697234  -0.0001705943   0.0000353948
        0.0000611049   0.0001441134  -0.0000322544  -0.0000962541   0.0000385408
       -0.0000018247   0.0000619596  -0.0000468924  -0.0000172014  -0.0002037458
        0.0000723004  -0.0000067737  -0.0000998049  -0.0002732792   0.0000300791
        0.0000127830   0.0000632318  -0.0000077589  -0.0000072462  -0.0000731710
        0.0000028494   0.0000428618  -0.0000058160   0.0000023210  -0.0000093910
       -0.0000499696  -0.0000140554  -0.0000658408  -0.0000431648  -0.0000272249
        0.0002337667  -0.0000616982  -0.0000044682  -0.0002398483   0.0001173419
        0.0000008356   0.0000351536  -0.0001523404  -0.0000328829  -0.0000242093
        0.0000291828   0.0000040794   0.0000090505  -0.0000192205  -0.0000011856
       -0.0000023705   0.0000052799   0.0000026109   0.0000044663  -0.0000291682
        0.0000085891   0.0000125919   0.0000405821  -0.0000110578   0.0000484170
        0.0000568101   0.0000374204  -0.0000150753  -0.0000091235   0.0000019401
        0.0000111510   0.0000023859   0.0000038376  -0.0000053937   0.0000029981
       -0.0000026433   0.0000129873   0.0000088255   0.0000007167  -0.0000053262
       -0.0000216955   0.0000116493  -0.0000340412   0.0000638528   0.0000200703
        0.0000154779   0.0000292415  -0.0000034719   0.0001214326  -0.0000360944
        0.0000367980  -0.0001668317   0.0001034778  -0.0000215850   0.0008182554
       -0.0003671121  -0.0001858427  -0.0007174876  -0.0004940808  -0.0001184063
       -0.0019237051   0.0000128133   0.0013952066   0.0123594721   0.0061874590
        0.0083190466  -0.0002544645  -0.0056846313  -0.0022568159   0.0000029230
        0.0008812859   0.0003776308   0.0004925645  -0.0058933348  -0.0021399686
       -0.0063150989   0.0067272028  -0.0037564919  -0.0001812617   0.0005819078
        0.0004470216   0.0000033526   0.0000591739   0.0000565006  -0.0000403800
        0.0000264714  -0.0000085719   0.0000138827  -0.0000209743   0.0000031116
       -0.0000162787  -0.0000384854   0.0000073410  -0.0000406698  -0.0000182957
       -0.0000026850  -0.0000198462  -0.0000154024   0.0000115096   0.0000129541
        0.0000009870  -0.0000043138  -0.0000140307   0.0000162598   0.0000129120
        0.0000007271   0.0000000217  -0.0000024300  -0.0000048827   0.0000046453
        0.0000037938  -0.0000040321   0.0000117259  -0.0000000440   0.0000045453
        0.0000081229  -0.0000077595  -0.0000027624  -0.0000032228   0.0000071338
       -0.0000004724   0.0000043866  -0.0000029642  -0.0000060714   0.0000004272
       -0.0000048669  -0.0000038753  -0.0000032256  -0.0000014023   0.0000002401
        0.0000001121  -0.0000011473  -0.0000038606   0.0000018605  -0.0000097016
       -0.0000112548  -0.0000039997  -0.0000053471   0.0000047071   0.0000032043
        0.0000166245  -0.0000227712   0.0000465890  -0.0000134350   0.0000430807
       -0.0000103548  -0.0000079992  -0.0002266840  -0.0000596875  -0.0000818747
        0.0003867566   0.0002394768   0.0003166871
        0.0096753728  -0.0211292317   0.0108327613   0.0009288788  -0.0165018494
       -0.0682590884   0.1745087184   0.0619005898   0.2125467869  -0.0956322806
       -0.0322604234  -0.0974289026   0.0008778635  -0.0379722788  -0.0024778999
       -0.0194971947   0.0043999469  -0.0148076968   0.0116512544   0.0224840147