45
 energy: -91.223860319022 gnorm: 0.000064209422 xtb: 6.7.1 (edcfbbe)
C            0.47582083133254        3.65321811161590       -1.29303477005178
C           -0.35681809183084        2.84412919701741       -0.37033720954123
S           -1.94668390093767        3.42186072549250       -0.02515015688715
C           -2.30131724201933        2.03773394230388        0.97964158222936
C           -3.46783556183312        1.83025332795702        1.69227647983579
C           -3.53917558888473        0.72732359147258        2.52363029836321
C           -2.43954533868709       -0.10918919080761        2.66942478520318
C           -1.28106133032963        0.10459036744277        1.94773198296976
C           -1.21269779586856        1.15669388034357        1.03820305764083
C           -0.10503606648712        1.57600574831387        0.19020306037797
C            0.98038858471833        0.74514513945862       -0.11402607854288
C            1.00883287510097       -0.70233617305647        0.05936415821662
C           -0.05430045094760       -1.57603779576958       -0.19665290888961
C           -0.25400825423908       -2.82959673428147        0.41178850060400
C            0.61199726139559       -3.56065695814472        1.36846117560594
S           -1.81494564907383       -3.48977686642623        0.08239242578082
C           -2.23316025742055       -2.14866256078357       -0.95625259718516
C           -3.41209424347706       -2.00768489976658       -1.66476136975626
C           -3.54123910159027       -0.92082925027082       -2.51017042689762
C           -2.48695450291898       -0.03001583499994       -2.66976735607519
C           -1.31457896217199       -0.17826020643763       -1.95420609249022
C           -1.18701668470010       -1.21949365879015       -1.03859179742782
C            2.39905305415055       -1.09606001076363        0.42993729785623
F            2.79090983110489       -2.30926348194822       -0.02134051720196
F            2.61349577423085       -1.13245682645244        1.78627471100306
C            3.29784470830505        0.01846037501767       -0.18483522022156
F            4.29219247918898        0.38676536400041        0.64238717581735
F            3.87957837833698       -0.43993425798017       -1.31248119142818
C            2.34461960538080        1.21065641694959       -0.50446480677952
F            2.75355416056999        2.32255108572188        0.15804528437491
F            2.47259924488211        1.52572239219404       -1.83155101358293
H           -0.07427942419251        4.53888087683019       -1.60261843022666
H            0.74638474309966        3.08435107012461       -2.18311474433825
H            1.40026983490750        3.97258902402502       -0.81255656872590
H           -4.29009784215513        2.52306941526761        1.60719553034352
H           -4.44071204274846        0.53677410575547        3.08502004238119
H           -2.48564998254172       -0.93420956680178        3.36370382030025
H           -0.42346864349420       -0.52641116225029        2.10947995671631
H            1.43364779629857       -4.05737188387944        0.85027119708745
H            0.03036205130036       -4.31958628943046        1.88722848915579
H            1.04712544769775       -2.88687117222778        2.10507701768658
H           -4.20030115583651       -2.73701440510877       -1.56395713504736
H           -4.45390754868185       -0.78223962908748       -3.06881347670404
H           -2.58039589067403        0.78635101052515       -3.36951085934764
H           -0.49228745501830        0.49716307661681       -2.12202494225340
