      -----------------------------------------------------------      
     |                   =====================                   |     
     |                           x T B                           |     
     |                   =====================                   |     
     |                         S. Grimme                         |     
     |          Mulliken Center for Theoretical Chemistry        |     
     |                    University of Bonn                     |     
      -----------------------------------------------------------      

   * xtb version 6.7.1 (edcfbbe) compiled by 'albert@albert-system' on 2024-07-22

   xtb is free software: you can redistribute it and/or modify it under
   the terms of the GNU Lesser General Public License as published by
   the Free Software Foundation, either version 3 of the License, or
   (at your option) any later version.
   
   xtb is distributed in the hope that it will be useful,
   but WITHOUT ANY WARRANTY; without even the implied warranty of
   MERCHANTABILITY or FITNESS FOR A PARTICULAR PURPOSE.  See the
   GNU Lesser General Public License for more details.
   
   Cite this work as:
   * C. Bannwarth, E. Caldeweyher, S. Ehlert, A. Hansen, P. Pracht,
     J. Seibert, S. Spicher, S. Grimme, WIREs Comput. Mol. Sci., 2020, 11,
     e01493. DOI: 10.1002/wcms.1493
   
   for GFN2-xTB:
   * C. Bannwarth, S. Ehlert and S. Grimme., J. Chem. Theory Comput., 2019,
     15, 1652-1671. DOI: 10.1021/acs.jctc.8b01176
   for GFN1-xTB:
   * S. Grimme, C. Bannwarth, P. Shushkov, J. Chem. Theory Comput., 2017,
     13, 1989-2009. DOI: 10.1021/acs.jctc.7b00118
   for GFN0-xTB:
   * P. Pracht, E. Caldeweyher, S. Ehlert, S. Grimme, ChemRxiv, 2019, preprint.
     DOI: 10.26434/chemrxiv.8326202.v1
   for GFN-FF:
   * S. Spicher and S. Grimme, Angew. Chem. Int. Ed., 2020, 59, 15665-15673.
     DOI: 10.1002/anie.202004239
   
   for ALPB and GBSA implicit solvation:
   * S. Ehlert, M. Stahn, S. Spicher, S. Grimme, J. Chem. Theory Comput.,
     2021, 17, 4250-4261. DOI: 10.1021/acs.jctc.1c00471
   
   for ddCOSMO and CPCM-X implicit solvation:
   * M. Stahn, S. Ehlert, S. Grimme, J. Phys. Chem. A,
     2023, XX, XXXX-XXXX. DOI: 10.1021/acs.jpca.3c04382
   
   for DFT-D4:
   * E. Caldeweyher, C. Bannwarth and S. Grimme, J. Chem. Phys., 2017,
     147, 034112. DOI: 10.1063/1.4993215
   * E. Caldeweyher, S. Ehlert, A. Hansen, H. Neugebauer, S. Spicher,
     C. Bannwarth and S. Grimme, J. Chem. Phys., 2019, 150, 154122.
     DOI: 10.1063/1.5090222
   * E. Caldeweyher, J.-M. Mewes, S. Ehlert and S. Grimme, Phys. Chem. Chem. Phys.
     2020, 22, 8499-8512. DOI: 10.1039/D0CP00502A
   
   for sTDA-xTB:
   * S. Grimme and C. Bannwarth, J. Chem. Phys., 2016, 145, 054103.
     DOI: 10.1063/1.4959605
   
   in the mass-spec context:
   * V. Asgeirsson, C. Bauer and S. Grimme, Chem. Sci., 2017, 8, 4879.
     DOI: 10.1039/c7sc00601b
   * J. Koopman and S. Grimme, ACS Omega 2019, 4, 12, 15120-15133.
     DOI: 10.1021/acsomega.9b02011
   
   for metadynamics refer to:
   * S. Grimme, J. Chem. Theory Comput., 2019, 155, 2847-2862
     DOI: 10.1021/acs.jctc.9b00143
   
   for SPH calculations refer to:
   * S. Spicher and S. Grimme, J. Chem. Theory Comput., 2021, 17, 1701-1714
     DOI: 10.1021/acs.jctc.0c01306
   
   for ONIOM refer to:
   * C. Plett, A. Katbashev, S. Ehlert, S. Grimme, M. Bursch,
     Phys. Chem. Chem. Phys., 2023, 25, 17860-17868. DOI: 10.1039/D3CP02178E
   
   for DIPRO refer to:
   * J. Kohn, N. Gildemeister, S. Grimme, D. Fazzi, A. Hansen,
     J. Chem. Phys., 2023, just accepted.
   
   for PTB refer to:
   * S. Grimme, M. Mueller, A. Hansen, J. Chem. Phys., 2023, 158, 124111.
     DOI: 10.1063/5.0137838
   
   with help from (in alphabetical order)
   P. Atkinson, C. Bannwarth, F. Bohle, G. Brandenburg, E. Caldeweyher
   M. Checinski, S. Dohm, S. Ehlert, S. Ehrlich, I. Gerasimov, C. Hölzer
   A. Katbashev, J. Kohn, J. Koopman, C. Lavigne, S. Lehtola, F. März, M. Müller,
   F. Musil, H. Neugebauer, J. Pisarek, C. Plett, P. Pracht, F. Pultar,
   J. Seibert, P. Shushkov, S. Spicher, M. Stahn, M. Steiner, T. Strunk,
   J. Stückrath, T. Rose, and J. Unsleber
   
 * started run on 2025/09/11 at 07:03:50.500     
   ID    Z sym.   atoms
    1    6 C      1-4, 6-23, 25-39, 41, 42, 44, 45, 47-52, 54-58
    2    7 N      5, 24, 40, 43
    3   16 S      46, 53
    4    1 H      59-92

           -------------------------------------------------
          |                Calculation Setup                |
           -------------------------------------------------

          program call               : xtb data2507/gas/pDTPA-DTPZ/pDTPA-DTPZ.xyz --gfn 2 --ohess vtight --parallel 40 --molden --ceasefiles --namespace data2507/gas/pDTPA-DTPZ/pDTPA-DTPZ_gas_S0_preOpt
          calculation namespace      : data2507/gas/pDTPA-DTPZ/pDTPA-DTPZ_gas_S0_preOpt
          coordinate file            : data2507/gas/pDTPA-DTPZ/pDTPA-DTPZ.xyz
          omp threads                :                    40


           -------------------------------------------------
          |                 G F N 2 - x T B                 |
           -------------------------------------------------

        Reference                      10.1021/acs.jctc.8b01176
      * Hamiltonian:
        H0-scaling (s, p, d)           1.850000    2.230000    2.230000
        zeta-weighting                 0.500000
      * Dispersion:
        s8                             2.700000
        a1                             0.520000
        a2                             5.000000
        s9                             5.000000
      * Repulsion:
        kExp                           1.500000    1.000000
        rExp                           1.000000
      * Coulomb:
        alpha                          2.000000
        third order                    shell-resolved
        anisotropic                    true
        a3                             3.000000
        a5                             4.000000
        cn-shift                       1.200000
        cn-exp                         4.000000
        max-rad                        5.000000


          ...................................................
          :                      SETUP                      :
          :.................................................:
          :  # basis functions                 278          :
          :  # atomic orbitals                 276          :
          :  # shells                          152          :
          :  # electrons                       274          :
          :  max. iterations                   250          :
          :  Hamiltonian                  GFN2-xTB          :
          :  restarted?                      false          :
          :  GBSA solvation                  false          :
          :  PC potential                    false          :
          :  electronic temp.          300.0000000     K    :
          :  accuracy                    1.0000000          :
          :  -> integral cutoff          0.2500000E+02      :
          :  -> integral neglect         0.1000000E-07      :
          :  -> SCF convergence          0.1000000E-05 Eh   :
          :  -> wf. convergence          0.1000000E-03 e    :
          :  Broyden damping             0.4000000          :
          :  net charge                          0          :
          :  unpaired electrons                  0          :
          ...................................................

 iter      E             dE          RMSdq      gap      omega  full diag
   1   -149.2562488 -0.149256E+03  0.433E+00    1.34       0.0  T
   2   -149.3332032 -0.769544E-01  0.261E+00    1.41       1.0  T
   3   -149.2554481  0.777551E-01  0.126E+00    0.84       1.0  T
   4   -149.3503389 -0.948909E-01  0.367E-01    1.07       1.0  T
   5   -149.3574133 -0.707440E-02  0.144E-01    0.98       1.0  T
   6   -149.3585011 -0.108778E-02  0.448E-02    0.99       1.0  T
   7   -149.3585671 -0.659855E-04  0.193E-02    1.00       1.0  T
   8   -149.3585744 -0.730203E-05  0.738E-03    1.00       1.4  T
   9   -149.3585760 -0.156804E-05  0.285E-03    1.01       3.7  T
  10   -149.3585761 -0.196772E-06  0.116E-03    1.00       9.0  T
  11   -149.3585762 -0.834431E-07  0.464E-04    1.00      22.5  T
  12   -149.3585762 -0.150615E-07  0.208E-04    1.00      50.2  T

   *** convergence criteria satisfied after 12 iterations ***

         #    Occupation            Energy/Eh            Energy/eV
      -------------------------------------------------------------
         1        2.0000           -0.7341581             -19.9775
       ...           ...                  ...                  ...
       131        2.0000           -0.3969930             -10.8027
       132        2.0000           -0.3880085             -10.5582
       133        2.0000           -0.3856666             -10.4945
       134        2.0000           -0.3756066             -10.2208
       135        2.0000           -0.3540495              -9.6342
       136        2.0000           -0.3469271              -9.4404
       137        2.0000           -0.3455307              -9.4024 (HOMO)
       138                         -0.3086205              -8.3980 (LUMO)
       139                         -0.2678759              -7.2893
       140                         -0.2445956              -6.6558
       141                         -0.2294989              -6.2450
       142                         -0.2281454              -6.2082
       ...                                ...                  ...
       276                          0.7288765              19.8337
      -------------------------------------------------------------
                  HL-Gap            0.0369102 Eh            1.0044 eV
             Fermi-level           -0.3269775 Eh           -8.8975 eV

 SCC (total)                   0 d,  0 h,  0 min,  0.220 sec
 SCC setup                      ...        0 min,  0.001 sec (  0.434%)
 Dispersion                     ...        0 min,  0.005 sec (  2.417%)
 classical contributions        ...        0 min,  0.001 sec (  0.320%)
 integral evaluation            ...        0 min,  0.019 sec (  8.766%)
 iterations                     ...        0 min,  0.178 sec ( 80.830%)
 molecular gradient             ...        0 min,  0.014 sec (  6.462%)
 printout                       ...        0 min,  0.002 sec (  0.729%)

         :::::::::::::::::::::::::::::::::::::::::::::::::::::
         ::                     SUMMARY                     ::
         :::::::::::::::::::::::::::::::::::::::::::::::::::::
         :: total energy            -146.878980687143 Eh    ::
         :: gradient norm              0.136197099610 Eh/a0 ::
         :: HOMO-LUMO gap              1.004377648558 eV    ::
         ::.................................................::
         :: SCC energy              -149.358829700724 Eh    ::
         :: -> isotropic ES            0.027591021886 Eh    ::
         :: -> anisotropic ES          0.015713937842 Eh    ::
         :: -> anisotropic XC          0.093758885857 Eh    ::
         :: -> dispersion             -0.133500722399 Eh    ::
         :: repulsion energy           2.479849013582 Eh    ::
         :: add. restraining           0.000000000000 Eh    ::
         :: total charge               0.000000001677 e     ::
         :::::::::::::::::::::::::::::::::::::::::::::::::::::

      ----------------------------------------------------------- 
     |                   =====================                   |
     |                        A N C O P T                        |
     |                   =====================                   |
     |               Approximate Normal Coordinate               |
     |                Rational Function Optimizer                |
      ----------------------------------------------------------- 

Optimization log is written to '/dev/null'
      ----------------------------------------------------------- 
     |                   =====================                   |
     |                        A N C O P T                        |
     |                   =====================                   |
     |               Approximate Normal Coordinate               |
     |                Rational Function Optimizer                |
      ----------------------------------------------------------- 

          ...................................................
          :                      SETUP                      :
          :.................................................:
          :   optimization level         verytight          :
          :   max. optcycles                  1840          :
          :   ANC micro-cycles                  20          :
          :   degrees of freedom               270          :
          :.................................................:
          :   RF solver                   davidson          :
          :   write xtbopt.log                true          :
          :   linear?                        false          :
          :   energy convergence         0.1000000E-06 Eh   :
          :   grad. convergence          0.2000000E-03 Eh/α :
          :   maxmium RF displ.          1.0000000          :
          :   Hlow (freq-cutoff)         0.1000000E-01      :
          :   Hmax (freq-cutoff)         5.0000000          :
          :   S6 in model hess.         20.0000000          :
          ...................................................

generating ANC from exact Hessian ...
Using Lindh-Hessian (1995)
 Shifting diagonal of input Hessian by   9.932968232826271E-003
 Lowest  eigenvalues of input Hessian
    0.000000    0.000000    0.000000    0.000000    0.000000    0.000000
    0.010000    0.010015    0.010029    0.010064    0.010098    0.010269
    0.010520    0.010694    0.010716    0.010980    0.011035    0.011095
 Highest eigenvalues
    2.002180    2.007788    2.021277    2.052973    2.160120    2.214172
 

........................................................................
.............................. CYCLE    1 ..............................
........................................................................

 iter      E             dE          RMSdq      gap      omega  full diag
   1   -149.3585762 -0.149359E+03  0.122E-04    1.00       0.0  T
   2   -149.3585762  0.907789E-10  0.102E-04    1.00     101.8  T
   3   -149.3585762 -0.794955E-09  0.513E-05    1.00     203.3  T
     SCC iter.                  ...        0 min,  0.041 sec
     gradient                   ...        0 min,  0.014 sec
 * total energy  :  -146.8789807 Eh     change       -0.1820951E-08 Eh
   gradient norm :     0.1361967 Eh/α   predicted     0.0000000E+00 (-100.00%)
   displ. norm   :     0.4233724 α      lambda       -0.2767400E-01
   maximum displ.:     0.1588529 α      in ANC's #55, #137, #60, ...

........................................................................
.............................. CYCLE    2 ..............................
........................................................................

 iter      E             dE          RMSdq      gap      omega  full diag
   1   -149.4671841 -0.149467E+03  0.173E-01    1.06       0.0  T
   2   -149.4674373 -0.253197E-03  0.116E-01    1.12       1.0  T
   3   -149.4673682  0.691354E-04  0.610E-02    1.09       1.0  T
   4   -149.4676022 -0.234048E-03  0.178E-02    1.11       1.0  T
   5   -149.4676180 -0.158117E-04  0.761E-03    1.11       1.4  T
   6   -149.4676211 -0.303838E-05  0.251E-03    1.11       4.2  T
   7   -149.4676213 -0.195059E-06  0.999E-04    1.11      10.4  T
   8   -149.4676213 -0.221299E-07  0.573E-04    1.11      18.2  T
     SCC iter.                  ...        0 min,  0.092 sec
     gradient                   ...        0 min,  0.014 sec
 * total energy  :  -146.8993046 Eh     change       -0.2032393E-01 Eh
   gradient norm :     0.0643358 Eh/α   predicted    -0.1635808E-01 ( -19.51%)
   displ. norm   :     0.4833351 α      lambda       -0.1247723E-01
   maximum displ.:     0.2078550 α      in ANC's #21, #55, #60, ...

........................................................................
.............................. CYCLE    3 ..............................
........................................................................

 iter      E             dE          RMSdq      gap      omega  full diag
   1   -149.5348920 -0.149535E+03  0.143E-01    1.13       0.0  T
   2   -149.5352120 -0.319977E-03  0.101E-01    1.19       1.0  T
   3   -149.5353178 -0.105821E-03  0.526E-02    1.16       1.0  T
   4   -149.5354023 -0.845121E-04  0.196E-02    1.18       1.0  T
   5   -149.5354274 -0.251583E-04  0.540E-03    1.18       1.9  T
   6   -149.5354294 -0.191921E-05  0.206E-03    1.18       5.1  T
   7   -149.5354295 -0.161488E-06  0.733E-04    1.18      14.2  T
   8   -149.5354295 -0.153819E-07  0.417E-04    1.18      25.0  T
     SCC iter.                  ...        0 min,  0.096 sec
     gradient                   ...        0 min,  0.014 sec
 * total energy  :  -146.9073160 Eh     change       -0.8011421E-02 Eh
   gradient norm :     0.0133993 Eh/α   predicted    -0.7697826E-02 (  -3.91%)
   displ. norm   :     0.4208043 α      lambda       -0.3299151E-02
   maximum displ.:     0.2564434 α      in ANC's #21, #28, #55, ...

........................................................................
.............................. CYCLE    4 ..............................
........................................................................

 iter      E             dE          RMSdq      gap      omega  full diag
   1   -149.5504154 -0.149550E+03  0.861E-02    1.15       0.0  T
   2   -149.5504854 -0.700169E-04  0.592E-02    1.19       1.0  T
   3   -149.5504716  0.137812E-04  0.309E-02    1.17       1.0  T
   4   -149.5505346 -0.629835E-04  0.826E-03    1.18       1.3  T
   5   -149.5505403 -0.569088E-05  0.225E-03    1.18       4.6  T
   6   -149.5505406 -0.322108E-06  0.100E-03    1.18      10.4  T
   7   -149.5505407 -0.360736E-07  0.362E-04    1.18      28.8  T
   8   -149.5505407 -0.471942E-08  0.224E-04    1.18      46.5  T
     SCC iter.                  ...        0 min,  0.092 sec
     gradient                   ...        0 min,  0.014 sec
 * total energy  :  -146.9097766 Eh     change       -0.2460591E-02 Eh
   gradient norm :     0.0126828 Eh/α   predicted    -0.1941691E-02 ( -21.09%)
   displ. norm   :     0.4947552 α      lambda       -0.2278565E-02
   maximum displ.:     0.3283265 α      in ANC's #21, #19, #18, ...

........................................................................
.............................. CYCLE    5 ..............................
........................................................................

 iter      E             dE          RMSdq      gap      omega  full diag
   1   -149.5557821 -0.149556E+03  0.994E-02    1.14       0.0  T
   2   -149.5558063 -0.241891E-04  0.612E-02    1.16       1.0  T
   3   -149.5557123  0.940344E-04  0.296E-02    1.15       1.0  T
   4   -149.5558241 -0.111871E-03  0.437E-03    1.16       2.4  T
   5   -149.5558258 -0.163177E-05  0.166E-03    1.16       6.3  T
   6   -149.5558259 -0.112545E-06  0.839E-04    1.16      12.4  T
   7   -149.5558259 -0.281399E-07  0.333E-04    1.16      31.3  T
     SCC iter.                  ...        0 min,  0.083 sec
     gradient                   ...        0 min,  0.014 sec
 * total energy  :  -146.9114477 Eh     change       -0.1671039E-02 Eh
   gradient norm :     0.0104365 Eh/α   predicted    -0.1418172E-02 ( -15.13%)
   displ. norm   :     0.4636240 α      lambda       -0.1285101E-02
   maximum displ.:     0.2986465 α      in ANC's #21, #19, #18, ...

........................................................................
.............................. CYCLE    6 ..............................
........................................................................

 iter      E             dE          RMSdq      gap      omega  full diag
   1   -149.5594363 -0.149559E+03  0.974E-02    1.13       0.0  T
   2   -149.5594422 -0.586699E-05  0.573E-02    1.14       1.0  T
   3   -149.5594153  0.268457E-04  0.154E-02    1.14       1.0  T
   4   -149.5594452 -0.299286E-04  0.240E-03    1.14       4.3  T
   5   -149.5594457 -0.421514E-06  0.112E-03    1.14       9.3  T
   6   -149.5594457 -0.479715E-07  0.573E-04    1.14      18.2  T
   7   -149.5594457 -0.120181E-07  0.241E-04    1.14      43.3  T
     SCC iter.                  ...        0 min,  0.081 sec
     gradient                   ...        0 min,  0.014 sec
 * total energy  :  -146.9123851 Eh     change       -0.9374826E-03 Eh
   gradient norm :     0.0072092 Eh/α   predicted    -0.7806991E-03 ( -16.72%)
   displ. norm   :     0.4093291 α      lambda       -0.7610460E-03
   maximum displ.:     0.2216763 α      in ANC's #21, #19, #18, ...

........................................................................
.............................. CYCLE    7 ..............................
........................................................................

 iter      E             dE          RMSdq      gap      omega  full diag
   1   -149.5634569 -0.149563E+03  0.909E-02    1.12       0.0  T
   2   -149.5634604 -0.351919E-05  0.531E-02    1.13       1.0  T
   3   -149.5634505  0.988642E-05  0.106E-02    1.13       1.0  T
   4   -149.5634619 -0.113290E-04  0.179E-03    1.13       5.8  T
   5   -149.5634621 -0.190724E-06  0.879E-04    1.13      11.9  T
   6   -149.5634621 -0.321129E-07  0.441E-04    1.13      23.6  T
     SCC iter.                  ...        0 min,  0.067 sec
     gradient                   ...        0 min,  0.015 sec
 * total energy  :  -146.9129410 Eh     change       -0.5558906E-03 Eh
   gradient norm :     0.0056333 Eh/α   predicted    -0.4442881E-03 ( -20.08%)
   displ. norm   :     0.3578515 α      lambda       -0.5016476E-03
   maximum displ.:     0.2033077 α      in ANC's #19, #18, #21, ...

........................................................................
.............................. CYCLE    8 ..............................
........................................................................

 iter      E             dE          RMSdq      gap      omega  full diag
   1   -149.5670246 -0.149567E+03  0.827E-02    1.12       0.0  T
   2   -149.5670275 -0.289402E-05  0.483E-02    1.12       1.0  T
   3   -149.5670184  0.910812E-05  0.103E-02    1.12       1.0  T
   4   -149.5670288 -0.104068E-04  0.173E-03    1.12       6.0  T
   5   -149.5670289 -0.168513E-06  0.913E-04    1.12      11.4  T
   6   -149.5670290 -0.330984E-07  0.413E-04    1.12      25.2  T
     SCC iter.                  ...        0 min,  0.070 sec
     gradient                   ...        0 min,  0.014 sec
 * total energy  :  -146.9133084 Eh     change       -0.3673999E-03 Eh
   gradient norm :     0.0046769 Eh/α   predicted    -0.2829538E-03 ( -22.98%)
   displ. norm   :     0.3042372 α      lambda       -0.3461590E-03
   maximum displ.:     0.1779294 α      in ANC's #19, #18, #15, ...

........................................................................
.............................. CYCLE    9 ..............................
........................................................................

 iter      E             dE          RMSdq      gap      omega  full diag
   1   -149.5690567 -0.149569E+03  0.701E-02    1.12       0.0  T
   2   -149.5690588 -0.211427E-05  0.410E-02    1.13       1.0  T
   3   -149.5690501  0.869618E-05  0.943E-03    1.12       1.1  T
   4   -149.5690599 -0.982326E-05  0.154E-03    1.12       6.8  T
   5   -149.5690601 -0.129245E-06  0.836E-04    1.12      12.5  T
   6   -149.5690601 -0.268533E-07  0.375E-04    1.12      27.8  T
     SCC iter.                  ...        0 min,  0.067 sec
     gradient                   ...        0 min,  0.014 sec
 * total energy  :  -146.9135695 Eh     change       -0.2610245E-03 Eh
   gradient norm :     0.0039068 Eh/α   predicted    -0.1891010E-03 ( -27.55%)
   displ. norm   :     0.3086872 α      lambda       -0.2803951E-03
   maximum displ.:     0.1676219 α      in ANC's #19, #13, #4, ...

........................................................................
.............................. CYCLE   10 ..............................
........................................................................

 iter      E             dE          RMSdq      gap      omega  full diag
   1   -149.5689752 -0.149569E+03  0.690E-02    1.13       0.0  T
   2   -149.5689775 -0.229823E-05  0.404E-02    1.13       1.0  T
   3   -149.5689665  0.110119E-04  0.997E-03    1.12       1.0  T
   4   -149.5689788 -0.123565E-04  0.150E-03    1.13       6.9  T
   5   -149.5689790 -0.143647E-06  0.778E-04    1.13      13.4  T
   6   -149.5689790 -0.224952E-07  0.387E-04    1.13      27.0  T
     SCC iter.                  ...        0 min,  0.069 sec
     gradient                   ...        0 min,  0.014 sec
 * total energy  :  -146.9137805 Eh     change       -0.2110578E-03 Eh
   gradient norm :     0.0037189 Eh/α   predicted    -0.1535571E-03 ( -27.24%)
   displ. norm   :     0.3129959 α      lambda       -0.2114086E-03
   maximum displ.:     0.1564976 α      in ANC's #19, #13, #4, ...

........................................................................
.............................. CYCLE   11 ..............................
........................................................................

 iter      E             dE          RMSdq      gap      omega  full diag
   1   -149.5675122 -0.149568E+03  0.690E-02    1.13       0.0  T
   2   -149.5675145 -0.233088E-05  0.405E-02    1.13       1.0  T
   3   -149.5675042  0.103322E-04  0.959E-03    1.13       1.1  T
   4   -149.5675158 -0.115895E-04  0.141E-03    1.13       7.4  T
   5   -149.5675159 -0.156689E-06  0.677E-04    1.13      15.4  T
   6   -149.5675160 -0.169640E-07  0.354E-04    1.13      29.5  T
     SCC iter.                  ...        0 min,  0.068 sec
     gradient                   ...        0 min,  0.014 sec
 * total energy  :  -146.9139368 Eh     change       -0.1562397E-03 Eh
   gradient norm :     0.0034336 Eh/α   predicted    -0.1160610E-03 ( -25.72%)
   displ. norm   :     0.2456495 α      lambda       -0.1383349E-03
   maximum displ.:     0.1175208 α      in ANC's #13, #4, #19, ...

........................................................................
.............................. CYCLE   12 ..............................
........................................................................

 iter      E             dE          RMSdq      gap      omega  full diag
   1   -149.5668304 -0.149567E+03  0.536E-02    1.13       0.0  T
   2   -149.5668314 -0.984309E-06  0.314E-02    1.13       1.0  T
   3   -149.5668289  0.244276E-05  0.525E-03    1.13       2.0  T
   4   -149.5668318 -0.284753E-05  0.849E-04    1.13      12.3  T
   5   -149.5668318 -0.390505E-07  0.433E-04    1.13      24.1  T
   6   -149.5668318 -0.550770E-08  0.218E-04    1.13      47.9  T
     SCC iter.                  ...        0 min,  0.069 sec
     gradient                   ...        0 min,  0.014 sec
 * total energy  :  -146.9140414 Eh     change       -0.1046355E-03 Eh
   gradient norm :     0.0026179 Eh/α   predicted    -0.7334688E-04 ( -29.90%)
   displ. norm   :     0.2049889 α      lambda       -0.1034549E-03
   maximum displ.:     0.1104198 α      in ANC's #4, #13, #21, ...

........................................................................
.............................. CYCLE   13 ..............................
........................................................................

 iter      E             dE          RMSdq      gap      omega  full diag
   1   -149.5665072 -0.149567E+03  0.446E-02    1.13       0.0  T
   2   -149.5665077 -0.559238E-06  0.261E-02    1.13       1.0  T
   3   -149.5665060  0.175946E-05  0.425E-03    1.13       2.5  T
   4   -149.5665080 -0.201813E-05  0.713E-04    1.13      14.6  T
   5   -149.5665080 -0.269829E-07  0.389E-04    1.13      26.8  T
   6   -149.5665080 -0.657454E-08  0.165E-04    1.13      63.3  T
     SCC iter.                  ...        0 min,  0.069 sec
     gradient                   ...        0 min,  0.014 sec
 * total energy  :  -146.9141204 Eh     change       -0.7897869E-04 Eh
   gradient norm :     0.0021069 Eh/α   predicted    -0.5390142E-04 ( -31.75%)
   displ. norm   :     0.1819870 α      lambda       -0.8064017E-04
   maximum displ.:     0.1064719 α      in ANC's #4, #13, #18, ...

........................................................................
.............................. CYCLE   14 ..............................
........................................................................

 iter      E             dE          RMSdq      gap      omega  full diag
   1   -149.5661173 -0.149566E+03  0.388E-02    1.13       0.0  T
   2   -149.5661178 -0.505948E-06  0.227E-02    1.13       1.0  T
   3   -149.5661155  0.236450E-05  0.449E-03    1.13       2.3  T
   4   -149.5661181 -0.264696E-05  0.749E-04    1.13      13.9  T
   5   -149.5661182 -0.309847E-07  0.373E-04    1.13      28.0  T
   6   -149.5661182 -0.624794E-08  0.162E-04    1.13      64.2  T
     SCC iter.                  ...        0 min,  0.069 sec
     gradient                   ...        0 min,  0.014 sec
 * total energy  :  -146.9141861 Eh     change       -0.6569464E-04 Eh
   gradient norm :     0.0022334 Eh/α   predicted    -0.4165621E-04 ( -36.59%)
   displ. norm   :     0.2014958 α      lambda       -0.8575043E-04
   maximum displ.:     0.1209131 α      in ANC's #4, #13, #18, ...

........................................................................
.............................. CYCLE   15 ..............................
........................................................................

 iter      E             dE          RMSdq      gap      omega  full diag
   1   -149.5658462 -0.149566E+03  0.416E-02    1.13       0.0  T
   2   -149.5658469 -0.606624E-06  0.243E-02    1.13       1.0  T
   3   -149.5658446  0.221319E-05  0.443E-03    1.13       2.4  T
   4   -149.5658471 -0.248546E-05  0.901E-04    1.13      11.6  T
   5   -149.5658472 -0.461385E-07  0.420E-04    1.13      24.8  T
   6   -149.5658472 -0.861448E-08  0.176E-04    1.13      59.1  T
     SCC iter.                  ...        0 min,  0.069 sec
     gradient                   ...        0 min,  0.014 sec
 * total energy  :  -146.9142588 Eh     change       -0.7269268E-04 Eh
   gradient norm :     0.0024226 Eh/α   predicted    -0.4461842E-04 ( -38.62%)
   displ. norm   :     0.2696193 α      lambda       -0.1067322E-03
   maximum displ.:     0.1625235 α      in ANC's #4, #13, #18, ...

........................................................................
.............................. CYCLE   16 ..............................
........................................................................

 iter      E             dE          RMSdq      gap      omega  full diag
   1   -149.5656545 -0.149566E+03  0.540E-02    1.13       0.0  T
   2   -149.5656554 -0.889347E-06  0.316E-02    1.12       1.0  T
   3   -149.5656537  0.169487E-05  0.440E-03    1.12       2.4  T
   4   -149.5656557 -0.198780E-05  0.110E-03    1.12       9.5  T
   5   -149.5656558 -0.512946E-07  0.514E-04    1.12      20.3  T
   6   -149.5656558 -0.149658E-07  0.208E-04    1.12      50.1  T
     SCC iter.                  ...        0 min,  0.071 sec
     gradient                   ...        0 min,  0.014 sec
 * total energy  :  -146.9143473 Eh     change       -0.8855301E-04 Eh
   gradient norm :     0.0024700 Eh/α   predicted    -0.5724871E-04 ( -35.35%)
   displ. norm   :     0.3231280 α      lambda       -0.1068486E-03
   maximum displ.:     0.1977296 α      in ANC's #4, #13, #18, ...

........................................................................
.............................. CYCLE   17 ..............................
........................................................................

 iter      E             dE          RMSdq      gap      omega  full diag
   1   -149.5657112 -0.149566E+03  0.631E-02    1.12       0.0  T
   2   -149.5657123 -0.106618E-05  0.368E-02    1.12       1.0  T
   3   -149.5657109  0.134402E-05  0.448E-03    1.12       2.3  T
   4   -149.5657126 -0.169924E-05  0.115E-03    1.12       9.0  T
   5   -149.5657126 -0.302956E-07  0.497E-04    1.12      21.0  T
   6   -149.5657127 -0.948191E-08  0.218E-04    1.12      47.8  T
     SCC iter.                  ...        0 min,  0.069 sec
     gradient                   ...        0 min,  0.014 sec
 * total energy  :  -146.9144320 Eh     change       -0.8465362E-04 Eh
   gradient norm :     0.0023750 Eh/α   predicted    -0.5900358E-04 ( -30.30%)
   displ. norm   :     0.2723323 α      lambda       -0.7286713E-04
   maximum displ.:     0.1727727 α      in ANC's #4, #13, #1, ...

........................................................................
.............................. CYCLE   18 ..............................
........................................................................

 iter      E             dE          RMSdq      gap      omega  full diag
   1   -149.5663600 -0.149566E+03  0.509E-02    1.12       0.0  T
   2   -149.5663607 -0.671763E-06  0.297E-02    1.12       1.0  T
   3   -149.5663594  0.121850E-05  0.397E-03    1.12       2.6  T
   4   -149.5663609 -0.147692E-05  0.952E-04    1.12      11.0  T
   5   -149.5663609 -0.189149E-07  0.455E-04    1.12      22.9  T
   6   -149.5663609 -0.118596E-07  0.184E-04    1.12      56.7  T
     SCC iter.                  ...        0 min,  0.081 sec
     gradient                   ...        0 min,  0.014 sec
 * total energy  :  -146.9144901 Eh     change       -0.5815646E-04 Eh
   gradient norm :     0.0020159 Eh/α   predicted    -0.3913639E-04 ( -32.71%)
   displ. norm   :     0.2021418 α      lambda       -0.4925415E-04
   maximum displ.:     0.1342302 α      in ANC's #4, #13, #1, ...

........................................................................
.............................. CYCLE   19 ..............................
........................................................................

 iter      E             dE          RMSdq      gap      omega  full diag
   1   -149.5675090 -0.149568E+03  0.354E-02    1.12       0.0  T
   2   -149.5675093 -0.349987E-06  0.207E-02    1.12       1.0  T
   3   -149.5675083  0.107494E-05  0.335E-03    1.12       3.1  T
   4   -149.5675095 -0.124243E-05  0.728E-04    1.12      14.3  T
   5   -149.5675095 -0.146697E-07  0.369E-04    1.12      28.2  T
   6   -149.5675095 -0.831082E-08  0.141E-04    1.12      74.1  T
     SCC iter.                  ...        0 min,  0.070 sec
     gradient                   ...        0 min,  0.014 sec
 * total energy  :  -146.9145305 Eh     change       -0.4034048E-04 Eh
   gradient norm :     0.0014654 Eh/α   predicted    -0.2563552E-04 ( -36.45%)
   displ. norm   :     0.2382761 α      lambda       -0.3715082E-04
   maximum displ.:     0.1638676 α      in ANC's #4, #1, #13, ...

........................................................................
.............................. CYCLE   20 ..............................
........................................................................

 iter      E             dE          RMSdq      gap      omega  full diag
   1   -149.5688115 -0.149569E+03  0.392E-02    1.12       0.0  T
   2   -149.5688120 -0.462751E-06  0.229E-02    1.12       1.0  T
   3   -149.5688103  0.168168E-05  0.402E-03    1.12       2.6  T
   4   -149.5688122 -0.191613E-05  0.881E-04    1.12      11.8  T
   5   -149.5688122 -0.305949E-07  0.430E-04    1.12      24.2  T
   6   -149.5688123 -0.876645E-08  0.178E-04    1.12      58.6  T
     SCC iter.                  ...        0 min,  0.072 sec
     gradient                   ...        0 min,  0.014 sec
 * total energy  :  -146.9145731 Eh     change       -0.4266903E-04 Eh
   gradient norm :     0.0012437 Eh/α   predicted    -0.1904553E-04 ( -55.36%)
   displ. norm   :     0.1541329 α      lambda       -0.2408273E-04
   maximum displ.:     0.1089441 α      in ANC's #4, #1, #5, ...
 * RMSD in coord.:     0.4448457 α      energy gain  -0.3559245E-01 Eh

generating ANC from exact Hessian ...
Using Lindh-Hessian (1995)
 Shifting diagonal of input Hessian by   9.945936325860156E-003
 Lowest  eigenvalues of input Hessian
    0.000000    0.000000    0.000000    0.000000    0.000000    0.000000
    0.010000    0.010036    0.010042    0.010086    0.010136    0.010312
    0.010557    0.010899    0.010908    0.011137    0.011300    0.011397
 Highest eigenvalues
    2.126691    2.159983    2.164195    2.167383    2.177667    2.249571
 

........................................................................
.............................. CYCLE   21 ..............................
........................................................................

 iter      E             dE          RMSdq      gap      omega  full diag
   1   -149.5689642 -0.149569E+03  0.231E-02    1.12       0.0  T
   2   -149.5689643 -0.139214E-06  0.135E-02    1.12       1.0  T
   3   -149.5689641  0.278634E-06  0.182E-03    1.12       5.7  T
   4   -149.5689644 -0.329860E-06  0.526E-04    1.12      19.8  T
   5   -149.5689644 -0.113743E-07  0.232E-04    1.12      44.9  T
     SCC iter.                  ...        0 min,  0.059 sec
     gradient                   ...        0 min,  0.014 sec
 * total energy  :  -146.9146052 Eh     change       -0.3209599E-04 Eh
   gradient norm :     0.0012860 Eh/α   predicted     0.0000000E+00 (-100.00%)
   displ. norm   :     0.0499872 α      lambda       -0.1431420E-04
   maximum displ.:     0.0317817 α      in ANC's #4, #14, #18, ...

........................................................................
.............................. CYCLE   22 ..............................
........................................................................

 iter      E             dE          RMSdq      gap      omega  full diag
   1   -149.5682957 -0.149568E+03  0.813E-03    1.12       0.0  T
   2   -149.5682958 -0.397392E-07  0.477E-03    1.12       2.2  T
   3   -149.5682956  0.217451E-06  0.140E-03    1.12       7.4  T
   4   -149.5682958 -0.244874E-06  0.218E-04    1.12      47.8  T
   5   -149.5682958 -0.271689E-08  0.115E-04    1.12      90.7  T
     SCC iter.                  ...        0 min,  0.058 sec
     gradient                   ...        0 min,  0.014 sec
 * total energy  :  -146.9146253 Eh     change       -0.2007818E-04 Eh
   gradient norm :     0.0005871 Eh/α   predicted    -0.7540987E-05 ( -62.44%)
   displ. norm   :     0.1739508 α      lambda       -0.4067342E-04
   maximum displ.:     0.1023102 α      in ANC's #4, #14, #1, ...

........................................................................
.............................. CYCLE   23 ..............................
........................................................................

 iter      E             dE          RMSdq      gap      omega  full diag
   1   -149.5671035 -0.149567E+03  0.272E-02    1.12       0.0  T
   2   -149.5671039 -0.346692E-06  0.159E-02    1.12       1.0  T
   3   -149.5671031  0.759910E-06  0.316E-03    1.12       3.3  T
   4   -149.5671040 -0.880875E-06  0.601E-04    1.12      17.4  T
   5   -149.5671040 -0.147021E-07  0.335E-04    1.12      31.1  T
     SCC iter.                  ...        0 min,  0.058 sec
     gradient                   ...        0 min,  0.014 sec
 * total energy  :  -146.9146717 Eh     change       -0.4639121E-04 Eh
   gradient norm :     0.0011962 Eh/α   predicted    -0.2061251E-04 ( -55.57%)
   displ. norm   :     0.2026479 α      lambda       -0.3168755E-04
   maximum displ.:     0.1237182 α      in ANC's #4, #14, #1, ...

........................................................................
.............................. CYCLE   24 ..............................
........................................................................

 iter      E             dE          RMSdq      gap      omega  full diag
   1   -149.5661918 -0.149566E+03  0.291E-02    1.12       0.0  T
   2   -149.5661923 -0.446682E-06  0.170E-02    1.12       1.0  T
   3   -149.5661916  0.684903E-06  0.331E-03    1.12       3.1  T
   4   -149.5661924 -0.818290E-06  0.524E-04    1.12      19.9  T
   5   -149.5661924 -0.846981E-08  0.287E-04    1.12      36.4  T
     SCC iter.                  ...        0 min,  0.056 sec
     gradient                   ...        0 min,  0.014 sec
 * total energy  :  -146.9147100 Eh     change       -0.3828973E-04 Eh
   gradient norm :     0.0017817 Eh/α   predicted    -0.1614330E-04 ( -57.84%)
   displ. norm   :     0.2096292 α      lambda       -0.3086684E-04
   maximum displ.:     0.1305104 α      in ANC's #4, #14, #1, ...

........................................................................
.............................. CYCLE   25 ..............................
........................................................................

 iter      E             dE          RMSdq      gap      omega  full diag
   1   -149.5658832 -0.149566E+03  0.279E-02    1.12       0.0  T
   2   -149.5658837 -0.491040E-06  0.163E-02    1.12       1.0  T
   3   -149.5658829  0.778688E-06  0.349E-03    1.12       3.0  T
   4   -149.5658839 -0.921398E-06  0.494E-04    1.12      21.1  T
   5   -149.5658839 -0.103842E-07  0.267E-04    1.12      39.1  T
     SCC iter.                  ...        0 min,  0.060 sec
     gradient                   ...        0 min,  0.014 sec
 * total energy  :  -146.9147508 Eh     change       -0.4085431E-04 Eh
   gradient norm :     0.0016428 Eh/α   predicted    -0.1574764E-04 ( -61.45%)
   displ. norm   :     0.2599197 α      lambda       -0.4131544E-04
   maximum displ.:     0.1639977 α      in ANC's #4, #14, #1, ...

........................................................................
.............................. CYCLE   26 ..............................
........................................................................

 iter      E             dE          RMSdq      gap      omega  full diag
   1   -149.5661491 -0.149566E+03  0.323E-02    1.12       0.0  T
   2   -149.5661498 -0.733342E-06  0.189E-02    1.12       1.0  T
   3   -149.5661484  0.142363E-05  0.449E-03    1.12       2.3  T
   4   -149.5661500 -0.165429E-05  0.633E-04    1.12      16.5  T
   5   -149.5661501 -0.236727E-07  0.350E-04    1.12      29.8  T
   6   -149.5661501 -0.668683E-08  0.173E-04    1.12      60.2  T
     SCC iter.                  ...        0 min,  0.068 sec
     gradient                   ...        0 min,  0.014 sec
 * total energy  :  -146.9148044 Eh     change       -0.5355378E-04 Eh
   gradient norm :     0.0009305 Eh/α   predicted    -0.2127926E-04 ( -60.27%)
   displ. norm   :     0.3042730 α      lambda       -0.4375785E-04
   maximum displ.:     0.1963036 α      in ANC's #4, #1, #14, ...

........................................................................
.............................. CYCLE   27 ..............................
........................................................................

 iter      E             dE          RMSdq      gap      omega  full diag
   1   -149.5666292 -0.149567E+03  0.347E-02    1.12       0.0  T
   2   -149.5666302 -0.937334E-06  0.203E-02    1.12       1.0  T
   3   -149.5666282  0.195747E-05  0.518E-03    1.12       2.0  T
   4   -149.5666305 -0.225827E-05  0.795E-04    1.13      13.1  T
   5   -149.5666305 -0.388991E-07  0.457E-04    1.12      22.8  T
   6   -149.5666305 -0.128316E-07  0.201E-04    1.12      51.9  T
     SCC iter.                  ...        0 min,  0.069 sec
     gradient                   ...        0 min,  0.014 sec
 * total energy  :  -146.9148582 Eh     change       -0.5377067E-04 Eh
   gradient norm :     0.0005953 Eh/α   predicted    -0.2277955E-04 ( -57.64%)
   displ. norm   :     0.2638043 α      lambda       -0.3166795E-04
   maximum displ.:     0.1753224 α      in ANC's #4, #1, #14, ...

........................................................................
.............................. CYCLE   28 ..............................
........................................................................

 iter      E             dE          RMSdq      gap      omega  full diag
   1   -149.5673670 -0.149567E+03  0.273E-02    1.12       0.0  T
   2   -149.5673675 -0.551415E-06  0.159E-02    1.13       1.0  T
   3   -149.5673664  0.118848E-05  0.406E-03    1.13       2.6  T
   4   -149.5673677 -0.137406E-05  0.605E-04    1.13      17.2  T
   5   -149.5673678 -0.226704E-07  0.356E-04    1.13      29.3  T
   6   -149.5673678 -0.777197E-08  0.156E-04    1.13      66.7  T
     SCC iter.                  ...        0 min,  0.067 sec
     gradient                   ...        0 min,  0.014 sec
 * total energy  :  -146.9148979 Eh     change       -0.3973839E-04 Eh
   gradient norm :     0.0008881 Eh/α   predicted    -0.1632476E-04 ( -58.92%)
   displ. norm   :     0.2042285 α      lambda       -0.2411210E-04
   maximum displ.:     0.1393685 α      in ANC's #4, #1, #14, ...

........................................................................
.............................. CYCLE   29 ..............................
........................................................................

 iter      E             dE          RMSdq      gap      omega  full diag
   1   -149.5680390 -0.149568E+03  0.196E-02    1.13       0.0  T
   2   -149.5680393 -0.280587E-06  0.115E-02    1.13       1.0  T
   3   -149.5680387  0.570733E-06  0.281E-03    1.13       3.7  T
   4   -149.5680394 -0.661796E-06  0.475E-04    1.13      22.0  T
   5   -149.5680394 -0.124541E-07  0.284E-04    1.13      36.7  T
     SCC iter.                  ...        0 min,  0.059 sec
     gradient                   ...        0 min,  0.016 sec
 * total energy  :  -146.9149302 Eh     change       -0.3229897E-04 Eh
   gradient norm :     0.0009469 Eh/α   predicted    -0.1227967E-04 ( -61.98%)
   displ. norm   :     0.1943707 α      lambda       -0.2535089E-04
   maximum displ.:     0.1339032 α      in ANC's #4, #1, #2, ...

........................................................................
.............................. CYCLE   30 ..............................
........................................................................

 iter      E             dE          RMSdq      gap      omega  full diag
   1   -149.5684528 -0.149568E+03  0.200E-02    1.13       0.0  T
   2   -149.5684530 -0.193753E-06  0.117E-02    1.13       1.0  T
   3   -149.5684526  0.436833E-06  0.237E-03    1.13       4.4  T
   4   -149.5684531 -0.508639E-06  0.386E-04    1.13      27.0  T
   5   -149.5684531 -0.831676E-08  0.231E-04    1.13      45.2  T
     SCC iter.                  ...        0 min,  0.058 sec
     gradient                   ...        0 min,  0.014 sec
 * total energy  :  -146.9149651 Eh     change       -0.3492840E-04 Eh
   gradient norm :     0.0007880 Eh/α   predicted    -0.1289223E-04 ( -63.09%)
   displ. norm   :     0.2335183 α      lambda       -0.3176776E-04
   maximum displ.:     0.1600716 α      in ANC's #4, #1, #2, ...

........................................................................
.............................. CYCLE   31 ..............................
........................................................................

 iter      E             dE          RMSdq      gap      omega  full diag
   1   -149.5685648 -0.149569E+03  0.268E-02    1.13       0.0  T
   2   -149.5685651 -0.253364E-06  0.156E-02    1.13       1.0  T
   3   -149.5685645  0.594895E-06  0.262E-03    1.13       4.0  T
   4   -149.5685652 -0.694067E-06  0.521E-04    1.13      20.0  T
   5   -149.5685652 -0.126430E-07  0.301E-04    1.13      34.7  T
     SCC iter.                  ...        0 min,  0.059 sec
     gradient                   ...        0 min,  0.014 sec
 * total energy  :  -146.9150080 Eh     change       -0.4287828E-04 Eh
   gradient norm :     0.0005516 Eh/α   predicted    -0.1626968E-04 ( -62.06%)
   displ. norm   :     0.2876153 α      lambda       -0.3677880E-04
   maximum displ.:     0.1962689 α      in ANC's #4, #1, #2, ...

........................................................................
.............................. CYCLE   32 ..............................
........................................................................

 iter      E             dE          RMSdq      gap      omega  full diag
   1   -149.5683979 -0.149568E+03  0.349E-02    1.13       0.0  T
   2   -149.5683982 -0.343767E-06  0.204E-02    1.12       1.0  T
   3   -149.5683972  0.951461E-06  0.313E-03    1.13       3.3  T
   4   -149.5683983 -0.110668E-05  0.605E-04    1.13      17.2  T
   5   -149.5683984 -0.174472E-07  0.349E-04    1.13      29.9  T
   6   -149.5683984 -0.553831E-08  0.166E-04    1.13      62.8  T
     SCC iter.                  ...        0 min,  0.068 sec
     gradient                   ...        0 min,  0.014 sec
 * total energy  :  -146.9150568 Eh     change       -0.4878001E-04 Eh
   gradient norm :     0.0005584 Eh/α   predicted    -0.1906664E-04 ( -60.91%)
   displ. norm   :     0.3254481 α      lambda       -0.3787806E-04
   maximum displ.:     0.2213342 α      in ANC's #4, #1, #2, ...

........................................................................
.............................. CYCLE   33 ..............................
........................................................................

 iter      E             dE          RMSdq      gap      omega  full diag
   1   -149.5680632 -0.149568E+03  0.401E-02    1.13       0.0  T
   2   -149.5680636 -0.356759E-06  0.235E-02    1.12       1.0  T
   3   -149.5680627  0.901919E-06  0.305E-03    1.13       3.4  T
   4   -149.5680637 -0.106945E-05  0.724E-04    1.13      14.4  T
   5   -149.5680637 -0.147357E-07  0.434E-04    1.13      24.0  T
   6   -149.5680637 -0.114801E-07  0.162E-04    1.13      64.5  T
     SCC iter.                  ...        0 min,  0.069 sec
     gradient                   ...        0 min,  0.013 sec
 * total energy  :  -146.9151074 Eh     change       -0.5061019E-04 Eh
   gradient norm :     0.0007836 Eh/α   predicted    -0.1983428E-04 ( -60.81%)
   displ. norm   :     0.3637814 α      lambda       -0.4045817E-04
   maximum displ.:     0.2469070 α      in ANC's #4, #1, #2, ...

........................................................................
.............................. CYCLE   34 ..............................
........................................................................

 iter      E             dE          RMSdq      gap      omega  full diag
   1   -149.5676889 -0.149568E+03  0.450E-02    1.12       0.0  T
   2   -149.5676893 -0.359049E-06  0.263E-02    1.12       1.0  T
   3   -149.5676885  0.750886E-06  0.287E-03    1.13       3.6  T
   4   -149.5676894 -0.930759E-06  0.729E-04    1.13      14.3  T
   5   -149.5676895 -0.548280E-08  0.461E-04    1.13      22.6  T
     SCC iter.                  ...        0 min,  0.059 sec
     gradient                   ...        0 min,  0.014 sec
 * total energy  :  -146.9151622 Eh     change       -0.5481277E-04 Eh
   gradient norm :     0.0009474 Eh/α   predicted    -0.2141996E-04 ( -60.92%)
   displ. norm   :     0.4463973 α      lambda       -0.4913516E-04
   maximum displ.:     0.3019172 α      in ANC's #4, #1, #2, ...

........................................................................
.............................. CYCLE   35 ..............................
........................................................................

 iter      E             dE          RMSdq      gap      omega  full diag
   1   -149.5671587 -0.149567E+03  0.552E-02    1.12       0.0  T
   2   -149.5671592 -0.514883E-06  0.323E-02    1.12       1.0  T
   3   -149.5671583  0.911485E-06  0.331E-03    1.12       3.2  T
   4   -149.5671595 -0.118278E-05  0.906E-04    1.12      11.5  T
   5   -149.5671595  0.642891E-08  0.531E-04    1.12      19.6  T
   6   -149.5671595 -0.261871E-07  0.147E-04    1.12      71.0  T
     SCC iter.                  ...        0 min,  0.073 sec
     gradient                   ...        0 min,  0.014 sec
 * total energy  :  -146.9152284 Eh     change       -0.6622032E-04 Eh
   gradient norm :     0.0010654 Eh/α   predicted    -0.2674624E-04 ( -59.61%)
   displ. norm   :     0.5948685 α      lambda       -0.6290703E-04
   maximum displ.:     0.4016352 α      in ANC's #4, #1, #2, ...

........................................................................
.............................. CYCLE   36 ..............................
........................................................................

 iter      E             dE          RMSdq      gap      omega  full diag
   1   -149.5663487 -0.149566E+03  0.732E-02    1.12       0.0  T
   2   -149.5663496 -0.869666E-06  0.428E-02    1.12       1.0  T
   3   -149.5663479  0.164056E-05  0.434E-03    1.12       2.4  T
   4   -149.5663500 -0.209485E-05  0.123E-03    1.12       8.5  T
   5   -149.5663500 -0.350647E-08  0.695E-04    1.12      15.0  T
   6   -149.5663501 -0.398302E-07  0.205E-04    1.12      50.9  T
     SCC iter.                  ...        0 min,  0.071 sec
     gradient                   ...        0 min,  0.014 sec
 * total energy  :  -146.9153095 Eh     change       -0.8101940E-04 Eh
   gradient norm :     0.0011968 Eh/α   predicted    -0.3640052E-04 ( -55.07%)
   displ. norm   :     0.7327820 α      lambda       -0.6838243E-04
   maximum displ.:     0.4952656 α      in ANC's #4, #1, #2, ...

........................................................................
.............................. CYCLE   37 ..............................
........................................................................

 iter      E             dE          RMSdq      gap      omega  full diag
   1   -149.5654672 -0.149565E+03  0.885E-02    1.12       0.0  T
   2   -149.5654686 -0.139649E-05  0.517E-02    1.12       1.0  T
   3   -149.5654659  0.263066E-05  0.550E-03    1.12       1.9  T
   4   -149.5654693 -0.332624E-05  0.162E-03    1.12       6.5  T
   5   -149.5654693 -0.205992E-07  0.873E-04    1.12      11.9  T
   6   -149.5654693 -0.627596E-07  0.270E-04    1.12      38.6  T
     SCC iter.                  ...        0 min,  0.075 sec
     gradient                   ...        0 min,  0.014 sec
 * total energy  :  -146.9153902 Eh     change       -0.8071864E-04 Eh
   gradient norm :     0.0014383 Eh/α   predicted    -0.4235696E-04 ( -47.53%)
   displ. norm   :     0.7207211 α      lambda       -0.5478272E-04
   maximum displ.:     0.4889165 α      in ANC's #4, #1, #2, ...

........................................................................
.............................. CYCLE   38 ..............................
........................................................................

 iter      E             dE          RMSdq      gap      omega  full diag
   1   -149.5655223 -0.149566E+03  0.841E-02    1.12       0.0  T
   2   -149.5655237 -0.137356E-05  0.491E-02    1.12       1.0  T
   3   -149.5655201  0.359675E-05  0.602E-03    1.12       1.7  T
   4   -149.5655244 -0.430132E-05  0.161E-03    1.12       6.5  T
   5   -149.5655245 -0.558535E-07  0.829E-04    1.12      12.6  T
   6   -149.5655245 -0.429354E-07  0.308E-04    1.12      33.9  T
     SCC iter.                  ...        0 min,  0.069 sec
     gradient                   ...        0 min,  0.014 sec
 * total energy  :  -146.9154495 Eh     change       -0.5928458E-04 Eh
   gradient norm :     0.0013352 Eh/α   predicted    -0.3371575E-04 ( -43.13%)
   displ. norm   :     0.5317907 α      lambda       -0.3502527E-04
   maximum displ.:     0.3605455 α      in ANC's #4, #1, #2, ...

........................................................................
.............................. CYCLE   39 ..............................
........................................................................

 iter      E             dE          RMSdq      gap      omega  full diag
   1   -149.5672007 -0.149567E+03  0.580E-02    1.12       0.0  T
   2   -149.5672015 -0.834342E-06  0.339E-02    1.12       1.0  T
   3   -149.5671990  0.252853E-05  0.491E-03    1.12       2.1  T
   4   -149.5672019 -0.293904E-05  0.127E-03    1.12       8.2  T
   5   -149.5672020 -0.537912E-07  0.623E-04    1.12      16.7  T
   6   -149.5672020 -0.209662E-07  0.250E-04    1.12      41.7  T
     SCC iter.                  ...        0 min,  0.074 sec
     gradient                   ...        0 min,  0.013 sec
 * total energy  :  -146.9154867 Eh     change       -0.3724132E-04 Eh
   gradient norm :     0.0010208 Eh/α   predicted    -0.1971498E-04 ( -47.06%)
   displ. norm   :     0.5372770 α      lambda       -0.2700336E-04
   maximum displ.:     0.3619625 α      in ANC's #4, #1, #2, ...

........................................................................
.............................. CYCLE   40 ..............................
........................................................................

 iter      E             dE          RMSdq      gap      omega  full diag
   1   -149.5669721 -0.149567E+03  0.542E-02    1.12       0.0  T
   2   -149.5669729 -0.774480E-06  0.316E-02    1.12       1.0  T
   3   -149.5669710  0.194473E-05  0.450E-03    1.12       2.3  T
   4   -149.5669733 -0.227970E-05  0.123E-03    1.12       8.5  T
   5   -149.5669733 -0.534318E-07  0.623E-04    1.12      16.7  T
   6   -149.5669733 -0.205204E-07  0.249E-04    1.12      41.9  T
     SCC iter.                  ...        0 min,  0.070 sec
     gradient                   ...        0 min,  0.014 sec
 * total energy  :  -146.9155147 Eh     change       -0.2803534E-04 Eh
   gradient norm :     0.0012073 Eh/α   predicted    -0.1523509E-04 ( -45.66%)
   displ. norm   :     0.4131136 α      lambda       -0.2880702E-04
   maximum displ.:     0.2655205 α      in ANC's #4, #1, #2, ...

........................................................................
.............................. CYCLE   41 ..............................
........................................................................

 iter      E             dE          RMSdq      gap      omega  full diag
   1   -149.5699397 -0.149570E+03  0.352E-02    1.12       0.0  T
   2   -149.5699403 -0.620292E-06  0.205E-02    1.12       1.0  T
   3   -149.5699389  0.143830E-05  0.416E-03    1.12       2.5  T
   4   -149.5699405 -0.166309E-05  0.967E-04    1.12      10.8  T
   5   -149.5699406 -0.375494E-07  0.534E-04    1.12      19.5  T
   6   -149.5699406 -0.155685E-07  0.207E-04    1.12      50.4  T
     SCC iter.                  ...        0 min,  0.073 sec
     gradient                   ...        0 min,  0.014 sec
 * total energy  :  -146.9155414 Eh     change       -0.2664161E-04 Eh
   gradient norm :     0.0013927 Eh/α   predicted    -0.1549927E-04 ( -41.82%)
   displ. norm   :     0.5781842 α      lambda       -0.2483540E-04
   maximum displ.:     0.3801823 α      in ANC's #4, #1, #2, ...

........................................................................
.............................. CYCLE   42 ..............................
........................................................................

 iter      E             dE          RMSdq      gap      omega  full diag
   1   -149.5662487 -0.149566E+03  0.509E-02    1.12       0.0  T
   2   -149.5662496 -0.958679E-06  0.297E-02    1.12       1.0  T
   3   -149.5662479  0.170516E-05  0.512E-03    1.12       2.0  T
   4   -149.5662500 -0.208613E-05  0.116E-03    1.12       9.0  T
   5   -149.5662500 -0.106715E-07  0.749E-04    1.12      13.9  T
   6   -149.5662501 -0.386156E-07  0.244E-04    1.12      42.7  T
     SCC iter.                  ...        0 min,  0.071 sec
     gradient                   ...        0 min,  0.014 sec
 * total energy  :  -146.9155578 Eh     change       -0.1638691E-04 Eh
   gradient norm :     0.0016968 Eh/α   predicted    -0.1426320E-04 ( -12.96%)
   displ. norm   :     0.1142015 α      lambda       -0.2116223E-04
   maximum displ.:     0.0462768 α      in ANC's #9, #14, #13, ...
 * RMSD in coord.:     0.7306368 α      energy gain  -0.9846290E-03 Eh

generating ANC from exact Hessian ...
Using Lindh-Hessian (1995)
 Shifting diagonal of input Hessian by   9.945102323625504E-003
 Lowest  eigenvalues of input Hessian
    0.000000    0.000000    0.000000    0.000000    0.000000    0.000000
    0.010000    0.010032    0.010044    0.010075    0.010144    0.010303
    0.010547    0.010884    0.010911    0.011162    0.011304    0.011393
 Highest eigenvalues
    2.127592    2.160878    2.161072    2.168455    2.176922    2.251143
 

........................................................................
.............................. CYCLE   43 ..............................
........................................................................

 iter      E             dE          RMSdq      gap      omega  full diag
   1   -149.5686679 -0.149569E+03  0.241E-02    1.12       0.0  T
   2   -149.5686682 -0.297028E-06  0.141E-02    1.12       1.0  T
   3   -149.5686674  0.804636E-06  0.283E-03    1.12       3.7  T
   4   -149.5686683 -0.909003E-06  0.526E-04    1.12      19.8  T
   5   -149.5686683 -0.202772E-07  0.269E-04    1.12      38.8  T
     SCC iter.                  ...        0 min,  0.060 sec
     gradient                   ...        0 min,  0.014 sec
 * total energy  :  -146.9155738 Eh     change       -0.1602631E-04 Eh
   gradient norm :     0.0014928 Eh/α   predicted     0.0000000E+00 (-100.00%)
   displ. norm   :     0.0262491 α      lambda       -0.2220728E-05
   maximum displ.:     0.0106755 α      in ANC's #15, #21, #5, ...

........................................................................
.............................. CYCLE   44 ..............................
........................................................................

 iter      E             dE          RMSdq      gap      omega  full diag
   1   -149.5681378 -0.149568E+03  0.847E-03    1.12       0.0  T
   2   -149.5681379 -0.341572E-07  0.501E-03    1.12       2.1  T
   3   -149.5681378  0.576399E-07  0.917E-04    1.12      11.4  T
   4   -149.5681379 -0.698984E-07  0.221E-04    1.12      47.2  T
     SCC iter.                  ...        0 min,  0.048 sec
     gradient                   ...        0 min,  0.013 sec
 * total energy  :  -146.9155805 Eh     change       -0.6686162E-05 Eh
   gradient norm :     0.0005610 Eh/α   predicted    -0.4650681E-05 ( -30.44%)
   displ. norm   :     0.0288092 α      lambda       -0.3780402E-05
   maximum displ.:     0.0129176 α      in ANC's #15, #5, #21, ...

........................................................................
.............................. CYCLE   45 ..............................
........................................................................

 iter      E             dE          RMSdq      gap      omega  full diag
   1   -149.5678995 -0.149568E+03  0.634E-03    1.12       0.0  T
   2   -149.5678995 -0.146919E-07  0.371E-03    1.12       2.8  T
   3   -149.5678995  0.864200E-07  0.936E-04    1.12      11.1  T
   4   -149.5678996 -0.960862E-07  0.159E-04    1.12      65.6  T
     SCC iter.                  ...        0 min,  0.048 sec
     gradient                   ...        0 min,  0.013 sec
 * total energy  :  -146.9155851 Eh     change       -0.4619022E-05 Eh
   gradient norm :     0.0006203 Eh/α   predicted    -0.1893083E-05 ( -59.02%)
   displ. norm   :     0.0875285 α      lambda       -0.8003378E-05
   maximum displ.:     0.0389594 α      in ANC's #15, #5, #13, ...

........................................................................
.............................. CYCLE   46 ..............................
........................................................................

 iter      E             dE          RMSdq      gap      omega  full diag
   1   -149.5675638 -0.149568E+03  0.179E-02    1.12       0.0  T
   2   -149.5675640 -0.119007E-06  0.104E-02    1.12       1.0  T
   3   -149.5675636  0.376205E-06  0.199E-03    1.12       5.2  T
   4   -149.5675640 -0.420184E-06  0.521E-04    1.12      20.0  T
   5   -149.5675640 -0.126909E-07  0.246E-04    1.12      42.4  T
     SCC iter.                  ...        0 min,  0.059 sec
     gradient                   ...        0 min,  0.014 sec
 * total energy  :  -146.9155925 Eh     change       -0.7425610E-05 Eh
   gradient norm :     0.0004882 Eh/α   predicted    -0.4015480E-05 ( -45.92%)
   displ. norm   :     0.0453048 α      lambda       -0.2115290E-05
   maximum displ.:     0.0200293 α      in ANC's #5, #15, #13, ...

........................................................................
.............................. CYCLE   47 ..............................
........................................................................

 iter      E             dE          RMSdq      gap      omega  full diag
   1   -149.5676071 -0.149568E+03  0.833E-03    1.12       0.0  T
   2   -149.5676071 -0.260048E-07  0.486E-03    1.12       2.1  T
   3   -149.5676071  0.472597E-07  0.834E-04    1.12      12.5  T
   4   -149.5676071 -0.568461E-07  0.199E-04    1.12      52.3  T
     SCC iter.                  ...        0 min,  0.047 sec
     gradient                   ...        0 min,  0.014 sec
 * total energy  :  -146.9155950 Eh     change       -0.2480469E-05 Eh
   gradient norm :     0.0003429 Eh/α   predicted    -0.1059430E-05 ( -57.29%)
   displ. norm   :     0.0621388 α      lambda       -0.2833159E-05
   maximum displ.:     0.0298382 α      in ANC's #5, #15, #1, ...

........................................................................
.............................. CYCLE   48 ..............................
........................................................................

 iter      E             dE          RMSdq      gap      omega  full diag
   1   -149.5678257 -0.149568E+03  0.100E-02    1.12       0.0  T
   2   -149.5678258 -0.426485E-07  0.582E-03    1.12       1.8  T
   3   -149.5678257  0.984656E-07  0.120E-03    1.12       8.7  T
   4   -149.5678258 -0.113638E-06  0.307E-04    1.12      34.0  T
   5   -149.5678258 -0.175260E-08  0.172E-04    1.12      60.5  T
     SCC iter.                  ...        0 min,  0.059 sec
     gradient                   ...        0 min,  0.014 sec
 * total energy  :  -146.9155983 Eh     change       -0.3278493E-05 Eh
   gradient norm :     0.0002290 Eh/α   predicted    -0.1422109E-05 ( -56.62%)
   displ. norm   :     0.0688838 α      lambda       -0.2826636E-05
   maximum displ.:     0.0352462 α      in ANC's #5, #1, #2, ...

........................................................................
.............................. CYCLE   49 ..............................
........................................................................

 iter      E             dE          RMSdq      gap      omega  full diag
   1   -149.5681125 -0.149568E+03  0.100E-02    1.12       0.0  T
   2   -149.5681126 -0.473740E-07  0.583E-03    1.12       1.8  T
   3   -149.5681124  0.122535E-06  0.127E-03    1.12       8.2  T
   4   -149.5681126 -0.142269E-06  0.265E-04    1.12      39.3  T
   5   -149.5681126 -0.165676E-08  0.139E-04    1.12      74.9  T
     SCC iter.                  ...        0 min,  0.058 sec
     gradient                   ...        0 min,  0.014 sec
 * total energy  :  -146.9156014 Eh     change       -0.3144063E-05 Eh
   gradient norm :     0.0003513 Eh/α   predicted    -0.1416524E-05 ( -54.95%)
   displ. norm   :     0.0637490 α      lambda       -0.2277574E-05
   maximum displ.:     0.0339188 α      in ANC's #5, #1, #2, ...

........................................................................
.............................. CYCLE   50 ..............................
........................................................................

 iter      E             dE          RMSdq      gap      omega  full diag
   1   -149.5683146 -0.149568E+03  0.877E-03    1.12       0.0  T
   2   -149.5683147 -0.343975E-07  0.509E-03    1.12       2.0  T
   3   -149.5683146  0.667779E-07  0.931E-04    1.12      11.2  T
   4   -149.5683147 -0.792125E-07  0.233E-04    1.12      44.8  T
     SCC iter.                  ...        0 min,  0.047 sec
     gradient                   ...        0 min,  0.014 sec
 * total energy  :  -146.9156041 Eh     change       -0.2672845E-05 Eh
   gradient norm :     0.0003702 Eh/α   predicted    -0.1143376E-05 ( -57.22%)
   displ. norm   :     0.0703578 α      lambda       -0.2466964E-05
   maximum displ.:     0.0380488 α      in ANC's #5, #1, #2, ...

........................................................................
.............................. CYCLE   51 ..............................
........................................................................

 iter      E             dE          RMSdq      gap      omega  full diag
   1   -149.5684221 -0.149568E+03  0.970E-03    1.12       0.0  T
   2   -149.5684222 -0.351395E-07  0.566E-03    1.12       1.8  T
   3   -149.5684221  0.916104E-07  0.980E-04    1.12      10.6  T
   4   -149.5684222 -0.106575E-06  0.230E-04    1.12      45.3  T
     SCC iter.                  ...        0 min,  0.045 sec
     gradient                   ...        0 min,  0.014 sec
 * total energy  :  -146.9156072 Eh     change       -0.3067980E-05 Eh
   gradient norm :     0.0002959 Eh/α   predicted    -0.1239433E-05 ( -59.60%)
   displ. norm   :     0.0888549 α      lambda       -0.3097093E-05
   maximum displ.:     0.0482756 α      in ANC's #5, #1, #2, ...

........................................................................
.............................. CYCLE   52 ..............................
........................................................................

 iter      E             dE          RMSdq      gap      omega  full diag
   1   -149.5683573 -0.149568E+03  0.123E-02    1.12       0.0  T
   2   -149.5683573 -0.536109E-07  0.717E-03    1.12       1.5  T
   3   -149.5683572  0.102447E-06  0.114E-03    1.12       9.1  T
   4   -149.5683573 -0.122445E-06  0.312E-04    1.12      33.4  T
   5   -149.5683573 -0.258225E-08  0.161E-04    1.12      64.8  T
     SCC iter.                  ...        0 min,  0.060 sec
     gradient                   ...        0 min,  0.014 sec
 * total energy  :  -146.9156109 Eh     change       -0.3769560E-05 Eh
   gradient norm :     0.0002168 Eh/α   predicted    -0.1556293E-05 ( -58.71%)
   displ. norm   :     0.1009153 α      lambda       -0.3183832E-05
   maximum displ.:     0.0552643 α      in ANC's #5, #1, #2, ...

........................................................................
.............................. CYCLE   53 ..............................
........................................................................

 iter      E             dE          RMSdq      gap      omega  full diag
   1   -149.5681497 -0.149568E+03  0.139E-02    1.12       0.0  T
   2   -149.5681497 -0.659734E-07  0.808E-03    1.12       1.3  T
   3   -149.5681497  0.954188E-07  0.118E-03    1.12       8.9  T
   4   -149.5681498 -0.120827E-06  0.323E-04    1.12      32.3  T
   5   -149.5681498 -0.145130E-08  0.166E-04    1.12      62.8  T
     SCC iter.                  ...        0 min,  0.058 sec
     gradient                   ...        0 min,  0.014 sec
 * total energy  :  -146.9156146 Eh     change       -0.3698435E-05 Eh
   gradient norm :     0.0002850 Eh/α   predicted    -0.1601830E-05 ( -56.69%)
   displ. norm   :     0.0965173 α      lambda       -0.2612250E-05
   maximum displ.:     0.0533701 α      in ANC's #5, #1, #2, ...

........................................................................
.............................. CYCLE   54 ..............................
........................................................................

 iter      E             dE          RMSdq      gap      omega  full diag
   1   -149.5679389 -0.149568E+03  0.133E-02    1.12       0.0  T
   2   -149.5679389 -0.519286E-07  0.776E-03    1.12       1.3  T
   3   -149.5679389  0.708227E-07  0.978E-04    1.12      10.7  T
   4   -149.5679389 -0.907374E-07  0.300E-04    1.12      34.7  T
     SCC iter.                  ...        0 min,  0.047 sec
     gradient                   ...        0 min,  0.014 sec
 * total energy  :  -146.9156177 Eh     change       -0.3086222E-05 Eh
   gradient norm :     0.0003042 Eh/α   predicted    -0.1316287E-05 ( -57.35%)
   displ. norm   :     0.0905632 α      lambda       -0.2355194E-05
   maximum displ.:     0.0502987 α      in ANC's #5, #1, #2, ...

........................................................................
.............................. CYCLE   55 ..............................
........................................................................

 iter      E             dE          RMSdq      gap      omega  full diag
   1   -149.5677571 -0.149568E+03  0.130E-02    1.12       0.0  T
   2   -149.5677572 -0.376060E-07  0.760E-03    1.12       1.4  T
   3   -149.5677571  0.106125E-06  0.103E-03    1.12      10.2  T
   4   -149.5677572 -0.125022E-06  0.281E-04    1.12      37.0  T
   5   -149.5677572 -0.171002E-08  0.140E-04    1.12      74.2  T
     SCC iter.                  ...        0 min,  0.057 sec
     gradient                   ...        0 min,  0.014 sec
 * total energy  :  -146.9156207 Eh     change       -0.2935556E-05 Eh
   gradient norm :     0.0002631 Eh/α   predicted    -0.1182611E-05 ( -59.71%)
   displ. norm   :     0.1096894 α      lambda       -0.2948920E-05
   maximum displ.:     0.0606180 α      in ANC's #5, #1, #2, ...

........................................................................
.............................. CYCLE   56 ..............................
........................................................................

 iter      E             dE          RMSdq      gap      omega  full diag
   1   -149.5676157 -0.149568E+03  0.167E-02    1.12       0.0  T
   2   -149.5676157 -0.560276E-07  0.974E-03    1.12       1.1  T
   3   -149.5676156  0.607973E-07  0.926E-04    1.12      11.3  T
   4   -149.5676157 -0.806416E-07  0.338E-04    1.12      30.9  T
     SCC iter.                  ...        0 min,  0.047 sec
     gradient                   ...        0 min,  0.013 sec
 * total energy  :  -146.9156244 Eh     change       -0.3703278E-05 Eh
   gradient norm :     0.0002184 Eh/α   predicted    -0.1483349E-05 ( -59.94%)
   displ. norm   :     0.1418176 α      lambda       -0.3715307E-05
   maximum displ.:     0.0776084 α      in ANC's #5, #1, #2, ...

........................................................................
.............................. CYCLE   57 ..............................
........................................................................

 iter      E             dE          RMSdq      gap      omega  full diag
   1   -149.5675225 -0.149568E+03  0.224E-02    1.12       0.0  T
   2   -149.5675226 -0.860789E-07  0.131E-02    1.12       1.0  T
   3   -149.5675225  0.728499E-07  0.110E-03    1.12       9.4  T
   4   -149.5675226 -0.101524E-06  0.445E-04    1.12      23.4  T
   5   -149.5675226 -0.649462E-08  0.196E-04    1.12      53.2  T
     SCC iter.                  ...        0 min,  0.058 sec
     gradient                   ...        0 min,  0.013 sec
 * total energy  :  -146.9156289 Eh     change       -0.4574330E-05 Eh
   gradient norm :     0.0002670 Eh/α   predicted    -0.1875136E-05 ( -59.01%)
   displ. norm   :     0.1651583 α      lambda       -0.3881638E-05
   maximum displ.:     0.0897160 α      in ANC's #5, #1, #2, ...

........................................................................
.............................. CYCLE   58 ..............................
........................................................................

 iter      E             dE          RMSdq      gap      omega  full diag
   1   -149.5675666 -0.149568E+03  0.260E-02    1.12       0.0  T
   2   -149.5675667 -0.120798E-06  0.152E-02    1.12       1.0  T
   3   -149.5675667  0.423575E-07  0.117E-03    1.12       8.9  T
   4   -149.5675668 -0.846623E-07  0.467E-04    1.12      22.3  T
   5   -149.5675668 -0.438976E-08  0.162E-04    1.12      64.4  T
     SCC iter.                  ...        0 min,  0.060 sec
     gradient                   ...        0 min,  0.013 sec
 * total energy  :  -146.9156335 Eh     change       -0.4571612E-05 Eh
   gradient norm :     0.0003265 Eh/α   predicted    -0.1967946E-05 ( -56.95%)
   displ. norm   :     0.1391639 α      lambda       -0.2896596E-05
   maximum displ.:     0.0749227 α      in ANC's #1, #5, #2, ...

........................................................................
.............................. CYCLE   59 ..............................
........................................................................

 iter      E             dE          RMSdq      gap      omega  full diag
   1   -149.5677730 -0.149568E+03  0.216E-02    1.12       0.0  T
   2   -149.5677731 -0.840172E-07  0.126E-02    1.12       1.0  T
   3   -149.5677730  0.525681E-07  0.107E-03    1.12       9.7  T
   4   -149.5677731 -0.838377E-07  0.385E-04    1.12      27.1  T
   5   -149.5677731 -0.236741E-08  0.150E-04    1.12      69.7  T
     SCC iter.                  ...        0 min,  0.058 sec
     gradient                   ...        0 min,  0.013 sec
 * total energy  :  -146.9156370 Eh     change       -0.3477142E-05 Eh
   gradient norm :     0.0002974 Eh/α   predicted    -0.1463100E-05 ( -57.92%)
   displ. norm   :     0.1269876 α      lambda       -0.2465120E-05
   maximum displ.:     0.0694862 α      in ANC's #1, #5, #2, ...

........................................................................
.............................. CYCLE   60 ..............................
........................................................................

 iter      E             dE          RMSdq      gap      omega  full diag
   1   -149.5679789 -0.149568E+03  0.190E-02    1.12       0.0  T
   2   -149.5679790 -0.714616E-07  0.111E-02    1.12       1.0  T
   3   -149.5679789  0.599202E-07  0.104E-03    1.12      10.1  T
   4   -149.5679790 -0.872598E-07  0.337E-04    1.12      30.9  T
   5   -149.5679790 -0.185852E-08  0.141E-04    1.12      74.0  T
     SCC iter.                  ...        0 min,  0.058 sec
     gradient                   ...        0 min,  0.014 sec
 * total energy  :  -146.9156399 Eh     change       -0.2905210E-05 Eh
   gradient norm :     0.0001945 Eh/α   predicted    -0.1245693E-05 ( -57.12%)
   displ. norm   :     0.0974203 α      lambda       -0.1874326E-05
   maximum displ.:     0.0544186 α      in ANC's #1, #2, #5, ...

........................................................................
.............................. CYCLE   61 ..............................
........................................................................

 iter      E             dE          RMSdq      gap      omega  full diag
   1   -149.5681307 -0.149568E+03  0.140E-02    1.12       0.0  T
   2   -149.5681307 -0.449899E-07  0.819E-03    1.12       1.3  T
   3   -149.5681307  0.511410E-07  0.906E-04    1.12      11.5  T
   4   -149.5681308 -0.690930E-07  0.241E-04    1.12      43.2  T
     SCC iter.                  ...        0 min,  0.046 sec
     gradient                   ...        0 min,  0.013 sec
 * total energy  :  -146.9156421 Eh     change       -0.2243045E-05 Eh
   gradient norm :     0.0001459 Eh/α   predicted    -0.9428878E-06 ( -57.96%)
   displ. norm   :     0.0795097 α      lambda       -0.1644505E-05
[...]
    57   6 C       91   1 H                                       1.0803015
    58   6 C       92   1 H                                       1.0802434

 * 4 distinct bonds (by element types)

   Z      Z             #   av. dist./Å        max./Å        min./Å
   1 H    6 C          34     1.0792387     1.0805574     1.0724334
   6 C    6 C          52     1.3928748     1.4393824     1.3558316
   6 C    7 N          10     1.3702330     1.4000054     1.3181643
   6 C   16 S           4     1.7270931     1.7302874     1.7237173

           -------------------------------------------------
          |               Frequency Printout                |
           -------------------------------------------------
 projected vibrational frequencies (cm⁻¹)
eigval :       -0.00    -0.00    -0.00    -0.00     0.00     0.00
eigval :        7.62     9.28    10.22    14.76    16.57    17.54
eigval :       32.66    40.94    44.21    49.93    50.82    56.25
eigval :       58.85    62.93    68.97    71.90    79.63    92.18
eigval :       99.78   105.93   109.44   113.32   127.83   133.21
eigval :      153.40   163.26   168.79   185.65   204.38   208.43
eigval :      226.27   231.43   234.47   245.89   252.09   274.01
eigval :      304.22   308.44   315.12   324.43   332.56   335.85
eigval :      349.10   355.30   359.35   377.60   378.20   378.71
eigval :      380.89   384.01   387.24   387.75   392.22   402.98
eigval :      420.07   422.18   425.00   430.26   438.46   463.68
eigval :      480.10   484.49   488.21   490.80   497.03   509.44
eigval :      516.45   540.31   557.39   576.73   577.30   581.77
eigval :      584.23   586.97   589.60   591.54   593.08   598.45
eigval :      602.02   607.49   617.36   630.54   645.20   648.64
eigval :      656.73   659.71   659.87   660.84   669.66   673.55
eigval :      687.62   688.92   697.11   712.53   731.65   740.33
eigval :      745.00   756.90   757.03   761.11   761.47   761.57
eigval :      761.71   768.06   809.14   816.11   820.24   826.62
eigval :      831.63   843.90   845.48   865.10   866.52   874.35
eigval :      874.48   876.34   876.65   877.19   891.06   891.69
eigval :      892.00   892.93   899.26   909.52   909.92   910.33
eigval :      911.29   913.26   916.55   923.34   924.63   927.27
eigval :      927.35   928.66   928.95   929.39   929.44   929.60
eigval :      929.94   945.74   959.20   959.35   987.35   988.76
eigval :     1004.82  1004.98  1019.24  1026.40  1038.40  1074.67
eigval :     1083.10  1083.16  1084.20  1084.24  1099.04  1121.96
eigval :     1122.13  1124.30  1124.91  1134.53  1140.89  1144.02
eigval :     1144.68  1150.67  1180.58  1180.81  1180.84  1180.90
eigval :     1187.28  1187.64  1195.69  1195.73  1196.38  1197.52
eigval :     1212.80  1216.36  1217.90  1241.12  1264.03  1265.44
eigval :     1271.72  1273.87  1278.48  1278.89  1279.01  1281.94
eigval :     1283.07  1306.39  1314.80  1315.71  1317.08  1321.02
eigval :     1321.49  1327.01  1327.29  1327.96  1328.74  1330.40
eigval :     1340.09  1349.19  1363.42  1380.60  1407.95  1409.83
eigval :     1417.20  1423.76  1436.50  1436.55  1443.36  1443.43
eigval :     1471.50  1472.11  1474.06  1474.73  1476.48  1476.81
eigval :     1480.18  1488.71  1490.89  1506.91  1514.67  1528.52
eigval :     1543.65  1553.02  1554.98  1576.50  1576.87  1578.77
eigval :     1580.80  1580.90  1591.83  1594.57  1594.87  1595.02
eigval :     1601.19  1601.49  3073.05  3074.51  3074.78  3074.88
eigval :     3075.34  3075.44  3076.29  3076.45  3076.66  3076.93
eigval :     3077.82  3084.49  3085.06  3085.45  3085.75  3085.83
eigval :     3086.49  3086.77  3087.47  3088.14  3089.13  3089.26
eigval :     3089.86  3091.63  3096.57  3096.80  3097.07  3097.32
eigval :     3109.49  3113.11  3132.49  3136.43  3158.98  3159.34
 reduced masses (amu)
   1: 12.54   2: 13.25   3: 12.80   4: 12.38   5: 13.24   6: 13.36   7: 12.16   8: 12.63
   9: 11.43  10: 12.38  11: 18.25  12: 17.05  13: 11.15  14: 11.19  15: 11.14  16: 10.86
  17: 11.09  18: 11.46  19: 10.89  20: 11.45  21: 12.38  22: 10.36  23: 12.26  24: 19.64
  25: 11.68  26: 12.31  27: 10.55  28: 16.01  29: 11.56  30: 14.04  31: 12.13  32: 12.99
  33: 14.71  34: 12.89  35: 12.68  36: 12.49  37: 10.90  38: 12.60  39: 10.53  40: 11.28
  41: 11.61  42: 12.13  43: 11.79  44: 11.57  45: 10.74  46: 11.02  47: 13.43  48: 11.76
  49: 19.18  50: 14.47  51: 10.89  52:  9.18  53:  9.12  54:  9.15  55:  9.26  56: 11.23
  57:  9.66  58: 10.69  59: 10.37  60: 12.39  61: 12.00  62: 11.89  63: 11.15  64: 11.57
  65: 12.39  66: 12.23  67: 10.02  68: 11.55  69: 10.39  70: 10.57  71: 10.69  72: 10.16
  73: 12.61  74: 15.72  75: 11.12  76: 11.91  77: 11.28  78: 11.40  79: 11.23  80: 11.14
  81: 12.04  82: 11.41  83: 11.30  84: 11.86  85: 12.01  86: 12.14  87: 11.48  88: 11.32
  89: 12.88  90: 10.95  91: 13.09  92: 10.25  93: 10.18  94: 10.89  95: 10.20  96: 12.12
  97: 11.39  98: 11.42  99: 14.38 100: 11.73 101: 11.23 102: 11.73 103: 13.82 104:  4.02
 105:  4.01 106: 11.31 107:  3.67 108:  4.58 109:  4.24 110:  4.53 111:  4.66 112:  5.22
 113: 15.05 114:  3.43 115:  3.23 116: 13.08 117:  3.97 118:  3.27 119:  3.36 120:  3.31
 121:  3.33 122:  4.18 123:  3.54 124: 11.48 125:  5.13 126:  4.36 127:  4.11 128:  4.23
 129:  9.62 130:  8.44 131: 10.31 132: 11.13 133:  6.78 134:  3.48 135:  3.98 136:  3.84
 137:  3.82 138:  3.76 139:  3.67 140:  3.05 141:  3.08 142:  3.02 143:  2.95 144:  3.66
 145:  3.64 146: 11.60 147: 11.84 148: 11.22 149: 10.87 150: 11.02 151: 10.57 152: 10.58
 153:  9.66 154:  8.50 155:  8.83 156:  2.07 157:  6.80 158:  6.79 159:  6.54 160:  6.56
 161:  3.47 162:  4.05 163:  4.04 164:  3.97 165:  3.99 166:  7.11 167:  5.78 168:  4.17
 169:  3.31 170:  5.65 171:  1.31 172:  1.31 173:  1.31 174:  1.31 175:  4.77 176:  4.78
 177:  1.79 178:  1.81 179:  1.95 180:  1.90 181:  5.63 182:  5.55 183:  6.06 184:  7.64
 185: 10.02 186:  8.43 187:  4.26 188:  5.58 189:  7.54 190:  4.05 191:  4.06 192:  4.20
 193:  4.62 194:  9.68 195: 11.09 196: 10.22 197: 10.98 198: 10.59 199: 10.60 200: 11.81
 201: 11.90 202: 11.70 203: 11.61 204: 10.85 205: 11.69 206: 11.15 207: 11.43 208: 11.89
 209: 10.51 210: 11.26 211: 10.95 212: 11.00 213:  9.10 214:  9.10 215:  9.13 216:  9.11
 217:  9.07 218:  9.18 219: 11.08 220: 11.36 221:  9.42 222:  9.46 223: 11.52 224: 10.75
 225: 10.29 226: 12.45 227: 11.80 228: 11.79 229: 11.67 230: 11.62 231: 11.63 232: 11.48
 233: 11.48 234: 11.59 235: 11.53 236: 11.53 237: 11.49 238: 11.49 239: 11.47 240: 11.46
 241: 11.50 242: 11.50 243:  1.78 244:  1.77 245:  1.75 246:  1.75 247:  1.75 248:  1.75
 249:  1.78 250:  1.78 251:  1.78 252:  1.78 253:  1.78 254:  1.81 255:  1.82 256:  1.85
 257:  1.83 258:  1.84 259:  1.85 260:  1.83 261:  1.86 262:  1.87 263:  1.87 264:  1.87
 265:  1.87 266:  1.86 267:  1.92 268:  1.92 269:  1.92 270:  1.92 271:  1.86 272:  1.85
 273:  1.83 274:  1.82 275:  1.90 276:  1.90
 IR intensities (km·mol⁻¹)
   1:  0.00   2:  0.02   3:  0.00   4:  0.01   5:  0.01   6:  0.01   7:  0.06   8:  0.00
   9:  0.07  10:  0.24  11:  0.02  12:  0.14  13:  0.16  14:  0.73  15:  0.60  16:  0.13
  17:  5.81  18:  0.88  19:  0.69  20:  0.45  21:  0.72  22:  0.23  23:  2.17  24:  0.13
  25:  0.11  26:  0.83  27:  0.71  28:  0.11  29:  0.44  30:  0.03  31:  0.16  32:  0.23
  33:  0.50  34:  0.55  35:  1.55  36:  0.63  37:  9.93  38:  0.74  39:  0.17  40:  0.95
  41:  0.15  42:  1.07  43:  0.49  44:  1.22  45:  1.02  46:  0.41  47:  0.05  48:  0.02
  49:  0.10  50:  0.12  51:  1.65  52:  2.36  53:  5.94  54: 14.50  55:  1.66  56:  0.50
  57:  2.95  58:  0.71  59:  0.56  60:  9.54  61:  0.56  62:  2.84  63:  4.33  64:  1.38
  65:  0.78  66: 19.07  67:  1.55  68:  7.98  69: 20.25  70:  2.68  71: 15.10  72:  2.85
  73:  6.42  74:  0.00  75:  0.76  76:  0.35  77:  0.36  78:  1.23  79:  1.07  80:  0.49
  81:  0.42  82:  0.36  83:  0.82  84:  0.04  85:  4.91  86:  1.72  87:  1.40  88:  1.10
  89:  4.33  90:  0.33  91:  0.06  92:  2.13  93:  2.23  94:  0.25  95: 32.90  96:  0.47
  97:  3.30  98:  7.02  99:  0.15 100:  0.92 101:  1.68 102:  1.45 103:  4.83 104: 42.53
 105: 45.38 106:  1.27 107: 17.94 108:  2.41 109:  7.19 110:  0.03 111: 33.92 112:  7.23
 113:  7.37 114:  0.07 115:  5.03 116: 33.49 117:  5.86 118: 30.75 119:  0.89 120:  0.25
 121:  0.64 122:  2.70 123:  0.28 124: 25.35 125:  1.06 126:  0.17 127:  1.24 128:  0.26
 129:  1.99 130:  3.19 131:  2.34 132:  2.32 133:  2.72 134:  0.46 135:  5.91 136:  4.80
 137:  0.02 138:  0.63 139:  0.43 140:  0.69 141:  0.07 142:  1.21 143:  0.54 144:  0.41
 145:  0.37 146:  2.27 147: 48.99 148:  7.33 149:  0.12 150: 18.94 151:  2.90 152:  2.67
 153:  6.35 154:  0.66 155: 10.32 156:  2.49 157:  0.11 158:  0.06 159:  0.01 160:  0.05
 161:  0.06 162:  1.62 163:  1.36 164:  0.03 165:  0.29 166:  6.92 167:  2.67 168:  0.43
 169:  1.78 170:  5.77 171:  1.15 172:  0.51 173:  0.09 174:  0.07 175:  6.71 176:  1.95
 177: 14.03 178: 13.40 179:  5.69 180: 99.23 181:  2.63 182:  4.48 183: 11.41 184: 14.55
 185:  7.95 186:  0.75 187:  2.58 188:  1.28 189: 14.72 190:  6.97 191: 11.46 192:  1.58
 193: 82.13 194:  7.96 195: 66.71 196:555.99 197:154.44 198:209.68 199:197.70 200:134.99
 201:  6.44 202:  7.56 203: 14.53 204:573.37 205:  3.53 206: 27.33 207:161.74 208:  5.40
 209: 59.57 210: 16.55 211: 64.47 212:359.82 213: 10.70 214:  2.00 215: 35.21 216:  1.07
 217:172.50 218:  7.46 219:183.80 220: 54.75 221:190.81 222:211.94 223:  2.10 224:219.52
 225:  1.15 226: 88.80 227:  0.73 228:  1.75 229:  0.83 230:  1.56 231: 15.08 232: 14.06
 233:  1.65 234: 24.17 235: 48.64 236:  7.08 237:727.51 238: 16.66 239:140.60 240:122.16
 241:  0.06 242:  0.51 243: 68.26 244:  5.09 245:  7.37 246: 13.90 247: 13.40 248:  2.25
 249:  4.31 250:  4.92 251:  1.19 252:  7.64 253:  5.56 254: 57.57 255: 48.32 256: 14.89
 257: 80.14 258: 54.39 259: 54.08 260: 14.33 261: 13.19 262: 92.18 263: 52.75 264: 67.76
 265: 75.42 266: 93.71 267: 72.10 268: 82.61 269: 54.18 270: 22.20 271: 25.18 272: 21.19
 273:  0.37 274: 21.06 275:  6.31 276: 15.44
 Raman intensities (Ä⁴*amu⁻¹)
   1:  0.00   2:  0.00   3:  0.00   4:  0.00   5:  0.00   6:  0.00   7:  0.00   8:  0.00
   9:  0.00  10:  0.00  11:  0.00  12:  0.00  13:  0.00  14:  0.00  15:  0.00  16:  0.00
  17:  0.00  18:  0.00  19:  0.00  20:  0.00  21:  0.00  22:  0.00  23:  0.00  24:  0.00
  25:  0.00  26:  0.00  27:  0.00  28:  0.00  29:  0.00  30:  0.00  31:  0.00  32:  0.00
  33:  0.00  34:  0.00  35:  0.00  36:  0.00  37:  0.00  38:  0.00  39:  0.00  40:  0.00
  41:  0.00  42:  0.00  43:  0.00  44:  0.00  45:  0.00  46:  0.00  47:  0.00  48:  0.00
  49:  0.00  50:  0.00  51:  0.00  52:  0.00  53:  0.00  54:  0.00  55:  0.00  56:  0.00
  57:  0.00  58:  0.00  59:  0.00  60:  0.00  61:  0.00  62:  0.00  63:  0.00  64:  0.00
  65:  0.00  66:  0.00  67:  0.00  68:  0.00  69:  0.00  70:  0.00  71:  0.00  72:  0.00
  73:  0.00  74:  0.00  75:  0.00  76:  0.00  77:  0.00  78:  0.00  79:  0.00  80:  0.00
  81:  0.00  82:  0.00  83:  0.00  84:  0.00  85:  0.00  86:  0.00  87:  0.00  88:  0.00
  89:  0.00  90:  0.00  91:  0.00  92:  0.00  93:  0.00  94:  0.00  95:  0.00  96:  0.00
  97:  0.00  98:  0.00  99:  0.00 100:  0.00 101:  0.00 102:  0.00 103:  0.00 104:  0.00
 105:  0.00 106:  0.00 107:  0.00 108:  0.00 109:  0.00 110:  0.00 111:  0.00 112:  0.00
 113:  0.00 114:  0.00 115:  0.00 116:  0.00 117:  0.00 118:  0.00 119:  0.00 120:  0.00
 121:  0.00 122:  0.00 123:  0.00 124:  0.00 125:  0.00 126:  0.00 127:  0.00 128:  0.00
 129:  0.00 130:  0.00 131:  0.00 132:  0.00 133:  0.00 134:  0.00 135:  0.00 136:  0.00
 137:  0.00 138:  0.00 139:  0.00 140:  0.00 141:  0.00 142:  0.00 143:  0.00 144:  0.00
 145:  0.00 146:  0.00 147:  0.00 148:  0.00 149:  0.00 150:  0.00 151:  0.00 152:  0.00
 153:  0.00 154:  0.00 155:  0.00 156:  0.00 157:  0.00 158:  0.00 159:  0.00 160:  0.00
 161:  0.00 162:  0.00 163:  0.00 164:  0.00 165:  0.00 166:  0.00 167:  0.00 168:  0.00
 169:  0.00 170:  0.00 171:  0.00 172:  0.00 173:  0.00 174:  0.00 175:  0.00 176:  0.00
 177:  0.00 178:  0.00 179:  0.00 180:  0.00 181:  0.00 182:  0.00 183:  0.00 184:  0.00
 185:  0.00 186:  0.00 187:  0.00 188:  0.00 189:  0.00 190:  0.00 191:  0.00 192:  0.00
 193:  0.00 194:  0.00 195:  0.00 196:  0.00 197:  0.00 198:  0.00 199:  0.00 200:  0.00
 201:  0.00 202:  0.00 203:  0.00 204:  0.00 205:  0.00 206:  0.00 207:  0.00 208:  0.00
 209:  0.00 210:  0.00 211:  0.00 212:  0.00 213:  0.00 214:  0.00 215:  0.00 216:  0.00
 217:  0.00 218:  0.00 219:  0.00 220:  0.00 221:  0.00 222:  0.00 223:  0.00 224:  0.00
 225:  0.00 226:  0.00 227:  0.00 228:  0.00 229:  0.00 230:  0.00 231:  0.00 232:  0.00
 233:  0.00 234:  0.00 235:  0.00 236:  0.00 237:  0.00 238:  0.00 239:  0.00 240:  0.00
 241:  0.00 242:  0.00 243:  0.00 244:  0.00 245:  0.00 246:  0.00 247:  0.00 248:  0.00
 249:  0.00 250:  0.00 251:  0.00 252:  0.00 253:  0.00 254:  0.00 255:  0.00 256:  0.00
 257:  0.00 258:  0.00 259:  0.00 260:  0.00 261:  0.00 262:  0.00 263:  0.00 264:  0.00
 265:  0.00 266:  0.00 267:  0.00 268:  0.00 269:  0.00 270:  0.00 271:  0.00 272:  0.00
 273:  0.00 274:  0.00 275:  0.00 276:  0.00
 output can be read by thermo (or use thermo option).
 writing <g98.out> molden fake output.
 recommended (thermochemical) frequency scaling factor: 1.0
           -------------------------------------------------
          |             Thermodynamic Functions             |
           -------------------------------------------------

Molecule has no symmetry elements
It seems to be the C1 point group
c1  symmetry found (for desy threshold:  0.10E+00) used in thermo

          ...................................................
          :                      SETUP                      :
          :.................................................:
          :  # frequencies                         270      :
          :  # imaginary freq.                       0      :
          :  linear?                             false      :
          :  only rotor calc.                    false      :
          :  symmetry                               c1      :
          :  rotational number                       1      :
          :  scaling factor                  1.0000000      :
          :  rotor cutoff                   50.0000000 cm⁻¹ :
          :  imag. cutoff                  -20.0000000 cm⁻¹ :
          :.................................................:

    mode    ω/cm⁻¹     T·S(HO)/kcal·mol⁻¹    T·S(FR)/kcal·mol⁻¹   T·S(vib)
   ------------------------------------------------------------------------
       1      7.62    -2.54980 (  0.05%)    -1.61397 ( 99.95%)    -1.61448
       2      9.28    -2.43288 (  0.12%)    -1.55551 ( 99.88%)    -1.55655
       3     10.22    -2.37541 (  0.17%)    -1.52677 ( 99.83%)    -1.52825
       4     14.76    -2.15792 (  0.75%)    -1.41800 ( 99.25%)    -1.42357
       5     16.57    -2.08945 (  1.19%)    -1.38375 ( 98.81%)    -1.39216
       6     17.54    -2.05584 (  1.49%)    -1.36694 ( 98.51%)    -1.37721
       7     32.66    -1.68777 ( 15.40%)    -1.18269 ( 84.60%)    -1.26049
       8     40.94    -1.55425 ( 31.01%)    -1.11576 ( 68.99%)    -1.25175
       9     44.21    -1.50885 ( 37.94%)    -1.09298 ( 62.06%)    -1.25078
      10     49.93    -1.43712 ( 49.86%)    -1.05696 ( 50.14%)    -1.24651
      11     50.82    -1.42674 ( 51.62%)    -1.05174 ( 48.38%)    -1.24532
      12     56.25    -1.36687 ( 61.57%)    -1.02164 ( 38.43%)    -1.23420
      13     58.85    -1.34026 ( 65.75%)    -1.00825 ( 34.25%)    -1.22654
      14     62.93    -1.30091 ( 71.50%)    -0.98843 ( 28.50%)    -1.21185
      15     68.97    -1.24700 ( 78.36%)    -0.96125 ( 21.64%)    -1.18516
      16     71.90    -1.22259 ( 81.05%)    -0.94893 ( 18.95%)    -1.17072
      17     79.63    -1.16277 ( 86.55%)    -0.91868 ( 13.45%)    -1.12993
      18     92.18    -1.07726 ( 92.03%)    -0.87532 (  7.97%)    -1.06118
      19     99.78    -1.03118 ( 94.07%)    -0.85186 (  5.93%)    -1.02055
      20    105.93    -0.99646 ( 95.27%)    -0.83414 (  4.73%)    -0.98878
      21    109.44    -0.97756 ( 95.83%)    -0.82448 (  4.17%)    -0.97117
      22    113.32    -0.95742 ( 96.35%)    -0.81416 (  3.65%)    -0.95218
      23    127.83    -0.88803 ( 97.71%)    -0.77848 (  2.29%)    -0.88552
      24    133.21    -0.86437 ( 98.05%)    -0.76625 (  1.95%)    -0.86247
      25    153.40    -0.78404 ( 98.88%)    -0.72446 (  1.12%)    -0.78337
      26    163.26    -0.74886 ( 99.13%)    -0.70600 (  0.87%)    -0.74849
      27    168.79    -0.73016 ( 99.24%)    -0.69614 (  0.76%)    -0.72990
      28    185.65    -0.67704 ( 99.48%)    -0.66792 (  0.52%)    -0.67699
      29    204.38    -0.62411 ( 99.64%)    -0.63945 (  0.36%)    -0.62417
      30    208.43    -0.61340 ( 99.67%)    -0.63363 (  0.33%)    -0.61346
      31    226.27    -0.56898 ( 99.76%)    -0.60931 (  0.24%)    -0.56907
      32    231.43    -0.55688 ( 99.78%)    -0.60263 (  0.22%)    -0.55698
      33    234.47    -0.54992 ( 99.79%)    -0.59876 (  0.21%)    -0.55002
      34    245.89    -0.52470 ( 99.83%)    -0.58468 (  0.17%)    -0.52480
      35    252.09    -0.51160 ( 99.85%)    -0.57730 (  0.15%)    -0.51170
      36    274.01    -0.46833 ( 99.89%)    -0.55260 (  0.11%)    -0.46843
   ------------------------------------------------------------------------

   temp. (K)  partition function   enthalpy   heat capacity  entropy
                                   cal/mol     cal/K/mol   cal/K/mol   J/K/mol
 298.15  VIB  0.653E+23            27603.899    171.953    174.641
         ROT  0.199E+09              888.752      2.981     40.952
         INT  0.130E+32            28492.651    174.934    215.593
         TR   0.210E+29             1481.254      4.968     45.816
         TOT                       29973.9053   179.9023   261.4096  1093.7379

       T/K    H(0)-H(T)+PV         H(T)/Eh          T*S/Eh         G(T)/Eh
   ------------------------------------------------------------------------
    298.15    0.477665E-01    0.739274E+00    0.124204E+00    0.615070E+00
   ------------------------------------------------------------------------

         :::::::::::::::::::::::::::::::::::::::::::::::::::::
         ::                  THERMODYNAMIC                  ::
         :::::::::::::::::::::::::::::::::::::::::::::::::::::
         :: total free energy        -146.300602293059 Eh   ::
         ::.................................................::
         :: total energy             -146.915672355773 Eh   ::
         :: zero point energy           0.691507756408 Eh   ::
         :: G(RRHO) w/o ZPVE           -0.076437693694 Eh   ::
         :: G(RRHO) contrib.            0.615070062714 Eh   ::
         :::::::::::::::::::::::::::::::::::::::::::::::::::::

optimized geometry written to: xtbopt.xyz


           -------------------------------------------------
          | TOTAL ENERGY             -146.915672355773 Eh   |
          | TOTAL ENTHALPY           -146.176398140786 Eh   |
          | TOTAL FREE ENERGY        -146.300602293059 Eh   |
          | GRADIENT NORM               0.000028713260 Eh/α |
          | HOMO-LUMO GAP               1.122210211095 eV   |
           -------------------------------------------------

------------------------------------------------------------------------
 * finished run on 2025/09/11 at 07:04:05.937     
------------------------------------------------------------------------
 total:
 * wall-time:     0 d,  0 h,  0 min, 15.436 sec
 *  cpu-time:     0 d,  0 h,  9 min, 54.106 sec
 * ratio c/w:    38.488 speedup
 SCF:
 * wall-time:     0 d,  0 h,  0 min,  0.221 sec
 *  cpu-time:     0 d,  0 h,  0 min,  8.376 sec
 * ratio c/w:    37.917 speedup
 ANC optimizer:
 * wall-time:     0 d,  0 h,  0 min,  9.358 sec
 *  cpu-time:     0 d,  0 h,  6 min, 14.271 sec
 * ratio c/w:    39.996 speedup
 analytical hessian:
 * wall-time:     0 d,  0 h,  0 min,  5.583 sec
 *  cpu-time:     0 d,  0 h,  3 min, 22.603 sec
 * ratio c/w:    36.291 speedup

