94
 energy: -148.371966357803 gnorm: 0.000046979569 xtb: 6.7.1 (edcfbbe)
C            7.56924340915592        0.60703379392173        1.81623823929198
C            7.21209460002593        0.15974424992880        0.38615382099261
C            8.40815640637359        0.38409463767873       -0.55813356732038
C            6.88379263664032       -1.32088191222254        0.40400418887952
C            7.86098726682783       -2.23076599761344        0.78718624683408
C            7.63618298601143       -3.59473361681582        0.78886195403988
C            6.40686839305774       -4.07641363082609        0.37564406327700
C            5.41762973005729       -3.19437077614951       -0.00665591069979
C            5.63052625408527       -1.81281371761844        0.02670012199022
N            4.60839657571835       -0.94953651951333       -0.35453164809093
C            3.33154149447366       -1.47781463047072       -0.64813311023384
C            2.55657481722224       -2.03360355420627        0.37003617528523
C            1.28051730940041       -2.48978791870999        0.09657134174599
C            0.78840501528075       -2.39291729368235       -1.19308518869705
S           -0.93117224104627       -2.79852718051630       -1.49138275331753
O           -1.30678240607826       -3.95142713325739       -0.70269941378881
O           -1.16642497735476       -2.88346541640882       -2.91577362631990
C           -1.82432763811556       -1.37303950737903       -0.83899368434739
C           -3.16529275670947       -1.51678327771164       -0.55508213570874
C           -3.86894664530397       -0.43081217117802       -0.02976905790827
N           -5.22229608926755       -0.55820427312387        0.28182266216505
C           -5.79274797193249       -1.59309902182215        1.00642754163620
C           -5.19104165104687       -2.68294592456580        1.61863480663722
C           -6.00149880871901       -3.55956778206953        2.31648823998734
C           -7.37625410065488       -3.35815722811119        2.41656764292357
C           -7.97653199631775       -2.26103825219187        1.83090926536789
C           -7.18259529657250       -1.36672572716227        1.12436275747206
C           -7.46197463051198       -0.14311784571569        0.42315045186340
C           -8.62894738786942        0.56663387733143        0.17060660026189
C           -8.55230925564278        1.71900096977577       -0.58689354396978
C           -7.33526152721701        2.15460348590687       -1.10560741032853
C           -6.16209060858126        1.46382866482111       -0.86613244419206
C           -6.22736087030516        0.32340888621520       -0.08027719597042
C           -3.20253640782889        0.76901323537973        0.21427842502441
C           -1.84809000880002        0.89869077254661       -0.08161494790871
N           -1.15412915696241        2.07334354181288        0.20634188900285
C            0.06920694416988        2.13361828721847        0.85881751197205
C            0.83351225766374        1.11432285429706        1.40805277604579
C            2.01129962254510        1.45992721554908        2.04419493384482
C            2.42287979254204        2.78588638365648        2.14511807263416
C            1.65359286202486        3.80693803204951        1.62416170643879
C            0.46597300243353        3.48387481093926        0.98030068147760
C           -0.56483002889011        4.27258733402442        0.36201491872363
C           -0.72341409614222        5.63664571503873        0.15391747736579
C           -1.84985887874665        6.07857650407320       -0.51192002230110
C           -2.80090645748850        5.17699859178467       -0.98363010565439
C           -2.66170576155051        3.81523527569668       -0.78932845576101
C           -1.54731974095933        3.36674820450326       -0.09701134266358
C           -1.15901110367889       -0.18392380092738       -0.63383435740613
C            1.55583395324922       -1.87673240493482       -2.22131900340114
C            2.83471098553664       -1.42527708549224       -1.95050244474710
C            4.80414301972427        0.42801296049882       -0.42879846367562
C            3.74831673094267        1.26615311295442       -0.79804184733587
C            3.91680608114367        2.63185149781976       -0.88665069220453
C            5.14510665845142        3.19333081309265       -0.59033331690079
C            6.18194418982759        2.37141382970396       -0.19067246170166
C            6.04022100475988        0.99254605016762       -0.09818941090981
H            6.71070360691832        0.47228549892891        2.47207543795554
H            7.85343551539773        1.65545366864711        1.83435117859507
H            8.39622291469274        0.02219690865596        2.20924440068633
H            9.27900126077772       -0.17125168213587       -0.22193340193147
H            8.15471856134109        0.04998843546537       -1.56283160125522
H            8.67510913291376        1.43595083864640       -0.60398527978654
H            8.83049568408777       -1.86914028924020        1.09402640904205
H            8.41750473785852       -4.27332126762571        1.09649171092877
H            6.21520828671072       -5.13896623739321        0.34494448951932
H            4.46897092322479       -3.58248651496280       -0.34425915326012
H            2.95629762563671       -2.09046015811129        1.37091551278136
H            0.65385676683216       -2.91237950396899        0.86635085892684
H           -3.64956363319441       -2.45976587451998       -0.74954122241376
H           -4.12570957518997       -2.84680975315368        1.55981209128710
H           -5.55602640808527       -4.41901021385522        2.79571019371305
H           -7.97543102919549       -4.06801503254224        2.96736926681079
H           -9.03945923607554       -2.09573361951265        1.92107645358798
H           -9.57531672122844        0.21665440775591        0.55415570932072
H           -9.44781747259759        2.28629710139921       -0.79304826333136
H           -7.30759539412960        3.04759269870592       -1.71253168998388
H           -5.22934386131839        1.79342026715463       -1.29578950047293
H           -3.73302929203245        1.58827508555683        0.67485516422598
H            0.51984902801867        0.08303781732352        1.35537630541790
H            2.62440661837704        0.68328365152317        2.47564700554166
H            3.35234131091923        3.01398601089073        2.64447095052460
H            1.96278346682854        4.83697850157793        1.71632789459994
H            0.02354272703083        6.33309842392481        0.50361137221568
H           -1.99406747019419        7.13544245669260       -0.68086082864106
H           -3.66437559309732        5.54804691519193       -1.51578963351267
H           -3.39308487671052        3.12657425018048       -1.18100616644797
H           -0.12009066898736       -0.08326608736430       -0.89924370595296
H            1.13494062320317       -1.83551521757766       -3.21375496893325
H            3.44850828868427       -1.01313364236079       -2.73701732651509
H            2.77737253098330        0.84764343594547       -1.00768509316151
H            3.08354851630614        3.25300889855663       -1.17880795962227
H            5.29233068094669        4.26072626403993       -0.65594652144453
H            7.12937486666475        2.82355951150284        0.05999381753794
