$hessian                                                                        
        0.4678981369   0.0141485729   0.0082427440  -0.1884613295   0.0463309642
        0.0307857738  -0.0069620060   0.0116363032   0.0062222438   0.0026955886
       -0.0005377695  -0.0003180628  -0.0017979490   0.0024216405   0.0013315982
       -0.0000569447  -0.0053416512  -0.0025959162  -0.0351966984   0.0057421963
        0.0049812865  -0.0010885790   0.0000994068  -0.0006026417   0.0003424746
       -0.0001311711  -0.0000654261   0.0003634040   0.0003159400   0.0001236728
       -0.0000235635   0.0001972699  -0.0001821897   0.0000563508  -0.0000637106
        0.0001876525  -0.0001209671  -0.0000576701  -0.0001697823   0.0000562818
       -0.0004963306   0.0002260920  -0.0001486171   0.0007123249   0.0001046906
        0.0001250411  -0.0001757508  -0.0000776738   0.0000084455   0.0001828426
       -0.0000036117   0.0000523774  -0.0001256341  -0.0000463901  -0.0000319562
        0.0001697420   0.0000749644   0.0000184069  -0.0001481103  -0.0000112983
       -0.0012451752   0.0034584527   0.0021977962   0.0006098868   0.0003719603
       -0.0000030496   0.0000700527   0.0033482576   0.0012707949  -0.0005657270
       -0.0000516873   0.0000603961  -0.0003720804  -0.0033544437  -0.0012202131
        0.0010736342  -0.0002041672  -0.0002028312  -0.0014910427  -0.0041528031
       -0.0013656182   0.0024941173   0.0004615998  -0.0001926728  -0.1076934847
        0.0122667918  -0.1053791927  -0.0454098212  -0.0212352926  -0.0105859984
       -0.0862239643  -0.0658273824   0.0671579728   0.0006553893  -0.0007004726
       -0.0004095766  -0.0000130753  -0.0000946622  -0.0000261472   0.0008876358
        0.0015386490   0.0006265169   0.0000077453  -0.0000139579   0.0000008789
       -0.0000618123  -0.0000267228  -0.0000418531   0.0000062766  -0.0000161866
       -0.0000835563  -0.0000341313   0.0000654622  -0.0000779188  -0.0000569232
       -0.0000925177   0.0000432135  -0.0000250488   0.0000295108   0.0000367268
        0.0000229630  -0.0000940388  -0.0000772587  -0.0000035751  -0.0001368192
        0.0000431703   0.0000003745  -0.0000932076   0.0001128215  -0.0000270731
       -0.0000157053  -0.0000361626  -0.0000332094  -0.0000567469  -0.0000337873
       -0.0000677497  -0.0000973461  -0.0000492040  -0.0000623138  -0.0000384395
       -0.0000169625  -0.0000344073  -0.0001287970   0.0000261623  -0.0000944602
        0.0000095823   0.0000078338   0.0000188682   0.0000782738   0.0000567734
       -0.0000597660  -0.0000765489  -0.0000467804
        0.0141485729   0.5133037291   0.0191691883   0.0560454285  -0.0854368123
       -0.0190906968   0.0243706778  -0.0141627305  -0.0089006834  -0.0008899376
       -0.0035056727  -0.0033076747   0.0002640516  -0.0002060905   0.0001534008
       -0.0019734933   0.0000739741  -0.0028607195  -0.0106705195   0.0046571371
        0.0011494734  -0.0009488886   0.0003701563   0.0000953286   0.0001969801
        0.0000499600   0.0002600993  -0.0000263848  -0.0000569999  -0.0000946128
        0.0000078311  -0.0000393181   0.0001006609   0.0000015347   0.0000158266
       -0.0000588103  -0.0000052154   0.0000227132   0.0000515781  -0.0000217239
        0.0000131396  -0.0001032165  -0.0000788097  -0.0001173562   0.0000125135
        0.0000067825   0.0001493734   0.0000538887   0.0000334141  -0.0000667608
        0.0000902846  -0.0000145360   0.0000665383  -0.0000503118   0.0000547933
       -0.0001305522  -0.0000193935   0.0000042551   0.0001014228  -0.0001771270
        0.0002805549  -0.0003745356  -0.0003059423  -0.0002328030  -0.0000745461
        0.0003768377   0.0001546303  -0.0003135390  -0.0000785989  -0.0000347142
        0.0000366237  -0.0001000891  -0.0000648162   0.0001715100   0.0001042051
        0.0001949957   0.0000246417  -0.0001295225  -0.0003135246   0.0001901940
       -0.0000304519   0.0001738507   0.0001868881   0.0003485331   0.0109210156
       -0.0445544448   0.0144560616  -0.0216530326  -0.2375767923  -0.0935325947
       -0.0705173578  -0.1336201565   0.0905186054   0.0011536703   0.0008057962
        0.0008315756   0.0012831680  -0.0006919002  -0.0004364704  -0.0016755947
        0.0005516033   0.0014546943   0.0000061090  -0.0000046844   0.0000038522
       -0.0000124506  -0.0000024851  -0.0000150064   0.0000029407   0.0000091050
       -0.0000136360   0.0000037079   0.0000232417  -0.0000158913  -0.0000000030
        0.0000044671  -0.0000058242  -0.0000534110   0.0000156394   0.0000290513
       -0.0000131462  -0.0000058559   0.0000266440  -0.0000162509   0.0000106115
        0.0000116470  -0.0000053975   0.0000152615   0.0000028069  -0.0000117073
        0.0000125305   0.0000170619   0.0000079988   0.0000088863   0.0000021472
       -0.0000221829  -0.0000064278  -0.0000075433   0.0000189264   0.0000082258
        0.0000032961   0.0000288627   0.0000165889  -0.0000057276   0.0000052677
        0.0000034288   0.0000244889  -0.0000127807   0.0000197940   0.0000146877
       -0.0001013385   0.0000086530  -0.0000220675
        0.0082427440   0.0191691883   0.4838092601   0.0347837437  -0.0185918153
       -0.0653227635   0.0128962504  -0.0083560781  -0.0042766921  -0.0006790679
       -0.0034180072   0.0014309877   0.0003155423   0.0000914790  -0.0004727495
       -0.0013470286  -0.0026340545   0.0045680996  -0.0025574673   0.0003926663
        0.0039886670   0.0005339476  -0.0002893708   0.0003032870  -0.0004330757
        0.0000039594   0.0001202122  -0.0000721654   0.0000086812  -0.0000463724
        0.0000201502  -0.0000604592  -0.0000421375  -0.0000480661  -0.0000697424
       -0.0000300788   0.0001007654   0.0000392321   0.0000858554  -0.0000715002
        0.0000473681  -0.0000124036   0.0001534662   0.0005813406  -0.0000661304
        0.0000965362  -0.0002753201  -0.0001315351  -0.0000463210   0.0001652411
       -0.0001890251   0.0000457395  -0.0001878803   0.0000428942  -0.0000905316
        0.0002250580   0.0000415758   0.0000059279  -0.0002214033   0.0002434021
       -0.0002345572  -0.0003620149  -0.0002072745  -0.0000821651   0.0002376353
       -0.0005895287  -0.0000828671  -0.0003638149  -0.0002671281   0.0000928852
       -0.0000708050   0.0001920398  -0.0000689671   0.0004305441   0.0001095296
        0.0000836936  -0.0000734807   0.0001585256  -0.0000517266   0.0003050170
        0.0003342850   0.0000135259   0.0003429189  -0.0003436531  -0.1101706772
        0.0159764661  -0.2002412673  -0.0107125622  -0.0936157367  -0.0898439139
        0.0692209497   0.0885251849  -0.1313766519   0.0005125427   0.0009231896
       -0.0005330319   0.0006573821  -0.0003617562  -0.0002069119  -0.0010057710
        0.0014404514  -0.0014126293  -0.0000283178   0.0000065782   0.0000172374
        0.0000033461  -0.0000040938  -0.0000078308  -0.0000178166   0.0000020391
        0.0000120890   0.0000029678  -0.0000195146   0.0000149851   0.0000260254
       -0.0000064709   0.0000052599   0.0000185180   0.0000159206   0.0000340537
       -0.0000012449  -0.0000087599   0.0000146861   0.0000080401   0.0000043528
        0.0000197344  -0.0000097775   0.0000044344   0.0000081336  -0.0000003678
        0.0000168186   0.0000196491   0.0000047158   0.0000109882   0.0000154701
        0.0000594590   0.0000319642   0.0000024196   0.0000144091   0.0000054540
        0.0000019950  -0.0000481053  -0.0000063500   0.0000064261   0.0000073681
        0.0000121847  -0.0000267359  -0.0000091681   0.0000061816  -0.0000103091
       -0.0000513266  -0.0000256091   0.0000559942
       -0.1884613295   0.0560454285   0.0347837437   0.6007492095   0.0057857321
       -0.0215083947  -0.0677706345   0.0323559879   0.0182349226  -0.0302589257
        0.0117736190   0.0076642508   0.0261052170   0.0145909297   0.0056851204
       -0.0998820264  -0.0004874930   0.0082234031  -0.1823999324  -0.1198642315
       -0.0567625193   0.0027349248   0.0067326408   0.0082126926  -0.0051791346
        0.0035628219   0.0007944198  -0.0001891105  -0.0015443616   0.0000886535
        0.0013323577  -0.0002204486  -0.0006560301  -0.0007159692  -0.0009564180
       -0.0005719405   0.0008672226   0.0003906196   0.0010378297   0.0006042965
        0.0004060599  -0.0009453132  -0.0003943999   0.0031688420   0.0005981536
        0.0013265241  -0.0008857734  -0.0013136767   0.0000304791   0.0002107988
        0.0001311612   0.0007184770  -0.0014118157  -0.0012116501  -0.0006957992
        0.0021309942   0.0007605736  -0.0001004391  -0.0007718921   0.0015070486
        0.0019354988  -0.0055229499  -0.0061638495  -0.0050031530  -0.0007658962
        0.0000158289   0.0011605550  -0.0050827213  -0.0025313412   0.0008362977
        0.0000082285   0.0001187532  -0.0019601049   0.0032755357   0.0014484459
        0.0032327124   0.0005420927  -0.0004091984  -0.0020048046   0.0030643424
        0.0014636319  -0.0004345840   0.0015835152   0.0006972343  -0.0271573727
        0.0072118000  -0.0003612602   0.0005986760   0.0030284920   0.0016320880
       -0.0245062427   0.0019326951   0.0080895533  -0.0009393414  -0.0223128032
       -0.0111981988  -0.0045538765   0.0026386327   0.0020964071   0.0002820120
       -0.0017241622  -0.0001680434  -0.0002591336   0.0002384781   0.0000343233
       -0.0000382314   0.0000683709   0.0001269562  -0.0000971297   0.0000431650
        0.0001024297  -0.0000091142  -0.0000328718   0.0001727470  -0.0003144168
        0.0001653207  -0.0001984938   0.0000749393  -0.0002028165  -0.0001320944
       -0.0000011089   0.0000701485  -0.0000139740  -0.0000061246   0.0000117856
       -0.0000487124  -0.0000845638   0.0000625697  -0.0000689958   0.0000445623
       -0.0001289310   0.0000175929   0.0000654391   0.0002508011   0.0002028700
        0.0002558894   0.0002017940   0.0001846846   0.0000845966   0.0000761011
        0.0000205884   0.0000538830   0.0002172969  -0.0000842077   0.0001796570
       -0.0000507125  -0.0000060908  -0.0000205488  -0.0001937382  -0.0000160238
        0.0001641258   0.0003143965   0.0002239009
        0.0463309642  -0.0854368123  -0.0185918153   0.0057857321   0.4404935908
        0.1612188988  -0.0117099555  -0.1806143029  -0.0679061482   0.0194556059
       -0.0433068846  -0.0241173832   0.0144726133   0.0309811336   0.0186007082
       -0.0523869284  -0.0038594128   0.0052531228  -0.0242625148  -0.1294439765
       -0.0474721866   0.0086157459   0.0052213864   0.0006838554  -0.0054760349
        0.0021073385  -0.0092028250   0.0047469002   0.0027644771   0.0055698523
        0.0012097807   0.0030752577  -0.0055499069   0.0006585035  -0.0013486302
        0.0038437154  -0.0022074392  -0.0015967509  -0.0044366964   0.0001577281
       -0.0060319684   0.0047055596  -0.0016769952   0.0032773936  -0.0005882095
        0.0005154624  -0.0002812170  -0.0004979724   0.0003078731   0.0003741705
        0.0002682832   0.0001773906  -0.0003869915  -0.0001582712   0.0000347733
        0.0008775592  -0.0000536408   0.0000655339  -0.0004347198   0.0012922398
       -0.0077542279   0.0232704014   0.0125377486   0.0056962149   0.0010770049
       -0.0022157589  -0.0019511015   0.0228970354   0.0089711899  -0.0024612219
       -0.0004952577   0.0003812942  -0.0002936628  -0.0223414418  -0.0084161637
        0.0021926957   0.0000627745   0.0002766904  -0.0017635891  -0.0275777717
       -0.0095712051   0.0061564378   0.0017879361  -0.0007183747   0.0053532046
        0.0005776136   0.0010450851   0.0244522155  -0.0145936569  -0.0089192291
       -0.0132363214   0.0089367068   0.0032695996  -0.0020192365  -0.0141737208
       -0.0078703095   0.0011821972   0.0026710605  -0.0034711353  -0.0205880519
       -0.0177783525  -0.0085779332  -0.0001071842   0.0003891255   0.0001571249
       -0.0000991884   0.0002801610   0.0000095428   0.0000390993  -0.0000470837
        0.0001607691  -0.0003668929  -0.0000890245   0.0002664275  -0.0002096600
       -0.0004429708   0.0004092215  -0.0000457765  -0.0003496878   0.0001866563
       -0.0000707860   0.0001190548   0.0001505641  -0.0000391697   0.0001824729
       -0.0000633100  -0.0001889317   0.0001140350  -0.0002596937   0.0001687524
       -0.0002537444   0.0000608912  -0.0000232690   0.0002123265  -0.0000938723
        0.0005504436  -0.0005490931  -0.0000800556   0.0001819320   0.0001073996
        0.0000859784   0.0004325247  -0.0003787013  -0.0005741535  -0.0001106633
       -0.0000886571   0.0001146291   0.0000000570  -0.0000655490  -0.0000669752
        0.0001084208   0.0001089638  -0.0000464225
        0.0307857738  -0.0190906968  -0.0653227635  -0.0215083947   0.1612188988
        0.2087366562  -0.0046186219  -0.0705542179  -0.0808629480   0.0110243423
       -0.0234324514  -0.0121241118   0.0060891283   0.0187707087   0.0030208425
       -0.0217165738  -0.0019840854   0.0024143307  -0.0048308355  -0.0398967062
       -0.0624576312   0.0034099763  -0.0005538518   0.0057047432  -0.0013437212
        0.0016327112  -0.0039793163   0.0025269406   0.0013510014   0.0029733504
        0.0005617527   0.0015352455  -0.0025625721   0.0004753374  -0.0004645481
        0.0019400497  -0.0012164833  -0.0008916469  -0.0023625638   0.0001673424
       -0.0028080884   0.0023223743  -0.0008931807   0.0007965596  -0.0009207018
        0.0000771639  -0.0000094336   0.0000806776   0.0002401504   0.0002112949
        0.0000641444  -0.0000635833   0.0000457191   0.0002331666   0.0001949749
        0.0002107726  -0.0002777872   0.0000657572  -0.0003240523   0.0007839177
       -0.0039744352   0.0118153245   0.0063401302   0.0027956521   0.0004409550
       -0.0005726965  -0.0008971162   0.0117857087   0.0047364976  -0.0013313036
       -0.0001895813   0.0000421912  -0.0001188168  -0.0115868626  -0.0043504176
        0.0011019178  -0.0000089104   0.0001313300  -0.0009417196  -0.0141118580
       -0.0050023619   0.0032054457   0.0009560903  -0.0005626794  -0.0194770636
        0.0084820961   0.0072458934   0.0120131672  -0.0076100472  -0.0041275168
        0.0185182292  -0.0051637788  -0.0040325250  -0.0009098434  -0.0067113016
       -0.0018751580   0.0014001169  -0.0034622317   0.0074566788  -0.0106937569
       -0.0099821198  -0.0028254288  -0.0000316554   0.0001643287   0.0000651314
       -0.0000465316   0.0001366410   0.0000325003   0.0000328216  -0.0000265863
        0.0000680651  -0.0001878694  -0.0000317628   0.0001163226  -0.0001979449
       -0.0001985254   0.0000963791  -0.0000950874  -0.0001839378   0.0000929023
       -0.0000255202   0.0000590201   0.0000877128  -0.0000390325   0.0000907170
       -0.0000294733  -0.0001221148   0.0000500211  -0.0001349150   0.0000661810
       -0.0001293585   0.0000270739  -0.0000084041   0.0001017207  -0.0000579273
        0.0002333864  -0.0003002115  -0.0000584980   0.0000878226   0.0000497355
        0.0000386865   0.0002527505  -0.0001837193  -0.0002998772  -0.0000676789
       -0.0000340781   0.0000504919   0.0000044288  -0.0000223965  -0.0000306004
        0.0000267291   0.0000417760  -0.0000717693
       -0.0069620060   0.0243706778   0.0128962504  -0.0677706345  -0.0117099555
       -0.0046186219   0.7048186926  -0.0017691366  -0.0352282235  -0.3129013916
        0.1358799883   0.0849555292  -0.0772881490  -0.0269140497  -0.0091074550
        0.0035393198   0.0124209747   0.0051521233  -0.0056083181  -0.0239472161
       -0.0114030727  -0.0007439082  -0.0001702090  -0.0010563235   0.0019035879
       -0.0015317022  -0.0039882408   0.0016800737   0.0016234341   0.0019138665
       -0.0004458871   0.0011293735  -0.0012241459   0.0006704421   0.0003275340
        0.0014921596  -0.0012481969  -0.0008223461  -0.0019361370  -0.0004080852
       -0.0018619166   0.0018308141   0.0007911984  -0.0017581191  -0.0007402431
       -0.0006741427   0.0006940798   0.0007046395  -0.0000041681  -0.0001853220
       -0.0001167847  -0.0004277724   0.0008090230   0.0007784898   0.0004301993
       -0.0011358674  -0.0006609910   0.0000981717   0.0005641469  -0.0002046076
       -0.0047113805   0.0049076368   0.0048611074   0.0065774475   0.0011063086
       -0.0009586091  -0.0022248414   0.0070274854   0.0034002924  -0.0009714790
       -0.0000686252   0.0000878795   0.0042075152  -0.0041182730  -0.0020377754
       -0.0075216247  -0.0003175162   0.0012910009   0.0064383228  -0.0037344706
       -0.0019715766  -0.0071261026  -0.0055094732  -0.0017965102   0.0009615585
        0.0008948092   0.0010724307  -0.0048780324   0.0028612189   0.0017914721
        0.0008007230   0.0013341703   0.0000443259  -0.2237811569  -0.1095377044
       -0.0450100810  -0.0030503687   0.0030397174   0.0019114048  -0.0035924618
       -0.0030008643  -0.0012988830   0.0001446570  -0.0000200269  -0.0000387151
        0.0000233460   0.0000399217   0.0000559762   0.0000985320  -0.0000527057
        0.0000098373  -0.0000309337  -0.0000309251  -0.0000447581  -0.0001231781
       -0.0001478165   0.0000081579   0.0000196569   0.0000214954   0.0000674506
       -0.0000182133   0.0000042855  -0.0000011643   0.0000224668   0.0000121968
        0.0000149492   0.0000138617  -0.0000045077  -0.0000093777   0.0000120397
        0.0000408470  -0.0001041557  -0.0001115751  -0.0000692563  -0.0001735330
       -0.0001758083  -0.0002386350  -0.0001503570  -0.0001118037  -0.0000001711
        0.0000065454  -0.0000817920  -0.0002694599   0.0000088043  -0.0001661526
        0.0000283456  -0.0000537682  -0.0000218235   0.0000742637  -0.0001319461
       -0.0000704248  -0.0002856628  -0.0002894498
        0.0116363032  -0.0141627305  -0.0083560781   0.0323559879  -0.1806143029
       -0.0705542179  -0.0017691366   0.4560016580   0.1822395946   0.0861772395
       -0.1112199471  -0.0425602153   0.0012037030  -0.0068695475  -0.0047624362
        0.0217337175   0.0122843688   0.0045034967  -0.0532347352  -0.0322745315
       -0.0129486207  -0.0025704291  -0.0018580098   0.0009370694   0.0015987334
       -0.0001070955   0.0106941517  -0.0056195166  -0.0041640332  -0.0063724678
       -0.0003831680  -0.0036757037   0.0057183499  -0.0013683020   0.0006815329
       -0.0048792341   0.0031820948   0.0021755476   0.0058771393   0.0002599948
        0.0068486356  -0.0060733140   0.0010688155  -0.0011502026   0.0011662255
        0.0001482028  -0.0007388257  -0.0007376022  -0.0004155847  -0.0000964038
       -0.0002059051   0.0003859882  -0.0006779714  -0.0006380151  -0.0005331815
        0.0005244185   0.0007055710  -0.0001265424  -0.0000069370  -0.0006069504
        0.0117198988  -0.0264019645  -0.0169631399  -0.0107442221  -0.0017525713
        0.0021897257   0.0036944688  -0.0276236232  -0.0115075028   0.0031381048
        0.0004635526  -0.0001975083  -0.0024212003   0.0250308072   0.0096976066
        0.0023370345  -0.0001344775  -0.0010623862  -0.0039648428   0.0307445611
        0.0112881523  -0.0081467653  -0.0008605303  -0.0004178734  -0.0021686376
       -0.0001092532  -0.0015943319   0.0019519460  -0.0003742508  -0.0010948504
       -0.0017842093  -0.0013995798   0.0004095287  -0.1086997841  -0.1072244996
       -0.0326886227   0.0248166794  -0.0132389697  -0.0086829707  -0.0029004475
        0.0007503808  -0.0031330335  -0.0000593202  -0.0002290719  -0.0001214774
        0.0000704498  -0.0002610006   0.0000468631  -0.0001176959   0.0000885726
       -0.0001228833   0.0003990016   0.0001107231  -0.0001800905   0.0001820676
        0.0005962741  -0.0003185181   0.0000040848   0.0002589988   0.0000153491
        0.0000513769  -0.0000898181  -0.0001777159   0.0000412025  -0.0002382027
        0.0000778951   0.0001253380  -0.0001071875   0.0002849228  -0.0001612103
        0.0002036635  -0.0000058855   0.0000934690  -0.0001125846   0.0002551609
       -0.0003777912   0.0007353127   0.0002089330  -0.0001372497  -0.0000855456
       -0.0000919874  -0.0004462128   0.0005283014   0.0005758040   0.0001939744
        0.0000741323  -0.0001033950   0.0000243697  -0.0000032006   0.0001205040
       -0.0004440618  -0.0002388680   0.0001471863
        0.0062222438  -0.0089006834  -0.0042766921   0.0182349226  -0.0679061482
       -0.0808629480  -0.0352282235   0.1822395946   0.1942700644   0.0601776519
       -0.0456647861  -0.0634560645   0.0047948131  -0.0029364206  -0.0003418168
        0.0111963563   0.0067752375  -0.0007903621  -0.0277059644  -0.0156272491
       -0.0054099506  -0.0013730917  -0.0005119801  -0.0001153591   0.0007699898
       -0.0002274806   0.0053759225  -0.0028615772  -0.0021405301  -0.0032539996
       -0.0002004845  -0.0018220157   0.0028410704  -0.0007230354   0.0002872463
       -0.0024510817   0.0016015973   0.0011087304   0.0030088688   0.0002155469
        0.0035337355  -0.0029925399   0.0002012779  -0.0006132178   0.0010032371
        0.0002283656  -0.0000965474  -0.0005511526  -0.0001942873  -0.0002857988
        0.0002159161   0.0002959648  -0.0003827852  -0.0007109102  -0.0003320619
        0.0002803118   0.0005487290  -0.0000649339   0.0001884876  -0.0006100572
        0.0061188669  -0.0137060102  -0.0086369886  -0.0055400400  -0.0010113146
        0.0013241643   0.0019018947  -0.0143024029  -0.0059315410   0.0016238335
        0.0002705785  -0.0001789484  -0.0012825333   0.0129077036   0.0050892457
        0.0012687972   0.0000207755  -0.0007032852  -0.0022543085   0.0154990217
        0.0061187523  -0.0035657071  -0.0017663279   0.0029852175  -0.0007850791
       -0.0006130927  -0.0003443951   0.0013039941  -0.0010983330   0.0009071251
       -0.0012122021  -0.0008539749   0.0009617981  -0.0444098914  -0.0327089089
       -0.0447642311   0.0128727055  -0.0073867220  -0.0036457483  -0.0009817656
       -0.0032090182   0.0051195571  -0.0000428339  -0.0001218413  -0.0000716994
        0.0000263923  -0.0001370803   0.0000141993  -0.0000653993   0.0000410995
       -0.0000686988   0.0001991851   0.0000527837  -0.0000730380   0.0000553637
        0.0002718315  -0.0001979688  -0.0000050557   0.0001403750  -0.0000126547
        0.0000179664  -0.0000433566  -0.0000969617   0.0000123191  -0.0001261166
        0.0000318221   0.0000929986  -0.0000463831   0.0001577953  -0.0000929173
        0.0000949765   0.0000225701   0.0000504426  -0.0000513054   0.0001382904
       -0.0002008070   0.0003796694   0.0001191048  -0.0000630740  -0.0000438455
       -0.0000432283  -0.0002062649   0.0002819264   0.0002973409   0.0001081633
        0.0000373407  -0.0000443545   0.0000150809  -0.0000099287   0.0000878211
       -0.0002151950  -0.0000598199  -0.0000019358
        0.0026955886  -0.0008899376  -0.0006790679  -0.0302589257   0.0194556059
        0.0110243423  -0.3129013916   0.0861772395   0.0601776519   0.6138350933
       -0.0569558264  -0.0586613955  -0.1583348593  -0.0446023947  -0.0159864536
       -0.0196415909  -0.0310105287  -0.0118864897   0.0384348889   0.0103180998
        0.0014511078   0.0034851073   0.0030081557   0.0048740896  -0.0054293465
        0.0039200874   0.0067684703  -0.0030059742  -0.0031749338  -0.0030419633
        0.0012286864  -0.0020567510   0.0017996265  -0.0013581526  -0.0008570759
       -0.0026864330   0.0025096813   0.0015991377   0.0036569894   0.0008781629
        0.0030585419  -0.0032603189  -0.0018139982   0.0032631788   0.0014873399
        0.0012724540  -0.0011990174  -0.0015780882  -0.0000033060   0.0002456168
        0.0003826271   0.0009395709  -0.0016608749  -0.0016500556  -0.0008875064
        0.0022879574   0.0013240021  -0.0001500630  -0.0008643626   0.0004759520
        0.0098288129  -0.0086053964  -0.0099794319  -0.0140815136  -0.0026393458
        0.0016099415   0.0044587400  -0.0133922085  -0.0066329165   0.0021245298
        0.0000680310  -0.0001380438  -0.0095076370   0.0073438402   0.0038677268
        0.0137337779  -0.0001646347  -0.0026740131  -0.0170114621   0.0108022363
        0.0060565615  -0.0473171130  -0.0049355901  -0.0007238733  -0.0013311942
        0.0001534688  -0.0004397276  -0.0000665622  -0.0002502888  -0.0000964640
       -0.0011161363  -0.0002517205   0.0005996380  -0.0276621606   0.0078222046
        0.0059325423  -0.0451728845   0.0147082571   0.0079870582  -0.0004134944
       -0.0004300584   0.0003954780  -0.0003144699   0.0001969666   0.0000738165
       -0.0000097874  -0.0000123667  -0.0000040991  -0.0001816903   0.0001232754
        0.0000790528   0.0000638760   0.0000370591   0.0001462325  -0.0001653206
        0.0002982449  -0.0005277770  -0.0000312329  -0.0000421341  -0.0000179921
        0.0000218272   0.0000393398  -0.0000238458  -0.0000263668  -0.0000443498
       -0.0000281497  -0.0000478319  -0.0000019887   0.0000129470  -0.0000353443
       -0.0001457361   0.0001789058   0.0002421348   0.0002132095   0.0004112508
        0.0004764397   0.0005237323   0.0004294308   0.0001717381   0.0000324168
       -0.0000024813   0.0002077084   0.0006238928  -0.0000932060   0.0002360495
       -0.0001872597   0.0000429623   0.0002245080  -0.0005352769   0.0000963478
        0.0012079405  -0.0014097379  -0.0005298048
       -0.0005377695  -0.0035056727  -0.0034180072   0.0117736190  -0.0433068846
       -0.0234324514   0.1358799883  -0.1112199471  -0.0456647861  -0.0569558264
        0.5245970170   0.2187615527  -0.0963280403  -0.1218263929  -0.0356871463
       -0.0297775952  -0.0255219674  -0.0106189008   0.0251988039   0.0065266326
        0.0019141199   0.0018433365  -0.0025476049  -0.0007379964  -0.0026492858
        0.0010186228  -0.0004319259  -0.0000031019  -0.0000216316   0.0003614060
        0.0004130581   0.0000344741  -0.0006035562  -0.0000780766  -0.0002922775
        0.0001782051   0.0001469017   0.0000354725  -0.0001631557   0.0001786628
       -0.0005480955   0.0002882376  -0.0013387566   0.0015845651  -0.0002646956
        0.0004872384  -0.0005710063  -0.0003922071   0.0001591755   0.0002848431
        0.0000013304   0.0002267184  -0.0005104246  -0.0002738710  -0.0001467068
        0.0008172385   0.0002486343  -0.0000912285  -0.0005593899   0.0005344938
        0.0017171977  -0.0005694353  -0.0016357202  -0.0020991658  -0.0006681171
        0.0002085724   0.0003115510  -0.0013370283  -0.0007067642   0.0004029872
        0.0000392280  -0.0001087545  -0.0015881093  -0.0000331254   0.0002421413
        0.0034346508   0.0010390867  -0.0010829648  -0.0005341231  -0.0008673297
       -0.0015222977   0.0073999715   0.0094211153   0.0045469713  -0.0005606311
        0.0003203211   0.0001055872   0.0011970673  -0.0005612157  -0.0004505520
       -0.0000473079   0.0002382834   0.0001573215  -0.0137562320   0.0048716365
        0.0033046578   0.0127876261  -0.2386425029  -0.1062166834   0.0001269487
        0.0004142086   0.0005150113  -0.0000284730   0.0001618993   0.0000259178
        0.0000236028   0.0000561227   0.0000290293  -0.0000288205   0.0000422968
        0.0000887083  -0.0000319144  -0.0000076007   0.0000679670  -0.0001381369
        0.0001124561  -0.0002069707  -0.0000220934  -0.0000442954   0.0000125793
        0.0000100506   0.0000125706  -0.0000187300  -0.0000327130  -0.0000304950
       -0.0000172317  -0.0000296589  -0.0000223859   0.0000062007   0.0000058254
       -0.0000709994   0.0000461788   0.0001317972   0.0001739014   0.0001241403
        0.0001423595   0.0000872408   0.0001496315   0.0000392241   0.0000543840
        0.0000220942   0.0001093825   0.0001528714  -0.0000849211   0.0002434426
       -0.0000896798   0.0001794266   0.0000573873  -0.0001176129  -0.0000168997
        0.0023551916   0.0013966303   0.0016370731
       -0.0003180628  -0.0033076747   0.0014309877   0.0076642508  -0.0241173832
       -0.0121241118   0.0849555292  -0.0425602153  -0.0634560645  -0.0586613955
        0.2187615527   0.2156203153  -0.0421427804  -0.0371676561  -0.0558115991
       -0.0137305908  -0.0122749311  -0.0048649878   0.0107832343   0.0034713403
       -0.0001850105   0.0005514933  -0.0021535041   0.0006264128  -0.0004797350
        0.0002356030   0.0010012707   0.0001682099  -0.0001335849  -0.0001608391
        0.0002065208  -0.0001366469  -0.0001639976  -0.0000319813  -0.0000783493
        0.0000208759   0.0000656004  -0.0000130191   0.0000568865   0.0000510044
        0.0001780078  -0.0000689411  -0.0007283484  -0.0017072652  -0.0003007567
       -0.0002963181   0.0009337062   0.0004673157   0.0000855431  -0.0005333205
        0.0004396670  -0.0001382566   0.0005332815   0.0000159513   0.0003175707
       -0.0007579285  -0.0002064119   0.0001436355   0.0006301491  -0.0005310991
       -0.0000956121   0.0004099937   0.0002537546  -0.0001190307  -0.0000256055
       -0.0004640666  -0.0001538094   0.0004152484   0.0001858608   0.0001271964
       -0.0000594175   0.0001670289  -0.0002753017  -0.0005306328  -0.0003791988
        0.0009627495  -0.0003466045   0.0014481635   0.0010356833  -0.0027231222
        0.0018302797   0.0068350934   0.0052732626   0.0009758373   0.0003008375
        0.0000346921   0.0000950954   0.0006472371  -0.0003732523  -0.0000529261
       -0.0004442528   0.0002029358   0.0001842894  -0.0054291348   0.0020457170
        0.0013458229   0.0072639402  -0.1062740505  -0.0857255964   0.0001097259
        0.0002820703   0.0001373830  -0.0000492023   0.0000635730   0.0000197400
       -0.0000235234   0.0000368496   0.0000081197  -0.0000146100   0.0000099129
        0.0000254861   0.0000064985  -0.0000120167   0.0000280682  -0.0002521053
       -0.0001095398  -0.0002528553  -0.0000195443   0.0000138442   0.0000483711
       -0.0000176074   0.0000278212   0.0000152209   0.0000003452   0.0000211316
       -0.0000045623  -0.0000185272  -0.0000048107  -0.0000279759  -0.0000238224
       -0.0000854135  -0.0000554252   0.0000192629   0.0000424667   0.0000079145
        0.0000938056   0.0000327346   0.0000406669   0.0000008557   0.0000109286
        0.0000013012  -0.0000187792   0.0000189677  -0.0000338629   0.0000025138
        0.0001386651  -0.0003771535   0.0000461409  -0.0000167029   0.0000564013
        0.0010378538   0.0016781922  -0.0013070462
       -0.0017979490   0.0002640516   0.0003155423   0.0261052170   0.0144726133