$hessian                                                                        
        0.2356172236  -0.4820281066  -0.0332211784  -0.2394566294   0.4548230746
        0.0321691206   0.0042441501   0.0296626296   0.0017645955   0.0047145959
       -0.0025704641  -0.0000413283   0.0005867748   0.0014095261  -0.0000044405
        0.0003403329  -0.0006290464   0.0000530834   0.0002195931   0.0018093986
        0.0000349048  -0.0061216323  -0.0010887509  -0.0000068738   0.0000328424
       -0.0001926079  -0.0001699838   0.0000154501  -0.0001720600  -0.0000756321
       -0.0000091061  -0.0001171309  -0.0000089911  -0.0003354466   0.0000288228
        0.0002242474   0.0003616304  -0.0002378376   0.0000345637   0.0001001255
        0.0000546802   0.0000646715  -0.0000179520  -0.0000011336  -0.0000004285
       -0.0000297339  -0.0000165449  -0.0000012947   0.0000065135  -0.0000424157
       -0.0000032557   0.0000222348   0.0000173219   0.0000027641  -0.0000092062
       -0.0000066345  -0.0000031364   0.0000014609   0.0000018373   0.0000019707
       -0.0000036263  -0.0000026827  -0.0000006146  -0.0000000649   0.0000061359
       -0.0000044908  -0.0000165220  -0.0000082809  -0.0000029196   0.0000236072
        0.0000483291  -0.0000126679  -0.0000904814  -0.0000516100  -0.0000072368
        0.0000922065   0.0000110253   0.0000003638  -0.0000477200   0.0000257981
        0.0000102096  -0.0000328671  -0.0000161817  -0.0000078439  -0.0000108319
       -0.0000286948   0.0000034303   0.0000142757   0.0000050155  -0.0000240805
        0.0000018117  -0.0000112713   0.0000031881  -0.0000020340  -0.0000071057
        0.0000005401   0.0000073064  -0.0000009899  -0.0000067106  -0.0000055310
        0.0000141078  -0.0000061414   0.0000213255  -0.0000170568   0.0000001580
        0.0002738706   0.0000831306   0.0000051210  -0.0001774556   0.0002243934
       -0.0000338551   0.0005377865  -0.0001000737  -0.0000821564  -0.0006248123
       -0.0002512409  -0.0012484297   0.0003831989  -0.0002321547  -0.0000083259
        0.0000406357  -0.0000646283  -0.0000200260   0.0000141744   0.0000426654
       -0.0000070036  -0.0001995587   0.0005152831   0.0000030577  -0.0000756873
       -0.0000399781   0.0001430626   0.0000198995   0.0000100475   0.0000172333
        0.0000005347   0.0000141452   0.0000009453  -0.0000062911  -0.0000168240
        0.0000003598  -0.0000004633  -0.0000012749   0.0000045367  -0.0000062533
       -0.0000017547  -0.0000007002  -0.0000079939  -0.0000049570   0.0000013066
       -0.0000048938  -0.0000079064   0.0000044903  -0.0000004064   0.0000011008
        0.0000013254  -0.0000032757  -0.0000031435   0.0000008043  -0.0000252479
       -0.0000105091   0.0000007865  -0.0000039627  -0.0000075383   0.0000184258
       -0.0000023280   0.0000032708  -0.0000004151  -0.0000120618   0.0000087093
        0.0000027534  -0.0000137403   0.0000017231   0.0000075273  -0.0000034719
       -0.0000034779   0.0000027451   0.0000102607  -0.0000548958  -0.0000015511
       -0.0000413187  -0.0000490426  -0.0000138684   0.0001103075  -0.0000454262
        0.0001243249  -0.0004155217  -0.0006807389   0.0003189634
       -0.4820281066   1.0831374489   0.0752030218   0.4563191500  -1.0401817585
       -0.0701746321   0.0284090937  -0.0426674611  -0.0039712992  -0.0097688049
       -0.0019901505   0.0001740030   0.0015171553  -0.0033335328   0.0001167333
        0.0000795802   0.0020389414  -0.0000449932   0.0007829344  -0.0014067684
       -0.0001153347   0.0062425242   0.0063107990  -0.0001448184  -0.0012647020
        0.0000913490   0.0001714713   0.0003981364   0.0008831742  -0.0000172106
       -0.0005016875   0.0004322520  -0.0002475445   0.0014155646  -0.0001045580
        0.0000186796  -0.0014479377   0.0002847963   0.0000311422   0.0002672370
        0.0004587221  -0.0001348076  -0.0000075636  -0.0001789614  -0.0000201521
        0.0001375014   0.0000707178   0.0000258329  -0.0000956667   0.0000769496
        0.0000057691   0.0000365415   0.0000441784  -0.0000033775  -0.0000104401
       -0.0000298193   0.0000007142   0.0000248243   0.0000057104   0.0000129729
        0.0000055935   0.0000041559  -0.0000007390   0.0000106147   0.0000113253
       -0.0000095499  -0.0000085658  -0.0000079049   0.0000084141  -0.0000158176
       -0.0000970609   0.0000068129  -0.0000632064   0.0001724155   0.0000110869
       -0.0002205524  -0.0001566272  -0.0000076767   0.0000239382   0.0000426807
       -0.0000023723  -0.0000638973  -0.0000005491   0.0000055353   0.0000704238
       -0.0000571247  -0.0000070122  -0.0000604696   0.0000172647   0.0000352513
        0.0000127717  -0.0000232762   0.0000195627  -0.0000002221   0.0000167119
       -0.0000002471   0.0000098469  -0.0000097296  -0.0000015252  -0.0000130306
        0.0000300960   0.0000109269   0.0000861621  -0.0001175054  -0.0000366782
       -0.0001597019   0.0001526643   0.0000199202   0.0004874438  -0.0007010073
        0.0001227957  -0.0003970500  -0.0004683942   0.0001422567  -0.0003513406
       -0.0013066589  -0.0002865936   0.0003175796   0.0001840830  -0.0000171918
        0.0004278847  -0.0005068296  -0.0000264952   0.0000521396  -0.0000724579
        0.0000120059   0.0000984575  -0.0002835461  -0.0000482688   0.0000931998
        0.0000198466  -0.0001903221  -0.0000469516  -0.0001052904  -0.0000126166
       -0.0000078823   0.0000423448   0.0000037182   0.0000037079  -0.0000037808
       -0.0000080357   0.0000100462   0.0000024753   0.0000044436  -0.0000098018
       -0.0000019161  -0.0000093358  -0.0000026101  -0.0000094495  -0.0000027488
        0.0000045821  -0.0000082177   0.0000024115   0.0000050873   0.0000077346
       -0.0000136795  -0.0000270069   0.0000010629   0.0000053860  -0.0000072717
        0.0000118342  -0.0000101773   0.0000044380  -0.0000033582  -0.0000134340
       -0.0000070977   0.0000278959  -0.0000144904  -0.0000069084   0.0000075947
       -0.0000037660  -0.0000054658   0.0000052221  -0.0000012648   0.0000114852
        0.0000059382  -0.0000178009  -0.0000267708   0.0000857913   0.0000102475
        0.0000206050  -0.0000634429   0.0000059284  -0.0000633485   0.0000293609
       -0.0000815743  -0.0006963717  -0.0008164004  -0.0004892779
       -0.0332211784   0.0752030218   0.0225027020   0.0326779923  -0.0706698442
       -0.0379072294   0.0015333069  -0.0032238026   0.0154822558  -0.0006099585
       -0.0001273717   0.0012917146   0.0001683951  -0.0001883718  -0.0017133835
        0.0000305321   0.0001328662   0.0000884483  -0.0000527014  -0.0001060633
       -0.0017633780   0.0003706649   0.0001909879   0.0009604464  -0.0003240173
       -0.0001354230   0.0006963392   0.0000053774   0.0001361766   0.0000882697
       -0.0001786916   0.0000166733   0.0000135793   0.0001767087  -0.0000263709
        0.0000327976  -0.0002955400   0.0000105215   0.0001019457   0.0000485607
        0.0000825873  -0.0000404792  -0.0000056612  -0.0000327000   0.0000093578
        0.0000259425   0.0000151804   0.0000100028  -0.0000165447   0.0000111753
        0.0000006179   0.0000087909   0.0000084129  -0.0000007473  -0.0000029826
       -0.0000011249  -0.0000012938   0.0000035608   0.0000020048   0.0000015921
        0.0000000333   0.0000001678  -0.0000004659   0.0000010457   0.0000026672
       -0.0000015463  -0.0000088241   0.0000005211  -0.0000013855  -0.0000013806
       -0.0000150708   0.0000050150  -0.0000179018   0.0000301795   0.0000029226
       -0.0000413520  -0.0000247967  -0.0000000928   0.0000070037   0.0000044970
        0.0000068245  -0.0000111871  -0.0000030908  -0.0000027947   0.0000039050
       -0.0000058597   0.0000002293   0.0000160423   0.0000074002  -0.0000080710
        0.0000015075   0.0000014184   0.0000021143  -0.0000000162   0.0000002656
        0.0000019922   0.0000030485   0.0000001693  -0.0000012698  -0.0000007275
        0.0000115813   0.0000006217   0.0000149392  -0.0000107495   0.0000143392
       -0.0000247630   0.0000233525   0.0000608826   0.0000812589  -0.0001282282
       -0.0000061630  -0.0001411248  -0.0002695299   0.0001046171   0.0000461488
       -0.0000332589  -0.0010016993   0.0000094756   0.0000291154   0.0004511434
        0.0000302684  -0.0000387531  -0.0000864428   0.0000135632  -0.0000068165
        0.0004860544   0.0000049254  -0.0000274169  -0.0000402804   0.0000055399
       -0.0001001128   0.0000550487  -0.0000231259  -0.0000603371   0.0000082833
       -0.0000043172   0.0000077323  -0.0000069264   0.0000004325  -0.0000028940
       -0.0000032701   0.0000032752  -0.0000018315   0.0000005282  -0.0000001610
       -0.0000005836  -0.0000025530  -0.0000009290  -0.0000026581  -0.0000014552
       -0.0000005361  -0.0000044246   0.0000006134   0.0000029287  -0.0000014555
       -0.0000007152  -0.0000058169   0.0000011480  -0.0000021905  -0.0000013488
        0.0000013747  -0.0000048311  -0.0000062583  -0.0000049248   0.0000031359
        0.0000005316  -0.0000034285  -0.0000002186  -0.0000038330   0.0000007351
       -0.0000006958  -0.0000064840  -0.0000011225   0.0000013871  -0.0000043030
       -0.0000068964   0.0000007719  -0.0000014462   0.0000103230  -0.0000133319
        0.0000056991   0.0000005506  -0.0000720490   0.0001097643  -0.0000430763
        0.0000240814  -0.0003980571  -0.0006344179   0.0001742840
       -0.2394566294   0.4563191500   0.0326779923   0.3643010348  -0.5610142009
       -0.0370866353  -0.0993842190   0.0811215379   0.0046879419  -0.0311507248
        0.0317663125   0.0010002871  -0.0065013367  -0.0026332320  -0.0000272298
       -0.0010891594   0.0009306210  -0.0000825594   0.0003635803  -0.0051892724
       -0.0001579031   0.0152198157  -0.0004191385  -0.0000973190  -0.0008576863
       -0.0014141376   0.0003647852   0.0000803273   0.0003960692  -0.0000100635
       -0.0001190547   0.0002523091  -0.0000045839   0.0006216359   0.0000954275
       -0.0002278735  -0.0005469735   0.0002385039  -0.0000730277  -0.0000663272
       -0.0000141867  -0.0000943532   0.0000208817  -0.0000318900  -0.0000051847
        0.0000294955   0.0000217009   0.0000099488  -0.0000194478   0.0000567928
        0.0000032848  -0.0000069179  -0.0000035261  -0.0000054832   0.0000109565
       -0.0000033280   0.0000046107   0.0000102897   0.0000027359   0.0000016391
        0.0000060247   0.0000049482  -0.0000010733   0.0000049849  -0.0000044100
        0.0000020090   0.0000154325   0.0000100195   0.0000034649  -0.0000032799
       -0.0000777853   0.0000166757   0.0000637632   0.0000815752   0.0000115523
       -0.0001132699  -0.0000559533  -0.0000023835   0.0000461838   0.0000134593
       -0.0000124236   0.0000195534   0.0000070758   0.0000075130   0.0000252034
        0.0000119737  -0.0000032524  -0.0000245680  -0.0000033907   0.0000287559
        0.0000058368  -0.0000006525   0.0000004523   0.0000009537   0.0000134518
       -0.0000007318  -0.0000048426  -0.0000033257   0.0000077297   0.0000098590
       -0.0000041679   0.0000031480  -0.0000123540  -0.0000078747  -0.0000054318
       -0.0002368775  -0.0000345303   0.0000000260   0.0001956011  -0.0002346980
        0.0000490892  -0.0010253362   0.0001849024   0.0002704061   0.0001524562
       -0.0010839111   0.0008292441  -0.0001889302   0.0009003822   0.0000302031
       -0.0007594565   0.0012237827   0.0000301468   0.0000015402  -0.0001549807
        0.0000211338   0.0003694943  -0.0011678993   0.0000095483   0.0001546041
        0.0000911873  -0.0002562100  -0.0000054339  -0.0000168388  -0.0000097757
        0.0000156355  -0.0000155447  -0.0000023698   0.0000143677   0.0000175846
       -0.0000022081   0.0000037496   0.0000030521  -0.0000037576   0.0000054594
        0.0000022445  -0.0000019341   0.0000099209   0.0000024329  -0.0000021124
        0.0000089572   0.0000061059  -0.0000035609   0.0000055501  -0.0000000263
       -0.0000038469   0.0000005983   0.0000064237   0.0000012832   0.0000211007
        0.0000057295  -0.0000032401   0.0000045634   0.0000071893  -0.0000172289
        0.0000024557   0.0000067198  -0.0000025809   0.0000082767  -0.0000050801
       -0.0000029251   0.0000104812  -0.0000001986  -0.0000055135   0.0000054091
        0.0000031563  -0.0000035771  -0.0000051060   0.0000533733   0.0000019936
        0.0000568305   0.0000576269   0.0000117376  -0.0000556257   0.0000678307
       -0.0001348426  -0.0002693078  -0.0003892080  -0.0017334064
        0.4548230746  -1.0401817585  -0.0706698442  -0.5610142009   1.3209828424
        0.0816048144   0.0814619482  -0.2241445697  -0.0086155448   0.0333371605
       -0.0102521196  -0.0007862299  -0.0007226239   0.0085402723  -0.0001770416
       -0.0005634996  -0.0036700950   0.0000878489  -0.0055874091  -0.0018392971
        0.0001932772  -0.0022321928  -0.0489334810  -0.0009499728   0.0032014082
       -0.0001346654  -0.0002913006  -0.0005287759  -0.0014066829   0.0003255169
        0.0007980414  -0.0006414533   0.0002883622  -0.0021395753   0.0002352065
        0.0000614602   0.0022029689  -0.0004592861  -0.0000117569  -0.0002771363
       -0.0005624332   0.0002189433   0.0000048882   0.0002719250   0.0000291177
       -0.0001747905  -0.0001063475  -0.0000388324   0.0001303236  -0.0001197045
       -0.0000086921  -0.0000480150  -0.0000566161   0.0000069864   0.0000047702
        0.0000402847  -0.0000034724  -0.0000395999  -0.0000091933  -0.0000176804
       -0.0000150812  -0.0000091762   0.0000011814  -0.0000186913  -0.0000140327
        0.0000128743   0.0000044750   0.0000042418  -0.0000093905   0.0000139653
        0.0001740762  -0.0000199845   0.0000630199  -0.0002563960  -0.0000230010
        0.0003463812   0.0002147568   0.0000117955  -0.0000595838  -0.0000698156
        0.0000143078   0.0000788066  -0.0000026387  -0.0000118838  -0.0001002902
        0.0000583552   0.0000085874   0.0000868479  -0.0000223450  -0.0000558416
       -0.0000183177   0.0000306217  -0.0000227962  -0.0000016735  -0.0000283594
        0.0000016309  -0.0000070706   0.0000113768  -0.0000019773   0.0000076942
       -0.0000336204  -0.0000125951  -0.0000823599   0.0001418652   0.0000460839
        0.0003599938  -0.0002045032  -0.0000285927  -0.0006994203   0.0010005809
       -0.0001828074   0.0008024210   0.0004760495  -0.0002914650  -0.0007358179
        0.0009402848  -0.0010761175  -0.0021174937   0.0004781486   0.0000800847
       -0.0004868321   0.0003461853   0.0000054305  -0.0001591846   0.0002544986
       -0.0000108420   0.0005355537  -0.0009548625   0.0000867670  -0.0000996654
        0.0000004137   0.0002635535   0.0001174044   0.0001339912  -0.0000035277
       -0.0000113989  -0.0000545971  -0.0000018065  -0.0000129386  -0.0000023389
        0.0000115131  -0.0000154463  -0.0000078701  -0.0000019567   0.0000078998
       -0.0000007129   0.0000133249  -0.0000028221   0.0000114651   0.0000046834
       -0.0000135609   0.0000084448  -0.0000028016  -0.0000157822  -0.0000097384
        0.0000156653   0.0000315376  -0.0000053056  -0.0000073699  -0.0000026375
       -0.0000189313   0.0000139996  -0.0000088378  -0.0000002970   0.0000254983
        0.0000038361  -0.0000386266   0.0000178136   0.0000048982  -0.0000074946
        0.0000057177   0.0000013625  -0.0000049700   0.0000020938  -0.0000179562
       -0.0000055040   0.0000193001   0.0000370389  -0.0001324116  -0.0000114301
       -0.0000591926   0.0000736030  -0.0000097282   0.0002057199  -0.0000730541
        0.0001736472  -0.0005835653   0.0000458151  -0.0002955976
        0.0321691206  -0.0701746321  -0.0379072294  -0.0370866353   0.0816048144
        0.0836692008   0.0045618648  -0.0096822292  -0.0535519585   0.0013832691
       -0.0004597069  -0.0001738572  -0.0002178376   0.0002369616   0.0085319411
       -0.0000314027  -0.0001791425  -0.0003414948  -0.0001317921   0.0001089054
        0.0082795301   0.0003387268  -0.0012431352  -0.0002290276  -0.0000272924
        0.0001310673  -0.0028336278   0.0003998000  -0.0001211150  -0.0000866616
        0.0001985092   0.0000999175   0.0000374893  -0.0002207401   0.0000500729
        0.0000230580   0.0003723676  -0.0000410512  -0.0001102910  -0.0000747428
       -0.0001125778   0.0000350331   0.0000126941   0.0000410483  -0.0000042410
       -0.0000376704  -0.0000211675  -0.0000093727   0.0000218766  -0.0000118868
       -0.0000010155  -0.0000105531  -0.0000093874  -0.0000006353   0.0000035387
        0.0000029560   0.0000015211  -0.0000036221  -0.0000013731  -0.0000024111
       -0.0000020712   0.0000000806  -0.0000014377  -0.0000026718  -0.0000058634
        0.0000031907   0.0000107659   0.0000016433   0.0000011792   0.0000027869
        0.0000177808  -0.0000025831   0.0000216764  -0.0000420779  -0.0000026961
        0.0000537090   0.0000323200   0.0000022212  -0.0000083806  -0.0000048024
       -0.0000026841   0.0000148952   0.0000026709   0.0000008635  -0.0000103698
        0.0000093895   0.0000008278  -0.0000007816  -0.0000068031   0.0000015003
       -0.0000011956   0.0000026800  -0.0000035961  -0.0000011771  -0.0000005599
       -0.0000001040  -0.0000030862  -0.0000002074   0.0000026970   0.0000024509
       -0.0000106763  -0.0000007289  -0.0000192314   0.0000168915  -0.0000010489
        0.0000339687  -0.0000312606  -0.0000313422  -0.0001056879   0.0001692816
       -0.0000177364  -0.0000120492   0.0004717495  -0.0001129930  -0.0008649150
       -0.0008363613   0.0006385046  -0.0000834945   0.0000065576  -0.0028561866
       -0.0000473985   0.0000455666   0.0002050909  -0.0000308401   0.0000156365
       -0.0021517627   0.0000509949   0.0000048983   0.0000497818   0.0000155321
        0.0000664780  -0.0000965572   0.0000426961   0.0000534353  -0.0000143025
        0.0000022586  -0.0000081690   0.0000047985  -0.0000002953   0.0000052047
        0.0000031956  -0.0000031542   0.0000011887  -0.0000014416   0.0000009279
        0.0000004192   0.0000019050   0.0000017493   0.0000030309   0.0000006903
       -0.0000000358   0.0000052537  -0.0000024242  -0.0000035841   0.0000002927
        0.0000004172   0.0000074637  -0.0000009704   0.0000007241   0.0000036825
       -0.0000015943   0.0000042895   0.0000021194   0.0000033269   0.0000001748
       -0.0000001303  -0.0000013978   0.0000026024   0.0000033285  -0.0000018503
        0.0000012230   0.0000047524   0.0000001817  -0.0000008749   0.0000011740
        0.0000037086   0.0000012474   0.0000016876  -0.0000154246   0.0000039872
       -0.0000106187   0.0000027575   0.0000263026  -0.0000871983   0.0000387388
       -0.0000226617  -0.0005997321  -0.0002314836  -0.0009602030
        0.0042441501   0.0284090937   0.0015333069  -0.0993842190   0.0814619482
        0.0045618648   0.6205448243  -0.0137292627  -0.0039713793  -0.3040990189
       -0.0288036567  -0.0002663652  -0.0336292173   0.0832008278   0.0011193295
       -0.0465216817  -0.0289709979  -0.0002089828   0.0511921040  -0.0259851095
       -0.0007718028  -0.1414468174  -0.0721354845  -0.0023292317  -0.0273546880
       -0.0246547195  -0.0003585222  -0.0023554906   0.0010658415  -0.0018517288
       -0.0013759900   0.0005051373   0.0013809327   0.0006234108  -0.0001068100
        0.0003421091  -0.0001967516  -0.0002910639  -0.0002016681   0.0000933927
        0.0001262213  -0.0000842354  -0.0000257142  -0.0000154678  -0.0000043065
        0.0000149385   0.0000168656   0.0000098996  -0.0000086313   0.0000083501
       -0.0000023664   0.0000116392   0.0000111558   0.0000002255  -0.0000070839
       -0.0000050037  -0.0000014227  -0.0000050312   0.0000001792   0.0000004891
       -0.0000040783  -0.0000037295   0.0000008340  -0.0000026671   0.0000072097
       -0.0000037047  -0.0000168649  -0.0000032344  -0.0000053887  -0.0000121422
       -0.0000029155  -0.0000022414  -0.0000302805   0.0000240862  -0.0000009900
        0.0000209481  -0.0000359786   0.0000078488  -0.0000065858   0.0000281648
        0.0000067631  -0.0000215795  -0.0000325195  -0.0000029809  -0.0000012763
       -0.0000083440   0.0000014491   0.0000012505   0.0000007634  -0.0000087303
       -0.0000054767   0.0000022194   0.0000012223  -0.0000011796  -0.0000068266
        0.0000001536   0.0000064470  -0.0000000363  -0.0000076857  -0.0000063049
        0.0000096458  -0.0000020224   0.0000375534   0.0000056512  -0.0000008864
        0.0000064998   0.0000210141   0.0000027797   0.0000827386  -0.0000553390
        0.0000385463  -0.0003255241   0.0005383838   0.0007229681   0.0006612390
       -0.0024245226   0.0010694472  -0.0186463086  -0.0026811677  -0.0004824185
       -0.0005069156   0.0030552873   0.0000473921  -0.0002329585  -0.0006776946
        0.0000148728  -0.0005936148   0.0028468929   0.0001916248  -0.0000374458
       -0.0003725980  -0.0001644092  -0.0003091706   0.0000614393   0.0000233842
       -0.0000081749   0.0000300773  -0.0000001459  -0.0000050747  -0.0000155737
       -0.0000001167  -0.0000016125   0.0000005135   0.0000024861  -0.0000063399
       -0.0000014470  -0.0000004173  -0.0000080522  -0.0000027391   0.0000013999
       -0.0000057764  -0.0000072613   0.0000039840  -0.0000004914   0.0000014462
        0.0000026941  -0.0000045684  -0.0000001121   0.0000030432  -0.0000085990
       -0.0000034030  -0.0000011493  -0.0000015330  -0.0000009224   0.0000055116
       -0.0000032006  -0.0000010861  -0.0000006511  -0.0000055628   0.0000043311
        0.0000004774  -0.0000083585   0.0000007805   0.0000032758  -0.0000030197
       -0.0000036813   0.0000005350   0.0000039415  -0.0000122423   0.0000009016
       -0.0000210866  -0.0000086623  -0.0000033479   0.0000228534  -0.0000033649
        0.0000836772  -0.0003057709  -0.0003805492  -0.0004461308
        0.0296626296  -0.0426674611  -0.0032238026   0.0811215379  -0.2241445697
       -0.0096822292  -0.0137292627   0.6349382227   0.0152162916   0.0210056005
       -0.0819470527  -0.0005397269   0.0272940790   0.0158081633   0.0002139831
       -0.0256254085  -0.0083302030  -0.0002053695   0.0223602693  -0.0633011254
       -0.0014986688  -0.1112191957  -0.2212731452  -0.0009502015  -0.0163516154
       -0.0001368005   0.0006721876   0.0028592439   0.0024132001  -0.0010909167
       -0.0010383781   0.0004998524  -0.0001962799   0.0013223531  -0.0000457803
       -0.0000020985  -0.0007787132   0.0001428633  -0.0000031204   0.0000464507
        0.0001206588  -0.0001262468  -0.0000170730  -0.0000642793  -0.0000077481
        0.0000654391   0.0000303364   0.0000126464  -0.0000396456   0.0000712771
        0.0000029126   0.0000084829   0.0000105098  -0.0000035248   0.0000033247
       -0.0000161537   0.0000038883   0.0000145172   0.0000021736   0.0000075127
        0.0000067627   0.0000049386  -0.0000001341   0.0000044803   0.0000035128
       -0.0000044230  -0.0000009341   0.0000045428   0.0000012015  -0.0000142321
       -0.0000980106   0.0000091992   0.0000247299   0.0001131261   0.0000020445
       -0.0000673138  -0.0001203610   0.0000057635   0.0000103500   0.0000681437
       -0.0000053953  -0.0000315117  -0.0000290228   0.0000059036   0.0000311015
       -0.0000118313  -0.0000032252  -0.0000361117   0.0000024879   0.0000240810
        0.0000049778  -0.0000133646   0.0000086483   0.0000010502   0.0000101601
       -0.0000007935  -0.0000026214  -0.0000028425   0.0000022654   0.0000023173
        0.0000081780   0.0000032317   0.0000250272  -0.0000606708  -0.0000113953
       -0.0001498025   0.0000476748   0.0000082598   0.0002272275  -0.0002742967
        0.0001054380  -0.0011886945  -0.0005092794   0.0004063982   0.0030425111
       -0.0025378072   0.0005780499  -0.0247069349  -0.0005729882   0.0000128813
        0.0031047527  -0.0042336838  -0.0000405167  -0.0006043748   0.0006451607
        0.0001681978   0.0027327887  -0.0045524498   0.0001265194   0.0000295981
       -0.0003029483  -0.0000157254   0.0000361972  -0.0000750739  -0.0000956812
       -0.0000127838   0.0000017610  -0.0000015768   0.0000065142   0.0000055585
       -0.0000027349   0.0000040021   0.0000043624  -0.0000006997  -0.0000029472
        0.0000006498  -0.0000044613   0.0000011292  -0.0000036950  -0.0000017556
        0.0000042943  -0.0000020881   0.0000003598   0.0000050376   0.0000010009
       -0.0000043136  -0.0000063288   0.0000030016   0.0000045421   0.0000087650
        0.0000058267  -0.0000062122   0.0000072096  -0.0000006620  -0.0000116049
        0.0000000149   0.0000141551  -0.0000058687  -0.0000015937   0.0000015711
       -0.0000021484   0.0000008112   0.0000010335  -0.0000011940   0.0000060797
        0.0000009937  -0.0000053714  -0.0000089365   0.0000477793   0.0000029926
        0.0000416508  -0.0000264508   0.0000025659   0.0000225732   0.0000501103
        0.0000368873   0.0004785319   0.0002711106   0.0001103115
        0.0017645955  -0.0039712992   0.0154822558   0.0046879419  -0.0086155448
       -0.0535519585  -0.0039713793   0.0152162916   0.1179748298  -0.0009504812
       -0.0000465725  -0.0468775261   0.0007105332  -0.0002000073   0.0019785989
       -0.0004683229  -0.0000431700  -0.0057889436   0.0008370700  -0.0012174115
        0.0022159876  -0.0057660389  -0.0011728734  -0.0489037242   0.0041032943
       -0.0003303219   0.0013406725   0.0000268145   0.0000080052   0.0006644559
        0.0003892338  -0.0002158913   0.0000769039  -0.0002940934  -0.0000691394
        0.0001393909   0.0000427425  -0.0000066751   0.0000008969   0.0000009560
        0.0000167973   0.0000133235   0.0000013648  -0.0000083512  -0.0000053576
        0.0000029161   0.0000037859  -0.0000007571  -0.0000002028  -0.0000078988
        0.0000004499   0.0000034321   0.0000036983   0.0000008314  -0.0000011299
       -0.0000010932   0.0000004220   0.0000010400   0.0000000877   0.0000010301
        0.0000000384   0.0000004224   0.0000000427   0.0000011335   0.0000003219
        0.0000003210   0.0000006897  -0.0000013899   0.0000008027   0.0000044062
        0.0000111844  -0.0000012837  -0.0000145555  -0.0000128242   0.0000028488
       -0.0000217239   0.0000140404  -0.0000033945   0.0000064362  -0.0000164730
        0.0000005760   0.0000023323   0.0000099222   0.0000002343   0.0000034916
       -0.0000045187   0.0000005178  -0.0000032086   0.0000019009   0.0000009987
       -0.0000000923  -0.0000010834   0.0000009077   0.0000000825  -0.0000001226
        0.0000005182   0.0000007873  -0.0000007416   0.0000005527  -0.0000018607
        0.0000002643   0.0000009024  -0.0000023375  -0.0000016967  -0.0000035836
        0.0000050168   0.0000099212  -0.0000033409   0.0000156506  -0.0000316464
       -0.0000142463   0.0007012931   0.0001923560  -0.0000561451  -0.0014237856
        0.0008360433  -0.0005979614  -0.0002964073  -0.0000232265   0.0009443028
        0.0001344363  -0.0001137540   0.0078831292   0.0000079289  -0.0000093419
       -0.0003174099   0.0000790522  -0.0000281143   0.0075189771   0.0000141750
        0.0000298606   0.0000390820  -0.0000038068  -0.0000175424  -0.0000312778
       -0.0000022694   0.0000036269   0.0000011175   0.0000002873  -0.0000006369
       -0.0000004928  -0.0000002999   0.0000005227   0.0000000628  -0.0000008273
        0.0000001944   0.0000001526  -0.0000001056  -0.0000002168   0.0000005926
        0.0000004573   0.0000002692   0.0000000956  -0.0000001400   0.0000005496
       -0.0000008116  -0.0000020623   0.0000006226  -0.0000001270  -0.0000016233
       -0.0000001419   0.0000009991   0.0000010018   0.0000001591  -0.0000010724
       -0.0000001514   0.0000014062  -0.0000004999  -0.0000000430   0.0000003885
        0.0000005135   0.0000006534   0.0000001610   0.0000004941   0.0000009800
        0.0000009714  -0.0000003761  -0.0000000246   0.0000022039   0.0000012808
        0.0000002818  -0.0000053162   0.0000030697  -0.0000059906  -0.0000319113
       -0.0000398358  -0.0003195828  -0.0001590308  -0.0000930159
        0.0047145959  -0.0097688049  -0.0006099585  -0.0311507248   0.0333371605
        0.0013832691  -0.3040990189   0.0210056005  -0.0009504812   0.6328789487
        0.0020996004   0.0001250828  -0.1497155700   0.0631404517   0.0000553517
        0.0590313165   0.0258343666   0.0003096826  -0.0444133415   0.0282613002
        0.0001421386  -0.0358179751  -0.0720069338  -0.0003499153   0.0012394744
       -0.0024255595   0.0006617496  -0.0015325109  -0.0003125412   0.0003375044
        0.0001584610  -0.0001712426   0.0001381961  -0.0000470974   0.0000085445
       -0.0001701218  -0.0000050755   0.0001103284  -0.0000204881   0.0000129779
        0.0000109342  -0.0000112503   0.0000273485  -0.0000149227   0.0000002999
        0.0000126014   0.0000036863   0.0000003262  -0.0000124055   0.0000122030
        0.0000025099  -0.0000080210  -0.0000003964  -0.0000009157  -0.0000009518
       -0.0000032265   0.0000024827   0.0000004489  -0.0000012283   0.0000012492
       -0.0000023444   0.0000009717  -0.0000003312  -0.0000030582  -0.0000038275
        0.0000013645   0.0000048905  -0.0000008317   0.0000043275  -0.0000132237
       -0.0000001353  -0.0000012308   0.0000163167   0.0000006437   0.0000029271
       -0.0000267162   0.0000063768   0.0000023547  -0.0000001258  -0.0000132541
        0.0000015256   0.0000036407   0.0000105148   0.0000024204   0.0000052064
        0.0000004069  -0.0000000899  -0.0000044287  -0.0000023476   0.0000075839
        0.0000025244  -0.0000012929   0.0000001144   0.0000006279   0.0000021705
        0.0000000875  -0.0000008851  -0.0000023692   0.0000024399   0.0000015603
       -0.0000033462   0.0000013999   0.0000123521  -0.0000015551   0.0000005563
       -0.0000453201  -0.0000093756   0.0000001030   0.0000597249  -0.0000904552
        0.0000243839   0.0001657264   0.0001037364  -0.0000344649  -0.0000343185
        0.0004605722   0.0003659078  -0.1125556829  -0.1140459049  -0.0008404798
       -0.0177283408   0.0265784312   0.0000801965  -0.0007734021  -0.0032758908
        0.0001539655  -0.0001667859   0.0006833941  -0.0001990882   0.0000435474
        0.0001883003  -0.0002620558  -0.0000669644   0.0000392178  -0.0000227125
       -0.0000073190   0.0000148383   0.0000030302  -0.0000000872   0.0000079552
        0.0000004526  -0.0000007085   0.0000004405  -0.0000008663  -0.0000017300