$hessian                                                                        
        0.3839415201   0.2045059501   0.1859863170  -0.1051429396  -0.1013343873
        0.0420961267  -0.0225155579  -0.0271061859  -0.0039738491   0.0002334731
        0.0027568664   0.0077328023  -0.0020825717  -0.0009433305  -0.0022222831
       -0.0000055785   0.0003511765  -0.0001051289   0.0000910508  -0.0001805105
       -0.0000085147  -0.0000790793  -0.0000605541  -0.0000195520  -0.0000281509
       -0.0000486584   0.0000211515   0.0000077377   0.0000109087  -0.0000135556
        0.0000794152  -0.0000506503   0.0000096376   0.0000420885  -0.0000057056
       -0.0000051050   0.0000110793  -0.0000185049  -0.0000079497   0.0000067977
       -0.0000141884   0.0000063547  -0.0000352925   0.0000032828  -0.0000060262
        0.0000239243   0.0000142293   0.0000084652   0.0000044179  -0.0000266828
        0.0000046579  -0.0000063613   0.0000221738  -0.0000252334   0.0000513706
        0.0000024589  -0.0000025204  -0.0000812607  -0.0000160000  -0.0000135961
        0.0000170008  -0.0000269088  -0.0000148571  -0.0000012008   0.0000043898
        0.0000064246   0.0000159950   0.0000026968  -0.0000098046  -0.0000119496
       -0.0000082871  -0.0000199109   0.0000000797   0.0000163592   0.0000229411
        0.0000081347  -0.0000145129  -0.0000300541  -0.0000090144   0.0000163867
        0.0000285107   0.0000117643  -0.0000128995  -0.0000205780  -0.0000098526
        0.0000062035   0.0000154729   0.0000064285   0.0000037212   0.0000272911
       -0.0000150944  -0.0000108966  -0.0000024906   0.0000317108   0.0000473046
        0.0000336932   0.0000057669   0.0000181062   0.0000239404  -0.0000092346
       -0.0000000278  -0.0000111507   0.0000593705  -0.0000025406  -0.0000097423
       -0.0002165062   0.0001022048  -0.0000853621  -0.0000339805   0.0001509645
        0.0000609609  -0.0000353665  -0.0000620447   0.0000170680   0.0000224869
       -0.0000035339   0.0000261696  -0.0000450838  -0.0000224767  -0.0000048077
        0.0000861974   0.0001607701  -0.0001054329  -0.0000481010   0.0000479993
       -0.0000169378  -0.0000022489  -0.0000076401  -0.0000013807   0.0000085113
       -0.0000095661   0.0000340407   0.0000054912  -0.0000179575   0.0000033050
       -0.0000092734  -0.0000099368   0.0000023679  -0.0000180829  -0.0000015622
        0.0000011215   0.0000052934   0.0000013767  -0.0000020172   0.0000133856
       -0.0000108772   0.0000010761  -0.0000209603   0.0000053103   0.0000033110
       -0.0000140652  -0.0000075501   0.0000021563   0.0000094522  -0.0000051547
        0.0000053694  -0.0000203468   0.0000125434   0.0000557268   0.0000117655
        0.0000099913  -0.0000365199  -0.0000773817  -0.0000430957   0.0000504240
        0.0004153440  -0.0012202415   0.0014545579   0.0006497217   0.0012138774
       -0.0007817661  -0.0002990567  -0.0046375644  -0.0046534913  -0.0098226243
        0.0034181990  -0.0236366789  -0.0912488483   0.0205771010  -0.1091429858
       -0.1624429079  -0.0923906171  -0.0957986253   0.0038106150   0.0052193792
       -0.0033767202   0.0021453782  -0.0059905593  -0.0045177065  -0.0000479657
        0.0000122821  -0.0000028454   0.0000017946  -0.0000049569  -0.0000276323
        0.0000000539  -0.0000095953  -0.0000007052   0.0000034656   0.0000056629
       -0.0000041575  -0.0000018244   0.0000067839  -0.0000030652  -0.0000066822
        0.0000033879  -0.0000014392   0.0000014106  -0.0000007598  -0.0000033462
        0.0000017960   0.0000026519   0.0000005131  -0.0000016734   0.0000020234
        0.0000018989  -0.0000036979   0.0000031248  -0.0000012450  -0.0000017511
       -0.0000001996  -0.0000011620  -0.0000048546   0.0000002874  -0.0000062990
       -0.0000274365  -0.0000039521  -0.0000152048   0.0000073130   0.0000120486
        0.0000039814  -0.0000112454  -0.0000016774   0.0000049211  -0.0000433930
       -0.0000382320   0.0000180237  -0.0001679391   0.0000237105   0.0002549281
        0.0000293573   0.0000312255   0.0000059896   0.0000155697  -0.0000278032
       -0.0000093693  -0.0000288566   0.0000385214  -0.0000264245  -0.0000319848
        0.0000281509  -0.0000022100   0.0000300497   0.0000064967  -0.0000036018
        0.0000095058   0.0000003195  -0.0000018016  -0.0000189433   0.0000205214
        0.0000007002   0.0000080208   0.0000278142   0.0000001807   0.0000084170
        0.0000189328   0.0000016517  -0.0000032930  -0.0000063711   0.0000030748
        0.0000020462   0.0000091731   0.0000024593   0.0001010382   0.0000019707
        0.0000567603  -0.0006202543   0.0001909969   0.0001285497  -0.0001425043
       -0.0001359023   0.0001428048   0.0034996654  -0.0045967586   0.0104249647
        0.2045059501   0.4653516448  -0.1200970293  -0.0703525647  -0.2118944119
        0.1024829888  -0.0492274789  -0.0350129476  -0.0368202524   0.0096433858
       -0.0135147264   0.0286654978  -0.0076975195  -0.0032061029  -0.0100808287
        0.0003985097   0.0005292475  -0.0001512379   0.0001267758  -0.0002340175
        0.0002112502  -0.0000599175  -0.0000764320  -0.0000731455   0.0000914853
       -0.0000883325   0.0000310222  -0.0000800616   0.0000265071  -0.0000639429
        0.0000813849  -0.0000511470   0.0000298609   0.0000420951  -0.0000181071
        0.0000069288   0.0000011589  -0.0000376887  -0.0000065519   0.0000077270
        0.0000168012   0.0000065698   0.0000075446  -0.0000152131  -0.0000035253
       -0.0000120380  -0.0000040095  -0.0000011412   0.0000081741   0.0000001965
        0.0000030539   0.0000043964   0.0000330785  -0.0000100405   0.0000195367
        0.0000059872  -0.0000100386  -0.0000173220  -0.0000184366  -0.0000063564
       -0.0000046302  -0.0000011299   0.0000036126   0.0000073370   0.0000021266
       -0.0000000047   0.0000069003   0.0000043260   0.0000012573  -0.0000048785
        0.0000004323  -0.0000047129  -0.0000043084   0.0000052338   0.0000048165
        0.0000126117  -0.0000013946  -0.0000083491  -0.0000058062   0.0000037290
        0.0000051963   0.0000037560  -0.0000028887  -0.0000042450   0.0000000268
       -0.0000010881   0.0000008239   0.0000025130  -0.0000020029   0.0000109381
       -0.0000149266  -0.0000106885   0.0000024837   0.0000183969   0.0000203601
        0.0000197715   0.0000204396   0.0000214802   0.0000040801   0.0000219343
       -0.0000417202   0.0000054587  -0.0000634202  -0.0000747049  -0.0000236505
       -0.0001603361   0.0002490169  -0.0001538750   0.0002537286  -0.0000428432
       -0.0000297948  -0.0000387186   0.0000592285   0.0000324653   0.0000795709
        0.0000269879   0.0000404128  -0.0000890326  -0.0000014204  -0.0000122227
        0.0000976427   0.0001448507  -0.0000917380  -0.0000570043   0.0000598365
       -0.0000376289   0.0000112790   0.0000028766   0.0000186472  -0.0000003471
       -0.0000133433   0.0000496258   0.0000142306  -0.0000165705  -0.0000019700
       -0.0000076200  -0.0000074353   0.0000013811  -0.0000211603  -0.0000097018
        0.0000002111   0.0000035549   0.0000076939  -0.0000018406   0.0000212240
       -0.0000030124  -0.0000028239  -0.0000299394   0.0000195110   0.0000065335
       -0.0000231591  -0.0000138365   0.0000042488   0.0000086354  -0.0000311418
        0.0000178712  -0.0000499948   0.0000440659   0.0000772642   0.0000155712
       -0.0000021326  -0.0000612569  -0.0000685523  -0.0000630137  -0.0000678368
       -0.0010495705  -0.0078745282   0.0087426347   0.0075374407   0.0103736555
        0.0010496489  -0.0123783864   0.0002575326  -0.0138638512   0.0231642342
        0.0251236810   0.0073710907  -0.0088696257  -0.1076428120   0.0676273907
       -0.0924074535  -0.1047861492  -0.0648674710  -0.0038076259  -0.0085602613
        0.0059324956  -0.0055535628   0.0018110752   0.0001573093  -0.0000298221
       -0.0000021624   0.0000735876  -0.0000194984   0.0000215480   0.0000044621
       -0.0000027913  -0.0000122397  -0.0000039176   0.0000027561  -0.0000013272
       -0.0000057883   0.0000021172   0.0000006522  -0.0000031795  -0.0000016260
        0.0000049274   0.0000014408   0.0000005979   0.0000019829  -0.0000032396
        0.0000027470   0.0000014900  -0.0000043045   0.0000032216   0.0000027397
       -0.0000020750   0.0000029387   0.0000039903  -0.0000002047   0.0000048476
        0.0000016440  -0.0000013568   0.0000020887   0.0000026988  -0.0000009321
       -0.0000399453  -0.0000020645  -0.0000091344   0.0000056242   0.0000143217
        0.0000021277   0.0000191580  -0.0000176315   0.0000044525  -0.0000003890
       -0.0000246574   0.0000063677  -0.0000350611  -0.0002608033   0.0001963583
        0.0003807284   0.0000130690  -0.0002191045   0.0000152537  -0.0000324916
       -0.0000008973  -0.0000416416   0.0000358727  -0.0000149172  -0.0000427552
        0.0000384765  -0.0000042638   0.0000400835   0.0000027978  -0.0000033381
        0.0000059466  -0.0000036155  -0.0000007148  -0.0000312105   0.0000285749
       -0.0000002469   0.0000037317   0.0000381123   0.0000019397   0.0000016650
        0.0000290058  -0.0000016682  -0.0000101120   0.0000033897   0.0000028352
       -0.0000619722  -0.0000219899   0.0000389093   0.0001008877  -0.0000537947
        0.0000309518   0.0002924160  -0.0003277111  -0.0003489051  -0.0001316693
       -0.0002182784  -0.0001474006   0.0054794942  -0.0100922969   0.0243446766
        0.1859863170  -0.1200970293   0.5955807935  -0.0012312058   0.0456220553
       -0.1171528236   0.0261922322   0.0020188537   0.0444731326  -0.0029507443
        0.0146045132  -0.0312858174   0.0071168074   0.0024750902   0.0099848914
        0.0002218299   0.0000535129  -0.0001458139  -0.0000246317  -0.0000308857
        0.0000075833   0.0000079279   0.0001269513   0.0000919327  -0.0000528731
        0.0000724280  -0.0000240532   0.0000489147  -0.0000391456   0.0000983839
        0.0000453721   0.0000214498  -0.0000127278  -0.0000108663  -0.0000220600
       -0.0000111447  -0.0000023250  -0.0000483238  -0.0000035472   0.0000018723
        0.0000226199   0.0000028481   0.0000197994  -0.0000236382   0.0000006635
       -0.0000213356  -0.0000176780  -0.0000016572   0.0000028370   0.0000079269
        0.0000040128   0.0000029993  -0.0000074601  -0.0000051448   0.0000111895
       -0.0000041610  -0.0000095719  -0.0000073259  -0.0000141606  -0.0000094791
       -0.0000142043   0.0000002598   0.0000058637   0.0000056847   0.0000008062
        0.0000008981  -0.0000016886  -0.0000003402   0.0000015992  -0.0000020033
       -0.0000027648  -0.0000039439  -0.0000014214   0.0000008102   0.0000028990
        0.0000062295  -0.0000003904  -0.0000007707  -0.0000097218   0.0000003609
        0.0000014788   0.0000043752  -0.0000008760  -0.0000004371   0.0000022484
       -0.0000003548   0.0000003591  -0.0000079629  -0.0000036385   0.0000045079
       -0.0000110649  -0.0000066237   0.0000035324   0.0000120393   0.0000129791
        0.0000112844  -0.0000060436   0.0000244144   0.0000082044   0.0000348587
       -0.0000294518   0.0000052489   0.0000154711  -0.0000869201  -0.0000177421
       -0.0001084423   0.0002756903  -0.0002445456   0.0002375864   0.0000260415
       -0.0001173211  -0.0000693420   0.0000167253   0.0000401532  -0.0000518665
        0.0000097170  -0.0000019986   0.0000710156   0.0000321634   0.0000630689
        0.0001124498  -0.0000059112  -0.0000177579  -0.0000297571   0.0001830749
       -0.0000376549  -0.0000195919  -0.0000065291   0.0000017782   0.0000105194
       -0.0000000799  -0.0000053137   0.0000049381  -0.0000047162   0.0000024317
       -0.0000127065   0.0000206226  -0.0000028523  -0.0000073517  -0.0000215398
        0.0000051779   0.0000134945   0.0000250047  -0.0000067016   0.0000028097
       -0.0000329731   0.0000163842  -0.0000009454   0.0000081556  -0.0000029106
       -0.0000015917  -0.0000115666   0.0000003892   0.0000194165   0.0000125347
       -0.0000102197   0.0000113958  -0.0000420294  -0.0000023711   0.0000250789
        0.0000014422   0.0000044821  -0.0001892542  -0.0000679115   0.0000477405
        0.0012337161   0.0094001840  -0.0091702562  -0.0097905494  -0.0118581937
       -0.0024413031   0.0060262274  -0.0007740665   0.0170178446  -0.0499736444
       -0.0259069393  -0.0499252677  -0.0695846527   0.1199084861  -0.3190197947
       -0.0958728525  -0.0648418371  -0.1126134082   0.0097972921   0.0233404032
       -0.0130470167  -0.0051998970  -0.0001217120   0.0007043661  -0.0000396701
        0.0000362126  -0.0000711942   0.0000201484   0.0000020515  -0.0000387898
       -0.0000033523  -0.0000066702   0.0000017359  -0.0000009050  -0.0000020317
       -0.0000011564  -0.0000019612  -0.0000007098  -0.0000011536  -0.0000053835
        0.0000006170   0.0000012145  -0.0000009091  -0.0000006207   0.0000006405
        0.0000000796  -0.0000013882  -0.0000023971   0.0000013371  -0.0000007378
       -0.0000012139  -0.0000000676   0.0000003963   0.0000004623   0.0000023051
       -0.0000006802  -0.0000005042   0.0000009196   0.0000001253  -0.0000016938
        0.0000008577  -0.0000011835  -0.0000089967   0.0000090949   0.0000097574
       -0.0000013519   0.0000195758  -0.0000213963   0.0000043415  -0.0000386698
       -0.0000255717   0.0000085960   0.0000565119  -0.0000553201   0.0002542546
        0.0002137632  -0.0002267049   0.0001048678  -0.0000025392  -0.0000100378
       -0.0000174779  -0.0000114661  -0.0000078040  -0.0000033756   0.0000011802
       -0.0000002576   0.0000014122  -0.0000001453   0.0000047199  -0.0000015205
        0.0000053754   0.0000029466  -0.0000006037   0.0000036226  -0.0000013989
        0.0000005651   0.0000066282  -0.0000004764  -0.0000013306   0.0000078273
       -0.0000029724   0.0000043449   0.0000025277  -0.0000055780  -0.0000011010
        0.0000915426   0.0000394058  -0.0000716241  -0.0000095675   0.0001141559
        0.0000837051   0.0000875165  -0.0003416292  -0.0001936944   0.0001606279
       -0.0001080022   0.0003075117  -0.0026138871   0.0064174139  -0.0131970393
       -0.1051429396  -0.0703525647  -0.0012312058   0.3894035265   0.2197376069
        0.1832489573  -0.2029200723  -0.1360830679  -0.0956260070  -0.0205822096
        0.0099204413  -0.0528971516   0.0126333820   0.0023328731   0.0095277592
       -0.0001935276  -0.0002573644  -0.0000086819  -0.0001645255   0.0001461956
       -0.0000843274  -0.0000980057   0.0000382384   0.0000320496  -0.0002195973
        0.0002244051  -0.0000058968   0.0001866547   0.0000000640   0.0000422497
        0.0000488459   0.0000701682  -0.0000643531   0.0000266026  -0.0000077501
       -0.0000121555   0.0000121876   0.0000000015  -0.0000039109   0.0000067005
       -0.0000015402   0.0000016402  -0.0000124531   0.0000095532  -0.0000004597
        0.0000004269   0.0000265961   0.0000037054  -0.0000157337  -0.0000063822
       -0.0000009989  -0.0000037367   0.0000070806  -0.0000073205   0.0000203850
       -0.0000018930   0.0000016669  -0.0000255921  -0.0000007057  -0.0000042354
        0.0000114664  -0.0000115431  -0.0000090490  -0.0000047128  -0.0000003128
        0.0000013020   0.0000094254  -0.0000011541  -0.0000048547  -0.0000085108
       -0.0000037128  -0.0000037676  -0.0000036201   0.0000039278   0.0000084900
        0.0000018993  -0.0000072865  -0.0000119613  -0.0000002605   0.0000058143
        0.0000117951  -0.0000013198  -0.0000040953  -0.0000056656  -0.0000084184
        0.0000017145   0.0000030516   0.0000053771   0.0000040279   0.0000081662
       -0.0000028041   0.0000015055   0.0000001852   0.0000091680   0.0000124747
        0.0000132446   0.0000096489   0.0000037476   0.0000055408  -0.0000046907
        0.0000025652  -0.0000073547   0.0000006819  -0.0000294027  -0.0000035340
        0.0000103016   0.0000179270   0.0000283559   0.0001045302   0.0000204910
        0.0000219289  -0.0000082546  -0.0000376113  -0.0000077212  -0.0000657974
       -0.0000649599   0.0000722644   0.0000399251  -0.0000266253   0.0001279065
        0.0000237265  -0.0000463685   0.0000087068   0.0000372093   0.0001109211
       -0.0000197935  -0.0000138018  -0.0000300651  -0.0000285150  -0.0000035532
        0.0000111092  -0.0000224360  -0.0000039370  -0.0000010952   0.0000037362
       -0.0000023630   0.0000024180  -0.0000024691  -0.0000056560   0.0000011919
        0.0000038302   0.0000162268  -0.0000004968  -0.0000015808  -0.0000031680
       -0.0000016848   0.0000002451  -0.0000012632  -0.0000125647  -0.0000019660
        0.0000027401   0.0000018307  -0.0000002093   0.0000229037   0.0000178737
       -0.0000160213   0.0000372460  -0.0000408864  -0.0000142562   0.0000255787
       -0.0000373070   0.0000276552  -0.0000180305   0.0000430885   0.0001421895
        0.0004843766   0.0077594313  -0.0093986692  -0.0061098233  -0.0090136004
       -0.0006796808   0.0053699811   0.0001805282   0.0090430085  -0.0234897913
       -0.0157030965  -0.0086395721   0.0250674483   0.0030107069   0.0383089865
       -0.0095369510  -0.0186399015   0.0064223649  -0.0590346819   0.0179805758
       -0.0674741098  -0.0102049362  -0.0095046013  -0.0065174972   0.0000091621
       -0.0000275291  -0.0000863996   0.0000168419  -0.0000085018  -0.0000184649
       -0.0000034771  -0.0000094069  -0.0000002415  -0.0000031713   0.0000026824
        0.0000001491  -0.0000014508  -0.0000000468   0.0000008824  -0.0000001216
        0.0000007714   0.0000023891  -0.0000021945  -0.0000019607  -0.0000019638
       -0.0000004521  -0.0000006728   0.0000017510  -0.0000022408  -0.0000011818
        0.0000013820  -0.0000032807  -0.0000017845  -0.0000002034  -0.0000029402
       -0.0000013035   0.0000001671  -0.0000035956  -0.0000016870  -0.0000008960
        0.0000128239  -0.0000023566  -0.0000018279   0.0000003132  -0.0000018993
        0.0000009484  -0.0000080511   0.0000009533  -0.0000000042   0.0000005890
        0.0000010567   0.0000014210  -0.0000190859  -0.0000274298  -0.0000716204
       -0.0002385184   0.0002029554   0.0001743886  -0.0000047750   0.0000000584
       -0.0000242448   0.0000064597   0.0000151032  -0.0000234114   0.0000065939
       -0.0000052542  -0.0000006817  -0.0000155557   0.0000019402   0.0000009647
       -0.0000009932   0.0000017033  -0.0000018362   0.0000090784  -0.0000127144
       -0.0000003085  -0.0000008646  -0.0000088579  -0.0000047771   0.0000034396
       -0.0000093851   0.0000008095   0.0000006612  -0.0000016245  -0.0000042753
        0.0000607746   0.0000346822  -0.0000801132  -0.0004867566   0.0004533622
        0.0002183294  -0.0000138168  -0.0000196239   0.0000428444  -0.0000254892
        0.0001233603   0.0001656615   0.0049962595  -0.0024728633  -0.0045944115
       -0.1013343873  -0.2118944119   0.0456220553   0.2197376069   0.4690926155
       -0.1039798485  -0.1058235314  -0.1529509415  -0.0370870635  -0.0093753791
        0.0204069264  -0.0437094978   0.0093822835   0.0058729652   0.0180295453
       -0.0001839664  -0.0008010521  -0.0002328835  -0.0002876039   0.0001130617
       -0.0001022067  -0.0000212559   0.0000181947   0.0000545430  -0.0001246050
        0.0000490612  -0.0000374058   0.0001088236   0.0000122906   0.0000242229
       -0.0000093040   0.0000712951  -0.0000461221  -0.0000183704  -0.0000191152
       -0.0000015793   0.0000007757   0.0000021035   0.0000027336  -0.0000027904
        0.0000316693  -0.0000012612   0.0000487546  -0.0000074017   0.0000070330
       -0.0000474649  -0.0000059797  -0.0000095218  -0.0000141624   0.0000409462
       -0.0000028553   0.0000080426  -0.0000172475   0.0000176552  -0.0000222930
        0.0000000126  -0.0000033654   0.0000669341  -0.0000045986   0.0000085998
       -0.0000128218   0.0000221609   0.0000083231  -0.0000023684  -0.0000068066
       -0.0000068203  -0.0000043435  -0.0000040769   0.0000058795   0.0000030014
        0.0000042693   0.0000161014  -0.0000073445  -0.0000139154  -0.0000139508
        0.0000014833   0.0000070482   0.0000177790   0.0000029644  -0.0000129133
       -0.0000186600  -0.0000108716   0.0000079050   0.0000177400   0.0000037973
       -0.0000087084  -0.0000134926  -0.0000036654  -0.0000081346  -0.0000156927
        0.0000073954  -0.0000006937   0.0000105545  -0.0000124109  -0.0000259074
       -0.0000102173   0.0000295183  -0.0000108903  -0.0000223287   0.0000111959
       -0.0000750501   0.0000052653  -0.0000376717  -0.0000145928   0.0000023493
        0.0001083614  -0.0000321585  -0.0000365973  -0.0000497195  -0.0001636025
       -0.0000372506   0.0000544054   0.0000953573   0.0000120200  -0.0000931390
       -0.0000082763   0.0000320981   0.0000188986  -0.0000124985   0.0000473839
        0.0000578385   0.0000341136  -0.0000541212   0.0000622717   0.0001242510
        0.0000312833   0.0000223559   0.0000089843  -0.0000399145  -0.0000263412
       -0.0000004966  -0.0000432002   0.0000086518   0.0000198135  -0.0000011122
       -0.0000079791   0.0000171939  -0.0000042810  -0.0000098936  -0.0000125762
        0.0000083903   0.0000075973   0.0000147889  -0.0000054351  -0.0000302733
       -0.0000199725   0.0000029171   0.0000070591  -0.0000023440  -0.0000028414
        0.0000016798   0.0000045289  -0.0000007113   0.0000207667   0.0000252691
       -0.0000236098   0.0000485678  -0.0000311695  -0.0000563140   0.0000651024
       -0.0000640778   0.0000448331   0.0000921199   0.0000587113   0.0001647667
        0.0008184989   0.0099794092  -0.0108911026  -0.0084366427  -0.0110405300
       -0.0009519734   0.0075297357   0.0000927797   0.0125540585  -0.0239435365
       -0.0231386605  -0.0175896226   0.0251149779  -0.0160833897   0.0677840164
       -0.0089367913  -0.0137059285   0.0051905839   0.0172201434  -0.0637530310
        0.0734611070  -0.0195829518  -0.0152693256  -0.0114898690   0.0000623509
       -0.0000131240  -0.0000930440   0.0000273794  -0.0000060669   0.0000213776
       -0.0000098885  -0.0000028587  -0.0000016261  -0.0000077331  -0.0000068356
        0.0000010164   0.0000026692  -0.0000100321   0.0000022237   0.0000067947
       -0.0000021096   0.0000040572  -0.0000035211  -0.0000003947   0.0000007042
       -0.0000010119  -0.0000041893  -0.0000015988   0.0000010809  -0.0000029994
       -0.0000026285   0.0000017596  -0.0000045507   0.0000004543   0.0000013436
       -0.0000004691   0.0000005722   0.0000025151  -0.0000011706   0.0000043556
        0.0000375729   0.0000036235   0.0000070972  -0.0000019666  -0.0000008454
       -0.0000073863   0.0000083059   0.0000000651  -0.0000051816   0.0000275724
        0.0000146850  -0.0000057358  -0.0001574276  -0.0001135493   0.0000319528
        0.0000006660   0.0003192780   0.0000925599   0.0000045736   0.0000209865
       -0.0000103471   0.0000177715   0.0000223870  -0.0000389159   0.0000360906
       -0.0000194275  -0.0000033412  -0.0000448781  -0.0000063266   0.0000029313
       -0.0000112762   0.0000011920  -0.0000010386   0.0000254528  -0.0000338672
       -0.0000020041  -0.0000081050  -0.0000331381  -0.0000052864  -0.0000048526
       -0.0000256030  -0.0000000215  -0.0000022275   0.0000089903  -0.0000075017
        0.0000518405  -0.0000010101  -0.0000838435   0.0003720250  -0.0001385382
       -0.0000440798  -0.0001113120   0.0000035508  -0.0000330121   0.0001949445
        0.0001124172  -0.0000717202  -0.0027162380   0.0029126795   0.0036079017
        0.0420961267   0.1024829888  -0.1171528236   0.1832489573  -0.1039798485
        0.5871509372  -0.1357800751  -0.0901319566  -0.1608128727  -0.0267263268
       -0.0088025599  -0.0352674324  -0.0008452935   0.0045976389  -0.0018254631
        0.0003465342   0.0002259714   0.0006013033   0.0000557608  -0.0000889576
       -0.0001582702   0.0000688394  -0.0000275891   0.0000237752  -0.0000192473
        0.0000481557  -0.0001291312   0.0000148575  -0.0000029689   0.0000623515
        0.0000322119  -0.0000333655   0.0000802178  -0.0000237756   0.0000452080
       -0.0000188414   0.0000088540   0.0000034556  -0.0000020834   0.0000070026
        0.0000018910  -0.0000027872  -0.0000229611   0.0000010766  -0.0000063395
        0.0000192358   0.0000051433   0.0000047263   0.0000052206  -0.0000087411
        0.0000000910  -0.0000219239   0.0000110444  -0.0000254773   0.0000582942
        0.0000047409   0.0000032299  -0.0000831772  -0.0000000279  -0.0000199949
        0.0000114845  -0.0000302064  -0.0000049456   0.0000043362   0.0000070372
        0.0000034870   0.0000133158   0.0000053410  -0.0000061606  -0.0000111333
       -0.0000050543  -0.0000159004  -0.0000033246   0.0000157869   0.0000175023
        0.0000131120  -0.0000098780  -0.0000260509  -0.0000098098   0.0000150359
        0.0000225566   0.0000092337  -0.0000097453  -0.0000207130  -0.0000067999
        0.0000086976   0.0000109771   0.0000062164   0.0000106056   0.0000180913
       -0.0000361076   0.0000040165  -0.0000088766   0.0000351049   0.0000411398
        0.0000353219  -0.0000476664   0.0000282199   0.0000399483  -0.0000341124
        0.0000254294  -0.0000153069  -0.0000000696   0.0000137083  -0.0000018801
       -0.0000044505  -0.0001692842   0.0000578582   0.0000853802   0.0001025328
       -0.0000410984  -0.0000970282  -0.0000366138   0.0000118813   0.0000602532
       -0.0000491842   0.0000465179   0.0000354506  -0.0000056367   0.0000802482
       -0.0000296734  -0.0000482209   0.0000556120   0.0000208358   0.0000358920
       -0.0000953482  -0.0000532127  -0.0000450961   0.0000120548   0.0000276652
        0.0000178100   0.0000267967   0.0000001227  -0.0000171955   0.0000020787
        0.0000000027  -0.0000038740  -0.0000006436  -0.0000134235  -0.0000031654
        0.0000026598   0.0000284176  -0.0000088871   0.0000001088   0.0000193771
       -0.0000060532  -0.0000074265  -0.0000064739  -0.0000023700   0.0000019088
        0.0000032210  -0.0000005490   0.0000009131  -0.0000122226  -0.0000194926
        0.0000016322   0.0000028940  -0.0000012243   0.0000816728  -0.0000323003
        0.0000226383  -0.0000389516  -0.0001812896  -0.0000278730   0.0000500229
       -0.0006892442   0.0006019317  -0.0020462044  -0.0003174380  -0.0006427419
        0.0005554130  -0.0003978782   0.0000066214  -0.0010023659   0.0013015042
       -0.0046565729   0.0024118223   0.0084947812   0.0287563221  -0.0225039659
       -0.0068350688  -0.0119522607   0.0054849488  -0.0674441856   0.0734868002
       -0.2577893186   0.0072292743   0.0060303376   0.0056976504  -0.0000348853
       -0.0000034261  -0.0000331624  -0.0000258405   0.0000309696  -0.0000606103
        0.0000043670  -0.0000072890   0.0000053153   0.0000063145   0.0000051106
       -0.0000003341  -0.0000012610   0.0000074609  -0.0000011831  -0.0000039501
        0.0000006977   0.0000020676  -0.0000000234  -0.0000013920  -0.0000022654
        0.0000020575   0.0000023802  -0.0000010399   0.0000005860   0.0000023217
        0.0000009708  -0.0000005534   0.0000035603  -0.0000001681   0.0000022435
       -0.0000001819  -0.0000003640  -0.0000000138   0.0000001643  -0.0000032561
       -0.0000358876  -0.0000096644  -0.0000121194   0.0000083735  -0.0000019042
        0.0000115770  -0.0000122365   0.0000140457   0.0000073328  -0.0000089455
        0.0000022756   0.0000077350   0.0000371410   0.0001491038  -0.0000841462
        0.0003089914  -0.0002573402  -0.0000872606  -0.0000521341   0.0000207099
       -0.0000412579   0.0000042748   0.0000317327   0.0000017492  -0.0000377162
        0.0000268735   0.0000025128   0.0000394957   0.0000105582  -0.0000025018
        0.0000099366   0.0000005393  -0.0000016565  -0.0000274310   0.0000275061
        0.0000014135   0.0000109243   0.0000335815  -0.0000001424   0.0000099637
        0.0000259859   0.0000038963  -0.0000012761  -0.0000014420  -0.0000013933
        0.0000364929   0.0000376142  -0.0000620713   0.0001187282  -0.0000213960
       -0.0004532515   0.0000684187   0.0000050806   0.0001518039   0.0000503558
       -0.0002326114   0.0001746176  -0.0040546945   0.0042623508  -0.0031324506
       -0.0225155579  -0.0492274789   0.0261922322  -0.2029200723  -0.1058235314
       -0.1357800751   0.3968639766   0.2492392010   0.1593923890  -0.0702010693
       -0.0016133787  -0.0349680694  -0.0191484437  -0.0004529308  -0.0352307363
       -0.0013080392   0.0012859142  -0.0001017914  -0.0002096528   0.0003526435
       -0.0004165244  -0.0001575912   0.0002440879   0.0001163559   0.0001202292
        0.0003731116   0.0000181083  -0.0001284310   0.0000889755   0.0000154015
        0.0000495735  -0.0000547387   0.0000430333  -0.0000305619  -0.0000282573
        0.0000035322  -0.0000121037   0.0000115578   0.0000033812   0.0000171478
       -0.0000263597   0.0000096764  -0.0000351414   0.0000015951  -0.0000035712
        0.0000179702   0.0000251449   0.0000071911  -0.0000059990  -0.0000251186
        0.0000003526   0.0000086197   0.0000180006  -0.0000080270   0.0000197508
        0.0000065832   0.0000014081  -0.0000172989  -0.0000115840  -0.0000041063
        0.0000119997  -0.0000097813  -0.0000118204  -0.0000074607  -0.0000010198
        0.0000026120   0.0000029274  -0.0000041559  -0.0000085216  -0.0000015359
       -0.0000051958  -0.0000074749   0.0000038933   0.0000038095   0.0000083388
       -0.0000019914  -0.0000065564  -0.0000096934  -0.0000045770   0.0000034241
        0.0000079273   0.0000066854  -0.0000034110  -0.0000039720  -0.0000027090
        0.0000022667   0.0000064248   0.0000006826   0.0000006569   0.0000067485
       -0.0000041999  -0.0000019928   0.0000001547   0.0000096149   0.0000131440
        0.0000159625   0.0000095425  -0.0000522823   0.0000091710  -0.0000219984
        0.0000262961  -0.0000024518   0.0000155308   0.0000226621  -0.0000014525
        0.0000203433  -0.0000786991   0.0000045728  -0.0000885432  -0.0000119251
       -0.0000836906   0.0000499353   0.0000611588  -0.0000099743   0.0001342792
        0.0000130966  -0.0000028156   0.0001272431   0.0001496772   0.0001215612
       -0.0001300874  -0.0000235024   0.0002313716  -0.0000113651  -0.0001826978
       -0.0000259796   0.0000392180  -0.0000136727   0.0000215690  -0.0000152031
        0.0000161263  -0.0000098772  -0.0000273363  -0.0000116950   0.0000033587