45
 energy: -70.499448867187 gnorm: 0.000020966827 xtb: 6.7.1 (edcfbbe)
C            7.57180836543066        1.66438935080524        0.47231557527361
O            7.08379754838823        0.52867984795715       -0.19778546579853
C            5.73997305937565        0.30922888710024       -0.20526590676041
C            5.33306343966795       -0.85064637459287       -0.90542267828913
C            4.01627171388121       -1.18626570823147       -0.98775694319055
C            3.02348819298818       -0.38857253518725       -0.37571935792010
C            1.65762122384809       -0.71622286953776       -0.44129203863988
C            0.70857601958734        0.07087806823976        0.17354776456093
C           -0.71294214217049       -0.21930060838143        0.12805719157924
N           -1.63826118508378        0.71681747140390        0.05272225978609
C           -2.84618623249848        0.11672882546121        0.01155613771978
C           -4.06490397462003        0.90115113946443       -0.08317840447095
C           -4.00756204155594        2.16780779236600       -0.66616335696173
C           -5.14431866958154        2.94365504342433       -0.77227039465921
C           -6.35734109766560        2.47178159804712       -0.29605914177104
C           -6.42023484911629        1.22464323079580        0.30267814185515
C           -5.28449651326954        0.44450932452807        0.41402220968740
C           -2.66836839613951       -1.27068937250331        0.05935190142610
C           -3.50124741753845       -2.40055280608491       -0.01136037376614
C           -2.95872535575710       -3.64642918370898        0.09135356739048
C           -1.56309213035414       -3.79319945257706        0.29340653071629
C           -0.75496240174028       -2.70594578979610        0.31599771827925
N           -1.28475622386692       -1.46172307353090        0.14829855315045
C            1.11762006950051        1.24862335037474        0.84016831820251
C            2.43565491590230        1.58831542983286        0.91281726149228
C            3.42917521648485        0.77807583472312        0.32120755344730
C            4.79750259297545        1.10711325631699        0.39520330192409
H            7.32796535277684        1.63632418723314        1.53940533665170
H            8.65337013885731        1.63908097898407        0.34928099432298
H            7.17897971857518        2.58793894285272        0.03466302625991
H            6.10105235051067       -1.45134998382925       -1.36689631509069
H            3.71393849232964       -2.07398529126361       -1.52485080940482
H            1.37058948964270       -1.58161175359943       -1.02218923740712
H           -3.05562152715467        2.52262384892519       -1.02962823447885
H           -5.08813204072832        3.92116942691918       -1.22939344137537
H           -7.24812797355724        3.07680064792660       -0.38228929622294
H           -7.36022807156157        0.86030440858828        0.69247445085094
H           -5.33931094281136       -0.50931554532273        0.91677528940498
H           -4.55957836004565       -2.25914759900884       -0.15720880145582
H           -3.57963026478587       -4.52620562356636        0.03513896097263
H           -1.14057699574071       -4.77581184622938        0.42667517780043
H            0.30838693167466       -2.76461150510069        0.48452000896718
H            0.35331410070638        1.86653204919549        1.28475859055274
H            2.73889222203382        2.48868578648531        1.42807686639524
H            5.07285116694375        2.00080703803656        0.93390522624598
