53
 energy: -83.829145697471 gnorm: 0.000098835817 xtb: 6.7.1 (edcfbbe)
C           -5.12608553264030       -0.80354398192365       -1.87025039657014
C           -3.78076197745020       -0.42662910741083       -1.25030589811052
C           -2.77580071245598       -0.18765761784329       -2.39598822667453
C           -3.23827665422402       -1.51066137885285       -0.33616109529244
C           -3.71826984560125       -2.80942771125572       -0.28732366040240
C           -3.17127497006638       -3.73746289538293        0.58364332697277
C           -2.15302861729730       -3.36966314790688        1.44542146080570
C           -1.66247620575745       -2.07840201176352        1.41844575264720
C           -2.17747260410815       -1.16176984263303        0.50834697747078
N           -1.72563253105444        0.17096523836711        0.47815239404389
C           -0.39582205828073        0.52285233261619        0.33433830637637
C           -0.02470761526025        1.87664992575198        0.13999715001881
C            1.28773033133728        2.22514329303390       -0.00464980160637
C            2.31016142583457        1.26056143741888        0.00336265736977
C            1.94993279340566       -0.09113818864404        0.13926146882775
C            0.60340904370394       -0.43998973732979        0.28350277512879
C            2.93112307809216       -1.16323106409972        0.12499856938714
O            2.60959003943029       -2.35703559006173        0.24099254885571
C            4.30871105025030       -0.72800722700618       -0.02698979131580
C            5.31541448727922       -1.70721113941495       -0.04857000267344
C            6.63352469112176       -1.35233779361368       -0.18263088598286
C            6.98946536878186       -0.00592625635054       -0.30189087346341
C            6.02127007934409        0.96606741943644       -0.28578578284235
C            4.66667776112368        0.62402837372711       -0.15046634380460
C            3.68353956542970        1.69704442944094       -0.15250511140498
O            3.99351501756792        2.89220890532842       -0.26768656878020
C           -2.78045358172124        1.09923134597827        0.44366555633540
C           -2.79744450395960        2.20179360631838        1.29150684988670
C           -3.86811180147808        3.07460817605307        1.26328414943630
C           -4.92882921552289        2.83482266311750        0.40738081572613
C           -4.93080762731803        1.71275485369831       -0.40528925004644
C           -3.86543929724873        0.82707155997797       -0.39881105693084
H           -5.01961980513726       -1.69655022916525       -2.48060479855274
H           -5.47388204619757       -0.00721849965909       -2.52331306863671
H           -5.87376109961174       -0.98534302294413       -1.10145672176782
H           -1.79224639391060        0.08358600154964       -2.02235266453268
H           -2.67572597360926       -1.09220899431875       -2.99179346251047
H           -3.13178411846404        0.61595346167401       -3.03719630492224
H           -4.52638329939405       -3.11531223735172       -0.93136217637986
H           -3.55508934485129       -4.74611344936489        0.59856550005804
H           -1.74621267140770       -4.08207764867145        2.14612110094705
H           -0.90014019897968       -1.77051633530876        2.11719275550798
H           -0.78301856427030        2.63965022830662        0.06890191539580
H            1.57636528854223        3.25543056403136       -0.15182254204356
H            0.38231334585575       -1.49438826319704        0.33045691743920
H            5.01086889306303       -2.73915908298192        0.04618827924538
H            7.39819367125584       -2.11503309983036       -0.19525473458960
H            8.02826587267691        0.27000982969247       -0.40753109293003
H            6.26634206611470        2.01393552590646       -0.37815829590885
H           -1.98463916085430        2.35433116219656        1.98543493985807
H           -3.87841125066917        3.93219070959527        1.91835565064207
H           -5.76697953549392        3.51432506267742        0.38126742838094
H           -5.77851067106273        1.53903711312023       -1.04758998896673
