$hessian                                                                        
        0.0793759964   0.1461942722  -0.0121583466  -0.0906637604  -0.1303268582
        0.0118266671  -0.0019675127  -0.0222500225   0.0021539973   0.0020404249
       -0.0016808160  -0.0004905164   0.0008664012   0.0001159043  -0.0013280173
        0.0003334805  -0.0001556973  -0.0001858142  -0.0007506078   0.0005100812
       -0.0015001756  -0.0036259316   0.0007787403   0.0014216927   0.0085393980
        0.0086026697  -0.0004192793   0.0010002230  -0.0009645304  -0.0001316842
       -0.0003195321  -0.0010468496   0.0003355733   0.0001034071  -0.0000803424
        0.0000407949  -0.0009065304  -0.0005831542  -0.0001395632  -0.0001621428
        0.0008414795  -0.0006635210   0.0069461782  -0.0001589286   0.0000965582
       -0.0002057948  -0.0005613739   0.0003099229  -0.0001889845   0.0007973823
        0.0004288708  -0.0000114321  -0.0001963435  -0.0001242530  -0.0004276154
        0.0004384247   0.0000933541   0.0001008166  -0.0003172243  -0.0010127200
        0.0004998483  -0.0001955405   0.0005297517   0.0002169101   0.0003486497
       -0.0000872348  -0.0000495030  -0.0000459629   0.0001720573   0.0001672788
        0.0000001266   0.0000999686  -0.0001062441   0.0000023552  -0.0000140732
        0.0002442784   0.0000682817  -0.0000036812  -0.0000825143  -0.0001105013
       -0.0000421282   0.0001133063  -0.0000415656  -0.0000292081  -0.0000696255
       -0.0000217856  -0.0000222466  -0.0000134118  -0.0000626210  -0.0000035189
       -0.0000457250   0.0000557304  -0.0000009702   0.0000206317  -0.0000222487
       -0.0000176164  -0.0000437587  -0.0000091299  -0.0000034035   0.0000291430
       -0.0000377103   0.0000058180  -0.0000606590  -0.0000011206  -0.0000080073
        0.0000511891  -0.0000149191   0.0000104056  -0.0000138815   0.0000323611
        0.0000003118   0.0000304867   0.0000026890   0.0000090393   0.0000190479
        0.0000512278   0.0000109659  -0.0000474868  -0.0000622654  -0.0000148110
        0.0000559856   0.0000386200   0.0000170818  -0.0000310382  -0.0000813783
       -0.0000125735   0.0000552068   0.0000524134   0.0000210261  -0.0000665490
       -0.0000203813  -0.0000162426   0.0000102178  -0.0000320112   0.0000061018
       -0.0000193684  -0.0000003521   0.0000061016  -0.0000008364   0.0000154300
        0.0000031822   0.0000109005   0.0000430866  -0.0000124323   0.0000199897
       -0.0000113669  -0.0000071146   0.0000109226   0.0000661686  -0.0000388655
       -0.0000060785  -0.0000126466   0.0000265325   0.0000123346   0.0000319313
       -0.0000133573  -0.0000077949  -0.0000269213  -0.0000248082   0.0000136815
        0.0000064403   0.0000211296  -0.0000140665  -0.0000342783  -0.0000360205
       -0.0000069210  -0.0000038476   0.0000377540  -0.0000032171  -0.0000012889
       -0.0000199453   0.0000017639   0.0000047635   0.0000136188  -0.0000058254
       -0.0000035922   0.0000048947  -0.0000087872   0.0000104622  -0.0000003170
        0.0000142679   0.0000191666   0.0000118370   0.0000939658   0.0001051637
        0.0000748846  -0.0001297497   0.0000527161   0.0001260177   0.0000880514
       -0.0000842265  -0.0000028878   0.0001110651   0.0000234565   0.0000780814
       -0.0005231602   0.0006193546  -0.0003279869   0.0004552152  -0.0005027212
        0.0001361944   0.0000254455  -0.0000285373  -0.0000077553  -0.0000068816
       -0.0000050810  -0.0000117931   0.0000164483   0.0000060691   0.0000035214
        0.0000062904  -0.0000033927   0.0000159513  -0.0000473848   0.0000347884
       -0.0000033720  -0.0000037905   0.0000017875   0.0001576867   0.0000755874
       -0.0000583537   0.0000231820   0.0000118750  -0.0000226496   0.0000327367
       -0.0000060109   0.0000020698   0.0000096042   0.0000036666   0.0000008038
       -0.0000043626  -0.0000015729   0.0000005353  -0.0000036281   0.0000060614
       -0.0000003816  -0.0000185651  -0.0006748253  -0.0009623416  -0.0002655115
       -0.0000190091   0.0000483230   0.0000785733  -0.0001852318  -0.0002464886
        0.0001995540  -0.0004866584  -0.0001548044  -0.0001944051  -0.0003822539
       -0.0000934616   0.0004989736   0.0001631699   0.0000735382  -0.0001103606
       -0.0000217080   0.0000164200  -0.0000374145   0.0001031501   0.0002110143
        0.0000452900  -0.0000515794  -0.0000641539   0.0001101173   0.0002197746
        0.0002520395   0.0002984248   0.0002092201   0.0007968183   0.0003705418
        0.0000395611   0.0000102702   0.0001087222   0.0001335154   0.0000554735
       -0.0000722096  -0.0000856677   0.0001205705   0.0000138103  -0.0000412493
       -0.0000146814  -0.0001650651   0.0000170318   0.0000238067  -0.0000642053
       -0.0000028463   0.0000063188  -0.0000153114  -0.0000099226  -0.0000067613
       -0.0000109241  -0.0000069751   0.0000101122   0.0000138103   0.0000091090
       -0.0000087512   0.0000149470   0.0000018435  -0.0000032078   0.0000014631
       -0.0000122635  -0.0000134492  -0.0000039924  -0.0000184286  -0.0000019462
       -0.0000039831  -0.0000083243   0.0000067773  -0.0000010559  -0.0000164494
        0.0000060425  -0.0000038927  -0.0000034802   0.0000097155  -0.0000011511
       -0.0000032009  -0.0000116494  -0.0000062684  -0.0000052868   0.0000117590
       -0.0000096102  -0.0000097725  -0.0000037344   0.0000002848  -0.0000056344
       -0.0000105294   0.0000034052  -0.0000020054  -0.0000045328  -0.0000102043
       -0.0000027943   0.0000001621   0.0000093632  -0.0000084844  -0.0000120424
        0.0000106518  -0.0000041162  -0.0000140305  -0.0000016565  -0.0000065710
       -0.0000135635   0.0000037338  -0.0000057325  -0.0000148643  -0.0000096437
        0.0000006925  -0.0000008652  -0.0000068874   0.0000006599  -0.0000090437
        0.0000113233   0.0000040960  -0.0000038474  -0.0000180038   0.0000143012
       -0.0000220761  -0.0000616349  -0.0000277237   0.0000126777  -0.0000430411
        0.0000310714   0.0000178641  -0.0000423579   0.0000137660  -0.0000010944
       -0.0000049801   0.0000209997  -0.0000116973   0.0000074194   0.0000855240
       -0.0000248945   0.0000033331  -0.0000365588  -0.0000616603  -0.0000332956
       -0.0000295456   0.0000136549   0.0000044598  -0.0000122148  -0.0000052204
       -0.0000110990  -0.0000072304  -0.0000045673  -0.0000038069  -0.0000098828
       -0.0000038006  -0.0000010172  -0.0000095605   0.0000057196  -0.0000052653
        0.1461942722   0.5813804313  -0.0443453879  -0.1328631675  -0.5402777950
        0.0407479324  -0.0059487845  -0.0068766467  -0.0019296337   0.0001140632
       -0.0017575613  -0.0025753508  -0.0003584271   0.0006112334  -0.0000302650
        0.0005345615   0.0002333752   0.0002107839  -0.0000304466  -0.0001888332
       -0.0007826820  -0.0032806140  -0.0001480382   0.0015579231  -0.0012162743
       -0.0183973228  -0.0017798251  -0.0013290848  -0.0005491791  -0.0032263561
        0.0014369380   0.0009518714  -0.0004495498  -0.0003781780   0.0002373721
        0.0004698139   0.0010223487   0.0010195597  -0.0002910787   0.0022264792
       -0.0012899632   0.0024489260  -0.0047294017  -0.0150078416   0.0045169484
       -0.0021085098  -0.0020370040  -0.0015205160   0.0000200568   0.0003827526
       -0.0000502787   0.0000580487   0.0003303740  -0.0005228693  -0.0006984194
       -0.0009285132  -0.0000617447   0.0014331671   0.0000655318   0.0036554422
       -0.0003736430   0.0001491942   0.0009017127   0.0016970239   0.0008930119
       -0.0001389087  -0.0003857634  -0.0000468981   0.0002079886   0.0001721617
        0.0001797861   0.0001985178  -0.0005390801  -0.0001065936  -0.0000473881
        0.0004923536   0.0001476617   0.0000381637  -0.0001501719  -0.0001392778
       -0.0001027304   0.0001237447   0.0000170788   0.0000024916  -0.0000423843
       -0.0000060958   0.0000020936  -0.0000085856  -0.0001152588   0.0000089933
       -0.0000680319   0.0000843155  -0.0000152557  -0.0000013832  -0.0001013620
        0.0000360002  -0.0001200630  -0.0000567949   0.0000121954   0.0001098047
       -0.0001418250   0.0000267062  -0.0000537261   0.0001120995  -0.0000131463
        0.0000254282  -0.0000064949  -0.0000165685  -0.0000435534   0.0000843688
       -0.0000054023   0.0001039355   0.0000293978   0.0000262639   0.0000918453
        0.0001956996   0.0000400817  -0.0002097683  -0.0002094850  -0.0000709214
        0.0002332205   0.0000746331   0.0000624551  -0.0001199415  -0.0002169941
       -0.0000435201   0.0002293599   0.0001709560   0.0000710368  -0.0001945570
       -0.0000850786  -0.0000595135  -0.0000714813  -0.0001143899  -0.0000357047
       -0.0000791001   0.0000504934  -0.0000147692   0.0000086383  -0.0000694213
        0.0000259940   0.0000657613   0.0001060942  -0.0000099198   0.0000887023
       -0.0000176273  -0.0000385623   0.0000237176   0.0001273448  -0.0000896116
       -0.0000187474  -0.0000510610   0.0000092580   0.0000186025   0.0000548380
       -0.0000356177  -0.0000112360  -0.0000363176  -0.0000404388   0.0000252053
        0.0000189660   0.0000271979  -0.0000203592  -0.0000383944  -0.0000521473
       -0.0000114488   0.0000008099   0.0000625738  -0.0000023373   0.0000088145
       -0.0000251705   0.0000031121   0.0000092263   0.0000226186  -0.0000120228
       -0.0000024265   0.0000134870  -0.0000206839  -0.0000219506   0.0000242665
        0.0000270327   0.0000637807   0.0000451226   0.0001363024   0.0000824127
        0.0000575831  -0.0002346135  -0.0000166581   0.0000909938   0.0003390628
       -0.0000828274  -0.0001509530  -0.0003460342  -0.0002534386  -0.0000930296
        0.0007036075   0.0010676241  -0.0005459863  -0.0004555139  -0.0008553041
        0.0003095208  -0.0000399454  -0.0000549975   0.0000820864   0.0000571749
       -0.0000242571   0.0000124250   0.0000149026  -0.0000027075  -0.0000643817
       -0.0000695667   0.0000080347  -0.0000483605  -0.0001133295  -0.0000401095
        0.0000303912   0.0000149832  -0.0000536017  -0.0001363945  -0.0001056835
       -0.0000976970   0.0000688418  -0.0000086010  -0.0000170475  -0.0000214649
       -0.0000065913  -0.0000163626   0.0000459172   0.0000027977   0.0000042862
        0.0000080489   0.0000094344  -0.0000007136  -0.0000231387  -0.0000477437
       -0.0000690967  -0.0000253981   0.0001501430   0.0008106646   0.0014710970
       -0.0002694444   0.0000896843   0.0001735536   0.0000377980   0.0000399643
        0.0002136102  -0.0002972569   0.0000559285  -0.0000375098   0.0001985561
        0.0007154149   0.0009067552  -0.0008764759  -0.0002214311  -0.0001426023
        0.0002939923  -0.0001487062  -0.0001763725  -0.0002654159  -0.0003115032
       -0.0000324113   0.0000051712  -0.0000873564  -0.0002840904  -0.0010214734
       -0.0002098137   0.0000183002   0.0010008163   0.0008940025   0.0005998583
        0.0001499473   0.0000823931   0.0002233143   0.0001116259   0.0001124720
       -0.0000448454   0.0000408328  -0.0000657548   0.0003884535   0.0000688024
       -0.0000749914  -0.0000769694  -0.0000698759   0.0000069149   0.0000020020
        0.0000110090   0.0000088435   0.0000066998  -0.0000068973  -0.0000113740
       -0.0000038263   0.0000105469  -0.0000054057   0.0000079595  -0.0000013910
        0.0000136809   0.0000086636   0.0000051741   0.0000002422   0.0000064884
       -0.0000214453  -0.0000290036  -0.0000082379  -0.0000344552   0.0000021188
       -0.0000076415  -0.0000175963   0.0000255166  -0.0000028982  -0.0000231863
        0.0000180157  -0.0000062364  -0.0000017500   0.0000495660   0.0000017938
        0.0000468977   0.0000209133   0.0000174011  -0.0000000409  -0.0000164967
       -0.0000060728  -0.0000147537   0.0000006360  -0.0000161564  -0.0000049070
       -0.0000224984  -0.0000020420  -0.0000007369   0.0000021889  -0.0000103392
       -0.0000016712  -0.0000003158   0.0000269109  -0.0000134935  -0.0000215639
        0.0000220250  -0.0000059445  -0.0000267423  -0.0000010680  -0.0000100643
       -0.0000236973   0.0000061941  -0.0000085072  -0.0000259497  -0.0000182905
        0.0000018258  -0.0000063179  -0.0000232091   0.0000007378  -0.0000020190
        0.0000090071  -0.0000249386   0.0000054652  -0.0000091300   0.0000084938
        0.0000101037  -0.0000114061  -0.0000210548  -0.0000229445   0.0000001463
       -0.0000004261   0.0000016969   0.0000106739  -0.0000070157  -0.0000099213
        0.0000379354   0.0000320133  -0.0000173121   0.0000463373  -0.0000045007
        0.0000101010  -0.0000159373  -0.0000592179   0.0001005958   0.0000715757
        0.0000128696   0.0000352296   0.0000545640  -0.0000071538  -0.0000213137
       -0.0000261246  -0.0000182328  -0.0000382969  -0.0000109438  -0.0000165905
       -0.0000330306   0.0000085359   0.0000078102   0.0000152411  -0.0000143500
       -0.0121583466  -0.0443453879   0.0445184368   0.0109724249   0.0349410960
       -0.0569604747  -0.0015187611  -0.0034329542   0.0063322968  -0.0004405684
       -0.0008516730  -0.0003174764  -0.0003136162   0.0004533945  -0.0005965379
        0.0001288038   0.0000686574   0.0000570536  -0.0002937293   0.0007303116
       -0.0004773367   0.0006507553   0.0005863668   0.0004304950  -0.0032136048
       -0.0129228859   0.0061264605  -0.0005195731  -0.0003443644  -0.0015114555
        0.0008583761   0.0005374444  -0.0006650342   0.0002670439  -0.0001422709
        0.0005021873   0.0003583089   0.0008326884   0.0009152368  -0.0009437888
        0.0003034675   0.0015564828   0.0044417665   0.0216228339   0.0006363071
        0.0007695260   0.0011833916   0.0021522215   0.0010914005   0.0011117618
        0.0008326201  -0.0002121561  -0.0004867701   0.0002186870   0.0005977861
        0.0009679223  -0.0002260110  -0.0024416383  -0.0020701801  -0.0051449133
        0.0003801124   0.0013042210   0.0007470639  -0.0004606851  -0.0003134639
        0.0000356062   0.0002944524  -0.0000922555  -0.0000830741  -0.0001634516
       -0.0002092325  -0.0001016601   0.0006396372   0.0001552259   0.0000283898
       -0.0006453625  -0.0001871434  -0.0000107356   0.0002433510   0.0002319392
        0.0001729373  -0.0002695666   0.0000394927   0.0000443442   0.0001520325
        0.0000358632   0.0000399934   0.0000118824   0.0000794526  -0.0000155172
        0.0000340342  -0.0000489969   0.0000144969   0.0000142554   0.0000454442
       -0.0000205971   0.0000721957   0.0000263441  -0.0000101907  -0.0000508702
        0.0000661883  -0.0000168850   0.0000192653  -0.0000365195   0.0000133447
        0.0000075492   0.0000079138   0.0000058018   0.0000120211  -0.0000521822
        0.0000019306  -0.0000516696  -0.0000066524  -0.0000106849  -0.0000386212
       -0.0001030433  -0.0000166723   0.0001067109   0.0001001298   0.0000360905
       -0.0001268401  -0.0000381145  -0.0000374827   0.0000563998   0.0001244682
        0.0000230241  -0.0001097105  -0.0000954490  -0.0000365607   0.0001038562
        0.0000264138   0.0000309309   0.0000141440   0.0000517307   0.0000089793
        0.0000496497  -0.0000176968   0.0000166022  -0.0000058948  -0.0000013480
       -0.0000207194  -0.0000342020  -0.0000626947   0.0000110793  -0.0000378169
        0.0000088011   0.0000185327  -0.0000013108  -0.0000890715   0.0000593720
        0.0000078109   0.0000219671  -0.0000354856  -0.0000206476  -0.0000480918
        0.0000141940   0.0000112008   0.0000380900   0.0000305738  -0.0000191658
       -0.0000043155  -0.0000186804   0.0000098775   0.0000371515   0.0000414689
        0.0000059683   0.0000009879  -0.0000507063  -0.0000005758  -0.0000011194
        0.0000261074  -0.0000051838  -0.0000099246  -0.0000121439   0.0000001326
        0.0000049966  -0.0000037183   0.0000090380   0.0000192290  -0.0000193495
       -0.0000191907  -0.0000476109  -0.0000190161  -0.0002005220  -0.0001571488
       -0.0001298965   0.0003568820  -0.0000837516  -0.0001248468  -0.0002225860
        0.0001571266   0.0002191714   0.0000804938  -0.0000473491   0.0001760789
        0.0003984526   0.0001214609  -0.0008668567  -0.0002617761  -0.0003141778
        0.0004946337  -0.0000201706   0.0000244553   0.0001131888   0.0000307085
        0.0000438464   0.0000316926   0.0000100888   0.0000148757   0.0000499505
        0.0000277729   0.0000224685  -0.0000180866   0.0000368809  -0.0000343060
        0.0000339740  -0.0000123853  -0.0000224056  -0.0001928822  -0.0000761215
       -0.0000285973   0.0000685164   0.0000283810   0.0000624343  -0.0000590095
       -0.0000033774  -0.0000146853  -0.0000029781  -0.0000058260  -0.0000081523
        0.0000146317  -0.0000078276  -0.0000127546  -0.0000020611  -0.0000194341
       -0.0000314288  -0.0000067540   0.0001380860   0.0003171139   0.0006097811
       -0.0001156063   0.0000563828   0.0000131205  -0.0000207143  -0.0000815601
        0.0001715092   0.0000041355   0.0000163209  -0.0000322342   0.0001942205
       -0.0000166112   0.0001956670   0.0001016416  -0.0005803303   0.0001376340
        0.0002861577  -0.0001083384  -0.0000511168   0.0000027221  -0.0002295807
       -0.0000331536  -0.0000590211   0.0000371505   0.0000474114   0.0005143491
       -0.0004218025   0.0004642861   0.0006024120   0.0010991163  -0.0003547125
       -0.0000254909  -0.0000180107   0.0000922924   0.0000555766   0.0001286206
       -0.0001137499   0.0000951997   0.0002300920  -0.0004133232  -0.0001492868
        0.0000346960   0.0000794775   0.0000050242   0.0000229060  -0.0000239546
       -0.0000118879   0.0000230616   0.0000002947   0.0000040339   0.0000159772
        0.0000017592  -0.0000089610   0.0000053481  -0.0000093575   0.0000005968
       -0.0000163724  -0.0000055073  -0.0000030847   0.0000032834  -0.0000039474
        0.0000103320   0.0000123709   0.0000042775   0.0000162793  -0.0000005893
        0.0000029928   0.0000080444  -0.0000111066  -0.0000010190   0.0000108249
       -0.0000080582  -0.0000012505   0.0000002868  -0.0000180830  -0.0000063850
       -0.0000135274  -0.0000098638  -0.0000130463  -0.0000012211   0.0000061258
       -0.0000054674   0.0000047173   0.0000007150   0.0000080657  -0.0000022058
        0.0000093143   0.0000034470   0.0000010986   0.0000036935   0.0000052964
        0.0000014807   0.0000012325  -0.0000063381   0.0000070223   0.0000095095
       -0.0000068637   0.0000021475   0.0000155328   0.0000028499   0.0000041493
        0.0000087781   0.0000004879   0.0000035354   0.0000115045   0.0000134045
       -0.0000008455   0.0000010200   0.0000206058   0.0000013029  -0.0000081013
       -0.0000052947   0.0000041640  -0.0000040474   0.0000030690  -0.0000054580
       -0.0000102191  -0.0000024794   0.0000289710   0.0000615003  -0.0000167013
       -0.0000553062  -0.0000274429   0.0000154191  -0.0000042049  -0.0000365972
        0.0000465054   0.0000090445  -0.0000162990   0.0000186214  -0.0000553348
        0.0000088168  -0.0000136220  -0.0000134713   0.0000910344   0.0000289208
        0.0000109967   0.0000180293   0.0000252104   0.0000043023   0.0000095816
        0.0000200164   0.0000005312  -0.0000055754   0.0000062325  -0.0000002002
       -0.0000124979   0.0000065406  -0.0000024139  -0.0000136259   0.0000156323
       -0.0906637604  -0.1328631675   0.0109724249   0.3972858542   0.0911510425
       -0.0219767544  -0.1501713435  -0.0096529738  -0.0195840300  -0.0266487918
        0.0086768511   0.0067815320   0.0001954175   0.0030695974   0.0034446701
       -0.0014404858  -0.0004141402  -0.0000169126   0.0021803878  -0.0021839066
       -0.0009423947  -0.0105678669  -0.0100870781  -0.0073426354  -0.0717960236
        0.0318368058   0.0425526531  -0.0137689656   0.0119821109   0.0086804599
       -0.0001132640   0.0056292716  -0.0020321638  -0.0007428935   0.0007018859
       -0.0003292401   0.0043199292   0.0019526978  -0.0013349485   0.0029226759
       -0.0031427834   0.0068418410  -0.0431886254   0.0053625908  -0.0166715905
       -0.0022294983   0.0022745661  -0.0110949117   0.0033366373  -0.0047961939
       -0.0021184596   0.0001037885   0.0009262078  -0.0003166502   0.0036169657
       -0.0038434983  -0.0000736917   0.0036525556   0.0021693288   0.0075372872
       -0.0030164067   0.0022811199  -0.0016206735  -0.0000939195  -0.0012055008
        0.0002810857   0.0000799662   0.0001085242  -0.0008999214  -0.0004520145
        0.0002036952  -0.0002441095  -0.0001726436  -0.0001264508   0.0000115208
       -0.0001237491  -0.0000087672   0.0000380043   0.0000675063   0.0000809950
       -0.0000140682  -0.0000456830   0.0000504748   0.0000188620   0.0000742162
        0.0000707233  -0.0000010960  -0.0000126891   0.0000586332   0.0000687005
        0.0001000797  -0.0001069537  -0.0000106347  -0.0000607623   0.0000555741
        0.0000403092   0.0000520014   0.0000143004   0.0000265940  -0.0000669740
        0.0000861996  -0.0000163339   0.0001481766   0.0000356119   0.0000162639
       -0.0001158054   0.0000355393  -0.0000004815   0.0000338545  -0.0000395019
       -0.0000006379  -0.0000312048  -0.0000160102  -0.0000144212  -0.0000350490
       -0.0000630504  -0.0000205219   0.0000741989   0.0001073212   0.0000198880
       -0.0000620044  -0.0000635244  -0.0000231850   0.0000441335   0.0001350646
        0.0000102639  -0.0000872024  -0.0000875315  -0.0000355805   0.0001133778
        0.0000513250   0.0000213160  -0.0000196225   0.0000390063  -0.0000210039
        0.0000051811   0.0000108819  -0.0000270291   0.0000045207  -0.0000591992
       -0.0000135746  -0.0000067222  -0.0000505153   0.0000106402  -0.0000504251
        0.0000278538   0.0000166798  -0.0000661985  -0.0001092507   0.0000517072
        0.0000034874   0.0000142451  -0.0000110683  -0.0000097793  -0.0000558656
        0.0000283403   0.0000110496   0.0000444567   0.0000450850  -0.0000200094
       -0.0000184246  -0.0000399755   0.0000259006   0.0000542554   0.0000791123
        0.0000163432   0.0000118623  -0.0000698580   0.0000040292  -0.0000007439
        0.0000341165  -0.0000026612  -0.0000045852  -0.0000281119   0.0000143898
        0.0000001318  -0.0000126534   0.0000117550  -0.0000363193   0.0000030351
       -0.0000175695  -0.0000302963  -0.0000302085  -0.0001209715  -0.0001764684
       -0.0000818748   0.0000750585  -0.0000712197  -0.0002512482   0.0000459949
        0.0002068107  -0.0001259159  -0.0005565887  -0.0000988215  -0.0002191704
        0.0019690134  -0.0012574334   0.0006548260  -0.0018269405   0.0011095235
       -0.0000156287  -0.0000705122   0.0000257072   0.0000079857   0.0000000839
       -0.0000064538   0.0000341730  -0.0000253309  -0.0000099637  -0.0000377033
       -0.0000271323   0.0000174033  -0.0001005540   0.0000001681  -0.0000993709
       -0.0000042132   0.0000084844  -0.0000174120  -0.0004616236  -0.0002822832
        0.0001303237  -0.0000315589  -0.0000364225   0.0000434561  -0.0000631167
        0.0000292090  -0.0000021063  -0.0000069944  -0.0000024215   0.0000045099
        0.0000060118   0.0000215314   0.0000039244   0.0000096531   0.0000087683
       -0.0000170909   0.0000359005   0.0007360891   0.0009315982  -0.0002303649
       -0.0001365265  -0.0003923946  -0.0002295947   0.0006953898   0.0002670235
       -0.0001158705   0.0003448106   0.0005998031   0.0004077841   0.0019057801
        0.0001646462   0.0003086944  -0.0005372419  -0.0010468499  -0.0003472015
       -0.0002387529   0.0002766876   0.0005458404  -0.0004978068  -0.0009498605
       -0.0002211090   0.0001580054   0.0000251877  -0.0006950847  -0.0014927145
       -0.0003150351  -0.0012598295  -0.0021581189  -0.0001063532  -0.0001052559
       -0.0000162836   0.0000843842  -0.0004607276  -0.0010910900   0.0003980274
        0.0003786126   0.0000384040  -0.0004678069   0.0004314993   0.0001949805
        0.0001708420   0.0006115845  -0.0000597605  -0.0000992633   0.0002505844
        0.0000052920  -0.0000062389   0.0000543859   0.0000307293   0.0000245241
        0.0000347554   0.0000338656  -0.0000365363  -0.0000271696  -0.0000169281
        0.0000293175  -0.0000373869   0.0000030584   0.0000087265  -0.0000021879
        0.0000320480   0.0000355858   0.0000077811   0.0000476664   0.0000076233
        0.0000083134   0.0000233315  -0.0000131047   0.0000004333   0.0000480751
       -0.0000107407   0.0000088665   0.0000143947  -0.0000153709   0.0000014634
        0.0000249714   0.0000372340   0.0000184868   0.0000283613  -0.0000416053
        0.0000248412   0.0000291357   0.0000092825  -0.0000092466   0.0000245946
        0.0000253520  -0.0000170913   0.0000106020   0.0000100240   0.0000144057
        0.0000089679  -0.0000023440  -0.0000216161   0.0000187148   0.0000301282
       -0.0000262523   0.0000138754   0.0000332432   0.0000060117   0.0000179001
        0.0000344154  -0.0000106294   0.0000165894   0.0000348043   0.0000223448
        0.0000040399  -0.0000002806   0.0000127837   0.0000054091   0.0000244804
       -0.0000223325  -0.0000068019   0.0000082110   0.0000411474  -0.0000309714
        0.0000776205   0.0001709624   0.0000779340  -0.0000503237   0.0001605561
       -0.0000939995  -0.0000469554   0.0001278904  -0.0000447328   0.0000016574
        0.0000395986  -0.0000254251   0.0000194465   0.0000186052  -0.0001936606
        0.0000641893  -0.0000034637   0.0000670969   0.0001909315   0.0001232788
        0.0000799939  -0.0000377970  -0.0000086133   0.0000329439   0.0000013976
        0.0000144125   0.0000137838  -0.0000044751   0.0000039064   0.0000210976
       -0.0000031095   0.0000078351   0.0000254086  -0.0000097862   0.0000015534
       -0.1303268582  -0.5402777950   0.0349410960   0.0911510425   0.7207907344
       -0.0178284779  -0.0147756179  -0.0399391310   0.0020635390   0.0103120671
        0.0040438144   0.0048242053   0.0031529488   0.0003687272  -0.0045456822
       -0.0002798937  -0.0008699696  -0.0006411757  -0.0017708651   0.0008956485
       -0.0044784119  -0.0128198457  -0.0017554150  -0.0031272616   0.0345726355
       -0.0768532779  -0.0475391911   0.0116202276  -0.0095064637  -0.0042866802
        0.0039724137   0.0024639007   0.0011780398   0.0008915316  -0.0007923558
       -0.0001273661   0.0010822805   0.0042621975   0.0012603705  -0.0041806250
        0.0008771117  -0.0093429032   0.0099639577  -0.0513632369   0.0393149060
        0.0034093838   0.0081268142  -0.0047957789  -0.0035650562  -0.0000232302
       -0.0030058496  -0.0003271847  -0.0010894595   0.0003747356  -0.0025688670
       -0.0016023130   0.0013137679  -0.0005210239  -0.0102332154   0.0188161130
        0.0056994855   0.0049380782  -0.0036669896  -0.0042377775  -0.0016947142
        0.0007578153   0.0005002078   0.0003066780  -0.0003176970  -0.0002000259
       -0.0003181587  -0.0003797526   0.0008548904   0.0001136595   0.0000700464
       -0.0007108964  -0.0001947517  -0.0000681725   0.0001809504   0.0001720386
        0.0001629106  -0.0001035525  -0.0000343256  -0.0000171994  -0.0000017981
       -0.0000377532  -0.0000059745   0.0000344409   0.0002006308  -0.0000322472
        0.0001030424  -0.0001423069   0.0000314251   0.0000219999   0.0001611939
       -0.0000630587   0.0002333506   0.0000833483  -0.0000315530  -0.0001884661
        0.0002492346  -0.0000507883   0.0000476650  -0.0001592338   0.0000189411
       -0.0000489244   0.0000162778   0.0000584905   0.0000494411  -0.0001631260
       -0.0000002317  -0.0001670414  -0.0000325472  -0.0000405846  -0.0001364746
       -0.0003265706  -0.0000596447   0.0003482376   0.0003258102   0.0001169805
       -0.0004062615  -0.0001050344  -0.0001057018   0.0001881634   0.0003770739
        0.0000629353  -0.0003680956  -0.0002804892  -0.0001097913   0.0003212541
        0.0001194014   0.0000912763   0.0001043435   0.0001828673   0.0000581741
        0.0001683006  -0.0000671552   0.0000477236  -0.0000298361   0.0001376694
       -0.0000548747  -0.0001118474  -0.0001987835   0.0000297020  -0.0001287676
        0.0000334353   0.0000559431  -0.0000254765  -0.0002000999   0.0001394464
        0.0000388160   0.0000943605   0.0000220258  -0.0000340026  -0.0000823499
        0.0000522236   0.0000180843   0.0000589659   0.0000638078  -0.0000469390
       -0.0000207530  -0.0000444895   0.0000435499   0.0000633545   0.0000634493
        0.0000246955  -0.0000040908  -0.0000900697   0.0000049125  -0.0000083484
        0.0000420337  -0.0000068685  -0.0000187897  -0.0000338605   0.0000234630
        0.0000102518  -0.0000216672   0.0000394666   0.0000553639  -0.0000433664
       -0.0000461911  -0.0000995713  -0.0000555456  -0.0001399152  -0.0001208067
       -0.0000404971   0.0003009344   0.0000346729  -0.0001259076  -0.0007552540
        0.0000919171   0.0002946018   0.0007033847   0.0004273184   0.0001362228
       -0.0014137390  -0.0020432808   0.0007173966   0.0011739438   0.0013931502
       -0.0005753177   0.0000872853   0.0001431870  -0.0000926172  -0.0001081769
        0.0000271678   0.0001071498  -0.0000070626  -0.0000064780   0.0000548848
        0.0000350352  -0.0000050228   0.0000622987   0.0001977079   0.0000630868
       -0.0000088490   0.0000192952   0.0001041916   0.0001917033   0.0002031002
        0.0002082570  -0.0000970896   0.0000343093   0.0000417673  -0.0000093529
        0.0000044516   0.0000095534  -0.0000496985   0.0000046809   0.0000250397
       -0.0000024181  -0.0000033981   0.0000325205   0.0000151616   0.0001106836
        0.0000756262   0.0000725330   0.0005291829  -0.0029303684  -0.0013817690
        0.0009834788  -0.0000029485  -0.0002604088  -0.0001521140  -0.0008055018
        0.0005722217  -0.0007341308  -0.0004105157  -0.0001482523  -0.0001794726
       -0.0017855185  -0.0000181401  -0.0007424533  -0.0010482237   0.0010249997
        0.0000477294  -0.0000596329  -0.0002505353  -0.0006409952  -0.0006942088
        0.0002976096  -0.0000498432   0.0002192957   0.0006251501   0.0000974590
       -0.0012998333   0.0009093436  -0.0009443626  -0.0020814748  -0.0023238117
       -0.0003566776   0.0000495355  -0.0010159704   0.0002972335  -0.0004500754
       -0.0000675342  -0.0000848976  -0.0004215872   0.0007330281  -0.0000512740
        0.0000291024   0.0000142439   0.0001333688  -0.0000028628   0.0000108400