$hessian                                                                        
        0.4086673926   0.0169697007   0.0007374676  -0.2090723766   0.0044803174
        0.0016859876  -0.0197921747   0.0218253961  -0.0002856833   0.0033362892
       -0.0040928068   0.0000414294  -0.0016796651   0.0044952732  -0.0000791220
       -0.0007162656  -0.0018123587   0.0000539824   0.0017826227  -0.0004992785
       -0.0000158155  -0.0015678213   0.0003144818   0.0000172237   0.0000707240
        0.0005597051  -0.0000202623  -0.0008775815   0.0004045105  -0.0000168891
        0.0004750527  -0.0004514858  -0.0000075930   0.0000546244  -0.0004710496
        0.0000085601   0.0008664849   0.0014268104  -0.0000023737  -0.0001198967
       -0.0000299147  -0.0000040549   0.0000928101  -0.0000347625  -0.0000003694
        0.0000388216  -0.0000183890  -0.0000004149  -0.0000097617  -0.0000332063
       -0.0000003921  -0.0000149430   0.0000740512   0.0000008714  -0.0000538392
       -0.0001000040   0.0000250637   0.0006109384   0.0000666030  -0.0000011550
       -0.0000965043   0.0001063047  -0.0000074062   0.0000544107  -0.0000190052
        0.0000229902   0.0000088485  -0.0000026994   0.0000233509  -0.0000046273
        0.0000056859   0.0000050923  -0.0000116598  -0.0000024905  -0.0000182655
        0.0000236926  -0.0000453958   0.0000002590  -0.0719546951  -0.0376326332
       -0.0723087867  -0.0685396582  -0.0329417653   0.0707654627  -0.0408980392
        0.0272796388  -0.0006038816   0.0001882997   0.0000181222  -0.0000179846
       -0.0001133190  -0.0000291963   0.0000035523  -0.0005395239   0.0001664758
       -0.0000011360  -0.0000715984  -0.0000194011   0.0000007514  -0.0000237066
       -0.0000035539   0.0000021656  -0.0000121917  -0.0000019608   0.0000043835
       -0.0000174893  -0.0000093765   0.0000028865  -0.0000099134   0.0000142635
        0.0000131425  -0.0000078692   0.0000169177   0.0000064025  -0.0000212636
        0.0000147742  -0.0000008158  -0.0000219189   0.0000078811  -0.0000067582
       -0.0000227085   0.0000038209  -0.0000218655
        0.0169697007   0.5313596259  -0.0010021179  -0.0123017586  -0.0691524153
        0.0006026403   0.0384648898  -0.0111879030  -0.0002622404   0.0016056471
        0.0010332557  -0.0000990168   0.0008637322  -0.0002853235   0.0000106020
        0.0000776361   0.0004481004  -0.0000072082   0.0003951937   0.0001117630
       -0.0000188247   0.0018133051  -0.0004320706   0.0000082841   0.0001138418
       -0.0003946086   0.0000042815  -0.0000355039  -0.0001151786   0.0000078799
       -0.0001932611   0.0001738706  -0.0000033727  -0.0002881328   0.0000465276
       -0.0000083312   0.0002783553  -0.0048720065   0.0001814428   0.0000341395
        0.0000257709  -0.0000022578  -0.0000193750  -0.0000411716   0.0000013613
        0.0000268938   0.0000065532  -0.0000005485  -0.0000043854   0.0000107732
        0.0000012570  -0.0000290823  -0.0000285844   0.0000022719   0.0000072943
        0.0000238799  -0.0000013504  -0.0000647416   0.0000001334  -0.0000014714
        0.0000032569  -0.0000090633  -0.0000030047  -0.0000007096   0.0000010590
        0.0000042511  -0.0000011909   0.0000019964  -0.0000012145  -0.0000001016
        0.0000003303   0.0000012392   0.0000009946  -0.0000007059   0.0000005479
       -0.0000084670  -0.0000014596  -0.0000022342  -0.0368423499  -0.0847929748
       -0.0782641065  -0.0322418997  -0.0784178903   0.0741139518   0.0200373606
       -0.2823341372   0.0047324401   0.0012088045  -0.0014336058  -0.0000018947
        0.0001301932  -0.0000163945  -0.0000010116   0.0000204085   0.0002514495
       -0.0000000881  -0.0000081235   0.0000223923   0.0000004454  -0.0000042309
       -0.0000071256  -0.0000002045  -0.0000071410   0.0000020802   0.0000003154
       -0.0000014195   0.0000035867   0.0000003576  -0.0000007247  -0.0000001482
       -0.0000004032   0.0000009153   0.0000005894   0.0000018219  -0.0000012301
       -0.0000027141   0.0000015614  -0.0000003966   0.0000012782   0.0000003699
        0.0000016628   0.0000004656   0.0000035794
        0.0007374676  -0.0010021179   0.4924458793   0.0020436671   0.0004513815
       -0.0485751532  -0.0006770751  -0.0001167967  -0.0028327910  -0.0000910788
       -0.0000247845  -0.0024549838   0.0000154679  -0.0000423512   0.0010106601
        0.0000136603   0.0000234920   0.0001447183  -0.0000370482  -0.0000065194
       -0.0005220103  -0.0000171586   0.0000198985   0.0009908194   0.0000051244
       -0.0000050729  -0.0003887460   0.0000096702  -0.0000000877   0.0001144260
        0.0000039533  -0.0000001029  -0.0001507321   0.0000125515   0.0000092376
       -0.0000781237   0.0000409588   0.0001633098   0.0035429475  -0.0000028433
       -0.0000005334  -0.0000919192   0.0000000394   0.0000004965  -0.0000109701
       -0.0000027073  -0.0000008967   0.0000113936  -0.0000004917   0.0000022359
       -0.0000056394   0.0000059506   0.0000032689   0.0000023113  -0.0000088089
       -0.0000001643   0.0000275040  -0.0000108594  -0.0000014129  -0.0000050145
        0.0000011442  -0.0000148636   0.0000003990   0.0000076185   0.0000123524
       -0.0000023712  -0.0000110646   0.0000042084  -0.0000032616   0.0000024124
        0.0000008622  -0.0000128027   0.0000043233  -0.0000039077  -0.0000065128
        0.0000092260   0.0000051388  -0.0000113167  -0.0706356074  -0.0794681272
       -0.1946416222   0.0690705289   0.0753261396  -0.2040174481  -0.0004509069
        0.0046575298  -0.0438604298  -0.0000377868   0.0000196009  -0.0007401887
       -0.0000050428   0.0000019409   0.0000072238   0.0000054538  -0.0000122510
        0.0001121584   0.0000003218   0.0000006220   0.0000135998  -0.0000011196
        0.0000003136   0.0000011862  -0.0000001132   0.0000002518  -0.0000021221
        0.0000002275   0.0000009271   0.0000035038  -0.0000040339   0.0000018541
       -0.0000000855   0.0000012877  -0.0000013376  -0.0000024615   0.0000017715
        0.0000003951  -0.0000021857   0.0000009412   0.0000015240  -0.0000066511
       -0.0000000216  -0.0000056535  -0.0000031874
       -0.2090723766  -0.0123017586   0.0020436671   0.4259410369  -0.0843396859
       -0.0020995545  -0.0988859628   0.0625741988  -0.0007734203   0.0075766940
       -0.0076123211   0.0001994526   0.0008668069  -0.0108054099   0.0003604538
        0.0015233424   0.0021431374  -0.0000829883  -0.0024720037   0.0015082762
       -0.0000236114  -0.0054028512  -0.0032938933   0.0001625423  -0.0017366599
        0.0007713598  -0.0000130159   0.0030996646  -0.0004233868   0.0000519453
       -0.0011641534   0.0018513125   0.0000191423   0.0012289797   0.0026465217
       -0.0000918960  -0.0300214895   0.0407559303  -0.0005318028   0.0005766374
        0.0002207895   0.0000047888  -0.0002102372   0.0001443852   0.0000100431
        0.0000759632   0.0000387369   0.0000003300   0.0000332659   0.0001012087
        0.0000069040   0.0000774041  -0.0002550002   0.0000058966   0.0001405646
        0.0006734433  -0.0000973297  -0.0023067684  -0.0003585420   0.0000249512
        0.0004320896  -0.0005439801   0.0000205461  -0.0001587699   0.0000711263
       -0.0000301842   0.0000301794  -0.0000578930  -0.0000629402   0.0000091848
       -0.0000092977  -0.0000081218   0.0000452660  -0.0000335991   0.0000508735
       -0.0000755525   0.0001781461   0.0000506685  -0.0370941032  -0.0013877607
       -0.0089029181  -0.0362149078  -0.0010758647   0.0098142225  -0.0140441776
        0.0083965407  -0.0000126872  -0.0005436493   0.0010956084  -0.0000563072
       -0.0004556591   0.0001567948  -0.0000042551  -0.0018506448  -0.0007132803
       -0.0000207194   0.0000371561  -0.0000534385   0.0000006702  -0.0000140907
       -0.0000515549   0.0000003710  -0.0000337759  -0.0000202832   0.0000033958
       -0.0000255779   0.0000327411   0.0000048881   0.0000438735  -0.0000251902
       -0.0000507472   0.0000105468   0.0000110115   0.0000099774   0.0000106924
        0.0000030634   0.0000009693  -0.0000040916   0.0000087950  -0.0000071641
        0.0000281549  -0.0000209877   0.0000229642
        0.0044803174  -0.0691524153   0.0004513815  -0.0843396859   0.4150859180
       -0.0069625321   0.0356807212  -0.2654042925   0.0046417049   0.0159993901
       -0.0772919785   0.0017035905  -0.0186839432   0.0239095366   0.0000011171
       -0.0027850270  -0.0152680486   0.0002615926   0.0105368866  -0.0024335237
       -0.0001384879  -0.0042075261   0.0037366584   0.0000639053   0.0020776443
        0.0013134509  -0.0000368429  -0.0048702138   0.0012495108  -0.0000835009
        0.0030878686  -0.0017863701  -0.0000515577  -0.0054450292  -0.0030607778
        0.0000975008   0.0277921662  -0.0129604765   0.0000155327  -0.0006776952
       -0.0004966352   0.0000038761   0.0004760900  -0.0001334122  -0.0000143689
       -0.0003943484  -0.0000643412   0.0000059044   0.0000140843  -0.0003145865
       -0.0000064249   0.0000095176   0.0005902899  -0.0000134660  -0.0002282859
       -0.0013905007   0.0001473654   0.0037963733   0.0010013007  -0.0000425606
       -0.0006387304   0.0008064982  -0.0000015905   0.0002302987  -0.0000902134
        0.0000314898  -0.0000414563   0.0000869415   0.0000853427  -0.0000216695
        0.0000368822   0.0000198621  -0.0000775341   0.0000695990  -0.0000775036
        0.0001068274  -0.0002841645  -0.0000730077  -0.0107090452   0.0034612383
        0.0021872941  -0.0096181606   0.0032126048  -0.0019876311   0.0356876854
       -0.0077849444  -0.0002022714   0.0025403221   0.0015080782  -0.0000720084
       -0.0000625675   0.0000210064   0.0000086540   0.0001728582   0.0016189398
        0.0000157019   0.0000516781   0.0002013521  -0.0000024989   0.0000638518
        0.0001052970  -0.0000014070   0.0000663292   0.0000301248  -0.0000069269
        0.0000511895  -0.0000508666  -0.0000077754  -0.0000841831  -0.0000070148
        0.0000517599  -0.0000272422  -0.0000417184  -0.0000260909  -0.0000090611
       -0.0000345500  -0.0000010879   0.0000262325  -0.0000288850   0.0000266996
       -0.0000269277   0.0000344883  -0.0000107334
        0.0016859876   0.0006026403  -0.0485751532  -0.0020995545  -0.0069625321
        0.0669133181  -0.0002221251   0.0043696356  -0.0418679510  -0.0003254429
        0.0020601342   0.0102409138   0.0005316101  -0.0001334875   0.0113409957
        0.0000080680   0.0002398481  -0.0027057896  -0.0002245015  -0.0000047618
       -0.0018962821   0.0001826603   0.0000102715   0.0026325938  -0.0000130913
       -0.0000437817  -0.0001037463   0.0000585834  -0.0000074728  -0.0002951867
       -0.0000492083   0.0000198337  -0.0002006118   0.0000610512  -0.0000161703
       -0.0001053849  -0.0002065073  -0.0001186989   0.0018831473   0.0000068439
        0.0000030352   0.0002081164  -0.0000041171   0.0000052265   0.0000177446
        0.0000028816  -0.0000003198  -0.0000126537   0.0000005571   0.0000031751
       -0.0000037981   0.0000055791  -0.0000036410  -0.0000141089  -0.0000006738
        0.0000158069  -0.0000542936  -0.0000626781  -0.0000149599   0.0001072551
        0.0000210897  -0.0000270475   0.0000151438  -0.0000110007   0.0000081108
       -0.0000124537  -0.0000055528  -0.0000022502   0.0000014892   0.0000078391
        0.0000041318   0.0000069494   0.0000059392  -0.0000043549   0.0000022248
        0.0000009333  -0.0000025514  -0.0000055102  -0.0265777744   0.0040032755
        0.0022662071   0.0278925962  -0.0040008405   0.0017316571  -0.0005933642
        0.0000955766   0.0007784541  -0.0000783936  -0.0001001071  -0.0021528436
        0.0000010051  -0.0000004068  -0.0000381717  -0.0000014473  -0.0000048896
       -0.0000227238  -0.0000004327  -0.0000032743  -0.0000428953  -0.0000018123
       -0.0000023814  -0.0000125031  -0.0000014030  -0.0000010982  -0.0000084548
       -0.0000012799   0.0000005479  -0.0000134960  -0.0000045396   0.0000070123
       -0.0000017702  -0.0000017924   0.0000025085   0.0000022935   0.0000012764
        0.0000004863   0.0000030005   0.0000040718   0.0000026024  -0.0000026072
        0.0000081199   0.0000011687  -0.0000031146
       -0.0197921747   0.0384648898  -0.0006770751  -0.0988859628   0.0356807212
       -0.0002221251   0.6010614916   0.0702150128  -0.0069269896  -0.1888106386
       -0.1239623966   0.0044156828   0.0294439365  -0.0270385218   0.0000927074
        0.0042627131   0.0182016967  -0.0003841707  -0.0218327938  -0.0152082588
        0.0006225476  -0.0214942454   0.0443177838  -0.0007668014   0.0039216242
        0.0031597864  -0.0000676412  -0.0110849551   0.0045533236  -0.0002105732
        0.0128510302  -0.0092626688  -0.0000315274  -0.0479954325  -0.0222789274
        0.0009840546  -0.2231665260   0.0054220869   0.0022339747  -0.0037198206
       -0.0024060021   0.0000254157   0.0014543451   0.0008263931  -0.0000498706
       -0.0015156330  -0.0000730547   0.0000201919   0.0003828222  -0.0013791154
       -0.0000212146   0.0003920473   0.0016279491  -0.0000443459  -0.0006652469
       -0.0044105627   0.0003317107   0.0096918675   0.0026567381  -0.0001114895
       -0.0011064969   0.0016651054   0.0000185405   0.0004124242  -0.0003051726
        0.0001544230  -0.0001127707   0.0001371906   0.0001744501  -0.0000066016
       -0.0000129223  -0.0000153386  -0.0000788491   0.0000944604  -0.0001318215
        0.0002387846  -0.0006127407  -0.0001287892   0.0010212624   0.0008829787
        0.0004830214   0.0010524075   0.0008265173  -0.0005215814  -0.0070165066
        0.0015139901   0.0000507984  -0.0206510692  -0.0250724689   0.0008269296
       -0.0000623152  -0.0002559548   0.0000289169   0.0013856288   0.0015307125
       -0.0001157714  -0.0001127892   0.0002427276  -0.0000074868   0.0000874530
        0.0002441563  -0.0000035303   0.0001889880   0.0001298632  -0.0000124875
        0.0001782148  -0.0000717085  -0.0000185908  -0.0000968254   0.0000864098
        0.0000371692   0.0000398785  -0.0001279389  -0.0000775232   0.0000718276
       -0.0000751888   0.0000107611   0.0001196426  -0.0000454715   0.0000799654
       -0.0000507364   0.0001185819  -0.0000445157
        0.0218253961  -0.0111879030  -0.0001167967   0.0625741988  -0.2654042925
        0.0043696356   0.0702150128   0.6869077604  -0.0129579272  -0.1730298490
       -0.2750759668   0.0072198271   0.0173535232  -0.0813547387   0.0014092505
        0.0092018976   0.0145057936  -0.0002262025  -0.0257787621   0.0014617612
        0.0002888682   0.0322915525   0.0018176188  -0.0005755442   0.0011291576
       -0.0062322846   0.0002414816   0.0029565802  -0.0007532723   0.0000762115
       -0.0023298397  -0.0038203249   0.0001885099  -0.0267365983   0.0010327533
        0.0003475429   0.0193495615  -0.0642922283  -0.0000040427  -0.0013051331
       -0.0000940917   0.0000365268  -0.0001793755   0.0008179973  -0.0000022774
       -0.0002284787   0.0000573786  -0.0000036363   0.0001823961  -0.0002352155
       -0.0000005420   0.0002627707  -0.0000530873   0.0000003851  -0.0004022488
       -0.0000208813  -0.0001379048  -0.0021752153  -0.0004019099  -0.0000007151
        0.0006269678  -0.0007704660   0.0000052732  -0.0001798540   0.0001086479
       -0.0000250893   0.0000494126  -0.0000860217  -0.0000493898   0.0000145513
       -0.0000227271  -0.0000125624   0.0000873066  -0.0000775321   0.0000516997
       -0.0001429632   0.0002116059   0.0000557212  -0.0022198349   0.0017424515
       -0.0021855910  -0.0021273830   0.0017730689   0.0021645460   0.0024614360
       -0.0010768874   0.0000116917  -0.0036875499   0.0022625232  -0.0000839006
        0.0014544041  -0.0003959518  -0.0000020968  -0.0013450767  -0.0011605768
       -0.0000549516  -0.0001070835  -0.0001742403  -0.0000020805  -0.0000931690
       -0.0001059971  -0.0000041055  -0.0000493375  -0.0000187709  -0.0000009521
       -0.0000901522   0.0000426574   0.0000037683   0.0000907305   0.0000195687
       -0.0000157757   0.0000416315   0.0000297226   0.0000216927   0.0000192247
        0.0000222094   0.0000034491  -0.0000089378   0.0000282619  -0.0000223984
        0.0000291299  -0.0000264128  -0.0000115987
       -0.0002856833  -0.0002622404  -0.0028327910  -0.0007734203   0.0046417049
       -0.0418679510  -0.0069269896  -0.0129579272   0.1347637530   0.0054706810
        0.0064558175  -0.0410767278  -0.0008174779   0.0020493631  -0.0084279995
       -0.0002102033  -0.0004385841   0.0056647824   0.0007905563   0.0000854209
       -0.0019854396  -0.0003679745  -0.0005872782  -0.0009471274  -0.0000465922
        0.0001953731   0.0051606756   0.0001351067  -0.0000585880   0.0001671199
       -0.0001068408   0.0002486335   0.0069292317   0.0010363350   0.0002732660
       -0.0014184352   0.0017021050   0.0000898361  -0.0526187870   0.0001091551
        0.0000690782   0.0009216262  -0.0000271374  -0.0000507362  -0.0000732808
        0.0000448331  -0.0000051102  -0.0000992998  -0.0000165207   0.0000443964
        0.0000326793  -0.0000287936  -0.0000387235  -0.0000870719   0.0000449929
        0.0000936356  -0.0004648625  -0.0000420134  -0.0001362195  -0.0007244222
       -0.0000636586   0.0001029467  -0.0001119418  -0.0000323237  -0.0000092449
        0.0000450150   0.0000096509  -0.0000353807   0.0000222805  -0.0000130643
       -0.0000124159  -0.0000366995  -0.0000311945   0.0000368769   0.0000061043
        0.0000525479   0.0000374599   0.0000079630  -0.0011176345   0.0011174061
        0.0007001034   0.0011807962  -0.0011828906   0.0006328441   0.0000407839
        0.0000148263   0.0005965016   0.0003336923   0.0002499769  -0.0007504897
        0.0000152364   0.0000069903   0.0002929048  -0.0000293385  -0.0000130635
       -0.0023937911   0.0000040413   0.0000001411   0.0000496224   0.0000008139
       -0.0000012952   0.0000125424  -0.0000014959  -0.0000014261   0.0000040596
        0.0000014019  -0.0000062773  -0.0000752635  -0.0000124264  -0.0000049011
       -0.0000062620  -0.0000037517  -0.0000122892   0.0000063891  -0.0000008622
        0.0000020197  -0.0000029366  -0.0000088913   0.0000042586  -0.0000046629
       -0.0000084408  -0.0000048359  -0.0000099555
        0.0033362892   0.0016056471  -0.0000910788   0.0075766940   0.0159993901
       -0.0003254429  -0.1888106386  -0.1730298490   0.0054706810   0.6686834333
        0.0843897432  -0.0088502393  -0.1055031084   0.0954095400  -0.0016628300
        0.0077860663  -0.0290230813   0.0007906170  -0.0445374262   0.0318361026
        0.0000190661   0.0046123751   0.0003789113  -0.0001251144  -0.0023264593
       -0.0012357298   0.0000705586   0.0013200175   0.0005453211  -0.0000159245
       -0.0019048680  -0.0010583050   0.0000217692  -0.0032359755   0.0025495276
        0.0000494863  -0.0363272657  -0.0266725663   0.0010134257  -0.0000080353
        0.0003911754  -0.0000031104  -0.0001214826  -0.0001436726   0.0000072874
        0.0001402216  -0.0000335370   0.0000063024  -0.0000223008   0.0000971380
        0.0000092867  -0.0000689820  -0.0000834463   0.0000033626   0.0000194828
        0.0003237064  -0.0000112899  -0.0007426352  -0.0002617397   0.0000196495
        0.0000759481  -0.0000846241  -0.0000067122  -0.0000361582   0.0000099351
        0.0000064324   0.0000028601  -0.0000114008  -0.0000175298  -0.0000088091
        0.0000028094  -0.0000048425  -0.0000103956   0.0000043046   0.0000149246
        0.0000033865   0.0000468798   0.0000181420   0.0004153797  -0.0005132261
       -0.0001886801   0.0004060050  -0.0004968396   0.0002243959  -0.0004095577
        0.0001986749   0.0000017585  -0.3105321678  -0.0013431705   0.0035537414
        0.0002924452  -0.0001655108  -0.0000009054   0.0000590732   0.0003721653
        0.0000120778  -0.0000072697   0.0000199380   0.0000047033  -0.0000158671
       -0.0000231249   0.0000058102  -0.0000288032  -0.0000190968   0.0000065505
       -0.0000227785   0.0000013138   0.0000048863   0.0000064744  -0.0000097757
       -0.0000351790  -0.0000131881   0.0000185772   0.0000064593  -0.0000176076
        0.0000143706  -0.0000041246  -0.0000236194   0.0000068921  -0.0000100760
       -0.0000007526  -0.0000133673   0.0000117051
       -0.0040928068   0.0010332557  -0.0000247845  -0.0076123211  -0.0772919785
        0.0020601342  -0.1239623966  -0.2750759668   0.0064558175   0.0843897432
        0.6683246966  -0.0141484184   0.0496635250  -0.1765604244   0.0022574748
       -0.0077235950  -0.0892294456   0.0025383581   0.0491695768   0.0035351368
       -0.0004757407  -0.0058343725  -0.0234720126   0.0006337180   0.0002426896
        0.0003574059  -0.0000172776   0.0047556327  -0.0039118650   0.0001704875
       -0.0083182121   0.0039708520   0.0000643766   0.0124522526   0.0084793913
       -0.0002565283  -0.0408418441  -0.0001998151   0.0004241577   0.0021471091
        0.0018986357  -0.0000103062  -0.0009283767  -0.0009479927   0.0000354229
        0.0012690550   0.0000179404  -0.0000169226  -0.0004176609   0.0012535614
        0.0000153747  -0.0006085871  -0.0011523845   0.0000333091   0.0005855811
        0.0028932744  -0.0001619532  -0.0051092430  -0.0016671082   0.0000411885
        0.0004184600  -0.0007149054  -0.0000194522  -0.0001289520   0.0001735404
       -0.0000972045   0.0000564808  -0.0000320117  -0.0000890097   0.0000086941
        0.0000269758   0.0000252202   0.0000191506  -0.0000235134   0.0000521622
       -0.0001066979   0.0002656322   0.0000230515   0.0004753041   0.0001778150
        0.0003331523   0.0004381128   0.0001712922  -0.0003771514  -0.0007449858
        0.0005129506   0.0000145281   0.0001215065  -0.0430359325   0.0004162688
       -0.0003173976   0.0001500880  -0.0000154128   0.0007314413   0.0003238668
        0.0000360448   0.0001142570  -0.0000531880   0.0000111267  -0.0000069983
       -0.0001054146   0.0000099526  -0.0000818082  -0.0000608854   0.0000136283
       -0.0000916815   0.0000087294   0.0000115378  -0.0000025692  -0.0000686217
       -0.0000029555  -0.0000467604   0.0000573164   0.0000302913  -0.0000473226
        0.0000216339  -0.0000109722  -0.0000570070   0.0000085220  -0.0000327656
        0.0000230240  -0.0000590467   0.0000500714
        0.0000414294  -0.0000990168  -0.0024549838   0.0001994526   0.0017035905
        0.0102409138   0.0044156828   0.0072198271  -0.0410767278  -0.0088502393
       -0.0141484184   0.0869059947  -0.0005737917   0.0016739149  -0.0589811008
        0.0003017740   0.0028282927   0.0167654156  -0.0003956401  -0.0002217529
        0.0120197798   0.0000392643   0.0005136955  -0.0015847168   0.0000268436
        0.0000091213   0.0006069201  -0.0000965278   0.0000963760   0.0001704304
        0.0002012804  -0.0000748520   0.0001101791  -0.0001943573  -0.0001661724
        0.0030176869   0.0013200205   0.0003361102   0.0013902276  -0.0000470472
       -0.0000422797  -0.0003800705   0.0000210705   0.0000183302   0.0000123991
       -0.0000270699   0.0000010577   0.0000439921   0.0000107542  -0.0000270592
       -0.0000046054   0.0000180228   0.0000236607   0.0000578654  -0.0000187018
       -0.0000679062  -0.0000467494   0.0001026797   0.0000387356  -0.0000622856
       -0.0000106006   0.0000099894  -0.0000377327  -0.0000150353  -0.0000131727
       -0.0000069823  -0.0000093313  -0.0000061919   0.0000119359   0.0000043214
       -0.0000013857   0.0000076761  -0.0000010149  -0.0000011895   0.0000068431
        0.0000033124  -0.0000030931   0.0000004359   0.0003119300   0.0000413588
        0.0000444673  -0.0003208527  -0.0000724976   0.0000462321   0.0000262208
       -0.0000028714   0.0003776145   0.0035123465   0.0004331848  -0.0267780413
        0.0000039772  -0.0000059724  -0.0000733441  -0.0000153994  -0.0000085496
       -0.0003386954  -0.0000011355   0.0000027892  -0.0000327100   0.0000015860
        0.0000022416  -0.0000120660   0.0000027885   0.0000003248  -0.0000146791
        0.0000024200  -0.0000017298   0.0000030511  -0.0000039601  -0.0000007612
        0.0000074563  -0.0000016063   0.0000024812   0.0000094027   0.0000044362
       -0.0000016187   0.0000099186   0.0000052202   0.0000015041   0.0000087157
        0.0000054770   0.0000099047   0.0000099374
       -0.0016796651   0.0008637322   0.0000154679   0.0008668069  -0.0186839432
        0.0005316101   0.0294439365   0.0173535232  -0.0008174779  -0.1055031084
        0.0496635250  -0.0005737917   0.4783634478   0.1294230237  -0.0071243342
       -0.1841807437  -0.2156155006   0.0067433622  -0.1565100715   0.0453637350
        0.0002987720  -0.0370239822  -0.0441655418   0.0015920631   0.0042296013
        0.0036205231  -0.0001521030  -0.0036542048  -0.0029818671   0.0001074467
       -0.0044250315   0.0007869192  -0.0000079116   0.0051942160   0.0027815214
       -0.0001142522  -0.0106790263   0.0036025378  -0.0001290596   0.0016505849
        0.0018604651  -0.0000385625  -0.0004178420  -0.0018253823   0.0000131515
        0.0016224083  -0.0002293498  -0.0000353456  -0.0006228297   0.0013956117
       -0.0000064280  -0.0011334316  -0.0008476619   0.0000155807   0.0009498367
        0.0022452459   0.0001060577   0.0003961254  -0.0013412756  -0.0000528852
       -0.0007711892   0.0008672635  -0.0000655302   0.0003188686  -0.0000818931
       -0.0000658678  -0.0000109062   0.0001383639   0.0001283534  -0.0000215450
        0.0000363845   0.0000293022  -0.0000852094   0.0000281893  -0.0000987029
        0.0001442917  -0.0002631770  -0.0000916837   0.0000832635   0.0004056673
        0.0002229524   0.0000714574   0.0004082061  -0.0002534610   0.0000173527
        0.0000975371  -0.0000032826  -0.0163990890   0.0241534591  -0.0003863878
       -0.0005773295   0.0000034044  -0.0000123933   0.0004029712   0.0007453048
        0.0000250975  -0.0001029992   0.0000642734   0.0000049818   0.0000590631
        0.0001283565   0.0000048724   0.0000798499   0.0000519618   0.0000104286
        0.0001016697  -0.0000830608  -0.0000023286  -0.0001632223   0.0000246383
        0.0001201448  -0.0000387074  -0.0000258080  -0.0000337506   0.0000176857
       -0.0000336980   0.0000111793   0.0000335439  -0.0000034860   0.0000502188
       -0.0000468469   0.0000682718   0.0000344973
        0.0044952732  -0.0002853235  -0.0000423512  -0.0108054099   0.0239095366
       -0.0001334875  -0.0270385218  -0.0813547387   0.0020493631   0.0954095400
       -0.1765604244   0.0016739149   0.1294230237   0.8050678741  -0.0168591236
       -0.2266222579  -0.4876731160   0.0130218640   0.0413041951  -0.0956510452
        0.0006325387  -0.0190111342   0.0242956288  -0.0004101205  -0.0028182612
       -0.0021251038   0.0001561759  -0.0091887511   0.0042253479  -0.0002293948
        0.0065312851  -0.0046447344  -0.0000526253  -0.0075694486  -0.0062007736
        0.0002096034   0.0175397554  -0.0013378869  -0.0002126865  -0.0014446420
       -0.0011257861  -0.0000258723   0.0010018046  -0.0001084375  -0.0000323734
       -0.0006595651  -0.0001085245   0.0000151028   0.0002357185  -0.0009996672
       -0.0000134716   0.0002300004   0.0011382063  -0.0000318061  -0.0003194120
       -0.0028927895   0.0003347566   0.0080732577   0.0014473590  -0.0000610257
       -0.0011679588   0.0017813502  -0.0000314268   0.0002640341  -0.0004338667
        0.0001063897  -0.0001369355   0.0001364073   0.0001693230   0.0000078527
       -0.0000724619  -0.0000326830  -0.0000614755   0.0000596865  -0.0001016975
        0.0003093031  -0.0005005607  -0.0000577402  -0.0001700943  -0.0006338887
       -0.0004398573  -0.0001563047  -0.0005818748   0.0004540073  -0.0001454097
        0.0000616526  -0.0000043509   0.0016519977   0.0006449538  -0.0000251624
        0.0007137727  -0.0001813318   0.0000001883  -0.0002299369   0.0001462432
       -0.0000131390  -0.0002335257   0.0001155271  -0.0000034790   0.0000588852
        0.0002260161  -0.0000014625   0.0001445074   0.0001297875  -0.0000054133
        0.0002274112  -0.0000319917  -0.0000158736  -0.0000546276   0.0001726955
        0.0000521574   0.0000766602  -0.0000989705  -0.0000733490   0.0000896368
       -0.0000518542   0.0000166147   0.0001048970  -0.0000178921   0.0000696890
       -0.0000591398   0.0001147719  -0.0000517158
       -0.0000791220   0.0000106020   0.0010106601   0.0003604538   0.0000011171
        0.0113409957   0.0000927074   0.0014092505  -0.0084279995  -0.0016628300
        0.0022574748  -0.0589811008  -0.0071243342  -0.0168591236   0.1656786291
        0.0070085300   0.0129042119  -0.0592219771   0.0004587191   0.0005841047
       -0.0447227897   0.0008473772  -0.0000820344  -0.0040317637   0.0001058165
        0.0000391087   0.0009672182   0.0002628266  -0.0000329778   0.0017577331
       -0.0001018146   0.0001016472   0.0003654331   0.0001243467   0.0001120953
       -0.0002421231  -0.0002820435  -0.0001247004  -0.0041087138   0.0000070559
       -0.0000021586  -0.0000272632  -0.0000166120   0.0000336895  -0.0000268976
       -0.0000096287   0.0000063204   0.0000028541   0.0000050902  -0.0000006363
        0.0000092539   0.0000148597  -0.0000116196  -0.0000642622  -0.0000109613
        0.0000263372  -0.0001428444  -0.0001507073  -0.0000301209  -0.0001037344
       -0.0000082573   0.0000025459   0.0000193574   0.0000314275  -0.0000007073
        0.0000645701  -0.0000050593  -0.0000019877  -0.0000051529  -0.0000048318
       -0.0000023048  -0.0000254875  -0.0000109064   0.0000110738  -0.0000135093
        0.0000173801   0.0000196789  -0.0000194097   0.0000877454  -0.0006110024
       -0.0002297417  -0.0000825394   0.0006236656  -0.0002700321   0.0000058408
       -0.0000021766   0.0000238326   0.0001589918  -0.0003160083  -0.0003627651
       -0.0000178662   0.0000032203  -0.0000510697  -0.0000058538  -0.0000206055
       -0.0001828225   0.0000088710  -0.0000022855   0.0000186947  -0.0000016278
       -0.0000074994   0.0000148319  -0.0000036160  -0.0000037033   0.0000260389
       -0.0000060898  -0.0000004709   0.0000050632   0.0000167995   0.0000052175
       -0.0000126904   0.0000126143  -0.0000129151  -0.0000030400  -0.0000092684
       -0.0000000103  -0.0000102096  -0.0000157545  -0.0000059958  -0.0000123819