$hessian                                                                        
        0.4067550064  -0.0035072819  -0.0002456269  -0.2037728433  -0.0181636149
       -0.0012798894  -0.0294601699   0.0187060720   0.0010590932   0.0037459514
       -0.0036371384  -0.0002225270  -0.0025273902   0.0041319283   0.0002172146
       -0.0004107013  -0.0019662905  -0.0001258342   0.0017473381  -0.0002237182
        0.0000055059  -0.0018981584   0.0000686796  -0.0000191429  -0.0000596459
        0.0006070721   0.0000393506  -0.0009234075   0.0002692418   0.0000176175
        0.0005633730  -0.0003858948  -0.0000029583   0.0001690727  -0.0004316480
       -0.0000313536   0.0004112069   0.0023195174   0.0001445412  -0.0001222610
       -0.0000561746   0.0000025978   0.0000913114  -0.0000241492   0.0000020930
        0.0000301796  -0.0000141967   0.0000038540  -0.0000070709  -0.0000361315
        0.0000036605  -0.0000296117   0.0000682869   0.0000029875  -0.0000404471
       -0.0001093822  -0.0000271151   0.0005859486   0.0001625936   0.0000143971
       -0.0001214309   0.0000854994   0.0000107351   0.0000231701  -0.0000419891
        0.0000000399  -0.0000201397  -0.0000084891   0.0000190369  -0.0000150756
       -0.0000005872  -0.0000032678   0.0000004540  -0.0000046409  -0.0000222318
        0.0000481054  -0.0000128031  -0.0000204747  -0.0589379237  -0.0278641184
       -0.0598223680  -0.0589872131  -0.0352122352   0.0562340562  -0.0557804302
        0.0651076853   0.0040123188  -0.0000929369   0.0002386457   0.0000264654
       -0.0001353912  -0.0000503685  -0.0000071071  -0.0005572379   0.0000302214
        0.0000011712  -0.0000717130  -0.0000361056  -0.0000007940  -0.0000248550
       -0.0000077292  -0.0000005355  -0.0000164049  -0.0000076099  -0.0000015532
       -0.0000217191  -0.0000165358  -0.0000006123  -0.0000300613  -0.0000038321
        0.0000229705  -0.0000305205  -0.0000006949   0.0000080806  -0.0000319402
        0.0000073271   0.0000022331  -0.0000216072   0.0000100869  -0.0000048630
       -0.0000228100   0.0000105025  -0.0000117662
       -0.0035072819   0.5333714407   0.0023090303  -0.0348871306  -0.0741051165
       -0.0015932784   0.0353106270  -0.0015487712   0.0001673348   0.0020331806
        0.0007143930   0.0001765521   0.0004808024   0.0005020337  -0.0000263090
       -0.0000548668   0.0001723481  -0.0000042215   0.0006625379   0.0001402619
        0.0000427823   0.0015785137  -0.0001156810  -0.0000430251   0.0001666662
       -0.0002688090   0.0000036643  -0.0001728659  -0.0000713440  -0.0000107881
       -0.0001315805   0.0000754554   0.0000126774  -0.0002587811  -0.0000713450
        0.0000071614   0.0011831908  -0.0044062969  -0.0004652056   0.0000041384
        0.0000211497   0.0000108438   0.0000085027  -0.0000481951   0.0000050536
        0.0000324218   0.0000064186   0.0000045339  -0.0000116051   0.0000063461
        0.0000059375  -0.0000265699  -0.0000196174  -0.0000021797  -0.0000055924
        0.0000071727  -0.0000018676   0.0000266942   0.0000134517   0.0000024412
       -0.0000180943   0.0000078653   0.0000002192  -0.0000030524  -0.0000040688
        0.0000042717  -0.0000051026  -0.0000080513   0.0000014922  -0.0000109030
       -0.0000062288  -0.0000013369  -0.0000025107  -0.0000044066  -0.0000080374
        0.0000049179   0.0000010066  -0.0000079953  -0.0272492126  -0.0823316621
       -0.0798282266  -0.0343408993  -0.1038102052   0.0931265216   0.0578539529
       -0.2672626822  -0.0138723912   0.0014164097  -0.0012165956  -0.0000265938
        0.0001073082  -0.0000033297   0.0000005006  -0.0001172330   0.0002588454
        0.0000062051  -0.0000263912   0.0000095135   0.0000038973  -0.0000034310
       -0.0000067066   0.0000056099  -0.0000109116  -0.0000037666   0.0000035619
       -0.0000050274  -0.0000046605   0.0000015500  -0.0000040953   0.0000017647
        0.0000014659  -0.0000056936   0.0000025164   0.0000004910  -0.0000016299
        0.0000050916  -0.0000041212  -0.0000040188   0.0000000687  -0.0000051203
       -0.0000053836   0.0000003964  -0.0000031017
       -0.0002456269   0.0023090303   0.4923191136  -0.0021462074  -0.0015654591
       -0.0487830831   0.0019992758   0.0001217805  -0.0029002503   0.0001278575
        0.0001803373  -0.0024414151   0.0000189766   0.0000109593   0.0009972534
       -0.0000107240  -0.0000249636   0.0001289388   0.0000547793   0.0000433150
       -0.0005288371   0.0000779404  -0.0000645462   0.0009865948   0.0000051359
        0.0000114823  -0.0003966663  -0.0000134878  -0.0000121010   0.0001060963
       -0.0000027377   0.0000112293  -0.0001472794  -0.0000322393  -0.0000076511
       -0.0000721600  -0.0000009130  -0.0004389675   0.0035094015   0.0000038498
        0.0000027765  -0.0000851457   0.0000034619   0.0000103228  -0.0000203837
       -0.0000006894  -0.0000054803   0.0000091437  -0.0000009396   0.0000027433
       -0.0000028416  -0.0000047253  -0.0000084723   0.0000186686   0.0000056713
        0.0000020541   0.0000403532   0.0000446774  -0.0000081076   0.0000004289
       -0.0000064025   0.0000079896   0.0000004283  -0.0000126501   0.0000047594
       -0.0000050133  -0.0000022465   0.0000008400   0.0000015739   0.0000043205
        0.0000043899   0.0000020860   0.0000034567  -0.0000090818  -0.0000068501
       -0.0000139646   0.0000001959   0.0000060385  -0.0579280907  -0.0807275120
       -0.2098118524   0.0544275737   0.0940199754  -0.1877488353   0.0035710454
       -0.0138496240  -0.0445816845   0.0000933261  -0.0000345153  -0.0007570831
        0.0000096700  -0.0000008671   0.0000056823  -0.0000057798   0.0000137382
        0.0001082875  -0.0000015378  -0.0000017558   0.0000116118  -0.0000010161
       -0.0000003558   0.0000075130  -0.0000008103  -0.0000007814   0.0000082576
       -0.0000001804  -0.0000024886   0.0000104111  -0.0000149925   0.0000072596
        0.0000011381   0.0000018841   0.0000008663   0.0000060844  -0.0000003205
       -0.0000006443   0.0000051490  -0.0000063196   0.0000022646   0.0000031546
       -0.0000003004  -0.0000049349  -0.0000040278
       -0.2037728433  -0.0348871306  -0.0021462074   0.4533066037  -0.0778243976
       -0.0037387035  -0.1196808108   0.0869107438   0.0048119855   0.0038604409
        0.0061193395   0.0003172289   0.0064392315  -0.0138159537  -0.0008507166
        0.0011944733   0.0049727903   0.0003003130  -0.0045379708   0.0012006880
        0.0000628173  -0.0038239609  -0.0045780178  -0.0003073347  -0.0021204434
        0.0002258430  -0.0000017311   0.0038609870  -0.0000295009  -0.0000281013
       -0.0019163016   0.0018188008   0.0000082264   0.0014916497   0.0034389526
        0.0002453729  -0.0409005088   0.0360083659   0.0018509956   0.0006168129
        0.0004009724   0.0000192339  -0.0002968982   0.0000962517  -0.0000138167
        0.0001369109   0.0000690035   0.0000066455   0.0000081075   0.0001370084
       -0.0000002748   0.0001239844  -0.0003272626  -0.0000196364   0.0000078406
        0.0008597829   0.0001495809  -0.0027625920  -0.0009515969  -0.0000848957
        0.0006428394  -0.0005759879  -0.0000245181  -0.0001363319   0.0002032876
       -0.0000407710   0.0000651550  -0.0000282357  -0.0000613286   0.0000130557
       -0.0000131648   0.0000142057   0.0000384689  -0.0000568660   0.0000755203
       -0.0002037796   0.0000633827   0.0000158240  -0.0335519146  -0.0068873033
       -0.0101203102  -0.0336883723  -0.0080436622   0.0091485389  -0.0212830872
        0.0061517345   0.0003641367  -0.0010700808   0.0007115107   0.0000630352
       -0.0004716820   0.0001000545   0.0000042069  -0.0016798931  -0.0013155470
       -0.0000302840   0.0000565281  -0.0000841902  -0.0000012589  -0.0000045366
       -0.0000807685  -0.0000041070  -0.0000440655  -0.0000371308  -0.0000079068
       -0.0000508961   0.0000415708  -0.0000056433   0.0000430283  -0.0000369992
       -0.0000110499  -0.0000164926   0.0000062874   0.0000218086   0.0000049519
        0.0000199853  -0.0000004333   0.0000178282   0.0000320339  -0.0000246494
        0.0000845640  -0.0000146744   0.0000440025
       -0.0181636149  -0.0741051165  -0.0015654591  -0.0778243976   0.3866526892
        0.0181766060   0.0602114923  -0.2441025371  -0.0114781134   0.0296048108
       -0.0732909809  -0.0046025727  -0.0216183612   0.0183945188   0.0003447269
       -0.0000352879  -0.0148760653  -0.0007283381   0.0101669981  -0.0004881478
        0.0001308613  -0.0054788835   0.0022627403  -0.0001179667   0.0014814621
        0.0018083117   0.0001194334  -0.0044125316   0.0003458168   0.0000522773
        0.0030484358  -0.0009626515   0.0000599646  -0.0046655703  -0.0033481386
       -0.0001775027   0.0230980671  -0.0021862717  -0.0001131142  -0.0004927801
       -0.0005477694  -0.0000387406   0.0004482987  -0.0000104483   0.0000271719
       -0.0003553264  -0.0001166601  -0.0000142069   0.0000655667  -0.0002834545
       -0.0000018205  -0.0000644596   0.0005359637   0.0000338574   0.0000226055
       -0.0012730333  -0.0001684851   0.0031639237   0.0014690300   0.0001015848
       -0.0006694761   0.0006014719   0.0000055144   0.0001320049  -0.0002268521
        0.0000608408  -0.0000822010   0.0000459881   0.0000666062  -0.0000281854
        0.0000264874  -0.0000182707  -0.0000487769   0.0000710369  -0.0000779147
        0.0002116086  -0.0000353280  -0.0000231998  -0.0146573351   0.0004189723
        0.0003546033  -0.0180583785   0.0003342282  -0.0005990756   0.0333376408
       -0.0007479373  -0.0000535475   0.0021069518   0.0019426938   0.0002155382
       -0.0001475886   0.0000274712  -0.0000108546  -0.0003990227   0.0014490833
        0.0000455423   0.0000256828   0.0001941884   0.0000088518   0.0000459410
        0.0001057194   0.0000114528   0.0000542364   0.0000337808   0.0000146782
        0.0000528642  -0.0000374064   0.0000093470  -0.0000224307   0.0000284780
        0.0000100195   0.0000320219  -0.0000178173  -0.0000224871   0.0000024394
       -0.0000263866  -0.0000024903  -0.0000187038  -0.0000432064   0.0000172440
       -0.0000697407  -0.0000224612  -0.0000525622
       -0.0012798894  -0.0015932784  -0.0487830831  -0.0037387035   0.0181766060
        0.0679520779   0.0034025697  -0.0113403840  -0.0424062155   0.0017030984
       -0.0049726805   0.0100031381  -0.0012979811   0.0003507979   0.0113708458
        0.0000127197  -0.0006696266  -0.0027491115   0.0006035452   0.0000811035
       -0.0018974989  -0.0003610862  -0.0000363208   0.0026325983   0.0000654785
        0.0000860674  -0.0001018796  -0.0001931669   0.0000495943  -0.0002968675
        0.0001374930  -0.0000477230  -0.0001939197  -0.0001850618  -0.0001428248
       -0.0002294077   0.0010085375  -0.0000650465   0.0018773914  -0.0000203620
       -0.0000291836   0.0002160586   0.0000196430  -0.0000013705   0.0000132998
       -0.0000144938  -0.0000057097  -0.0000132127   0.0000049602  -0.0000040243
       -0.0000040141  -0.0000049498   0.0000136295   0.0000004447   0.0000054755
       -0.0000525854  -0.0000515380   0.0001842422   0.0000534007   0.0001197064
       -0.0000490459   0.0000390952   0.0000119937  -0.0000026044   0.0000021437
       -0.0000016648  -0.0000099534   0.0000033537   0.0000041802  -0.0000027076
       -0.0000013193   0.0000104477  -0.0000001168  -0.0000028066  -0.0000080357
        0.0000133318   0.0000055688  -0.0000066998  -0.0285748154  -0.0006829255
        0.0019700849   0.0264680864   0.0005121405   0.0020896170   0.0020130763
       -0.0000590780   0.0007563311   0.0001326413   0.0002526691  -0.0021390131
       -0.0000047723   0.0000043125  -0.0000373056  -0.0000216375   0.0000806597
       -0.0000430194   0.0000020700   0.0000106759  -0.0000386893   0.0000027834
        0.0000055681  -0.0000050190   0.0000022622   0.0000008013  -0.0000020974
        0.0000034395  -0.0000023842  -0.0000110017  -0.0000221444   0.0000002575
       -0.0000028224  -0.0000039319  -0.0000023763  -0.0000010986  -0.0000011573
       -0.0000020748   0.0000006546   0.0000003382  -0.0000028394   0.0000025036
        0.0000027893  -0.0000118833  -0.0000081588
       -0.0294601699   0.0353106270   0.0019992758  -0.1196808108   0.0602114923
        0.0034025697   0.5806031667   0.0522302591   0.0056305096  -0.1424251428
       -0.1014397156  -0.0062452780   0.0279443227  -0.0085040706  -0.0002471778
        0.0000319371   0.0157181734   0.0009379815  -0.0144439602  -0.0179045099
       -0.0012667448  -0.0333897047   0.0382920097   0.0019956535   0.0029259241
        0.0047431172   0.0003025845  -0.0120831419   0.0026160190   0.0001713186
        0.0143016237  -0.0062030438  -0.0000217254  -0.0386271577  -0.0290078436
       -0.0019866929  -0.2228833941  -0.0213586912  -0.0028956554  -0.0030063353
       -0.0028888694  -0.0001495201   0.0013268962   0.0009374304   0.0001078361
       -0.0014139024  -0.0003283863  -0.0000592576   0.0005530003  -0.0012379138
       -0.0000202596   0.0000777437   0.0016527514   0.0001068729   0.0001558571
       -0.0043557480  -0.0004992454   0.0093445685   0.0042899749   0.0003284870
       -0.0014756684   0.0015393502   0.0000220540   0.0003619012  -0.0005905921
        0.0001159851  -0.0001183955   0.0000759162   0.0001410066  -0.0000083425
       -0.0000099746   0.0000102282  -0.0001375603   0.0001350334  -0.0001857035
        0.0004924188  -0.0002394876  -0.0001470670   0.0012773169   0.0007247990
        0.0008728995   0.0011790656   0.0008749017  -0.0008655710  -0.0074982407
        0.0004368381   0.0000072948  -0.0152775663  -0.0280116262  -0.0017516564
       -0.0002665687  -0.0002355087  -0.0000415037   0.0012713367   0.0019362980
        0.0001722186  -0.0001359191   0.0002481764   0.0000153846   0.0000480040
        0.0002704741   0.0000185837   0.0001716129   0.0001599317   0.0000248972
        0.0001983449  -0.0000458944   0.0000192190  -0.0000768873   0.0001125129
        0.0000428028   0.0001289578  -0.0000203305  -0.0000828914   0.0000814989
       -0.0000678881  -0.0000133978   0.0000539013  -0.0001283137   0.0000767556
       -0.0001205303   0.0000623221  -0.0000430710
        0.0187060720  -0.0015487712   0.0001217805   0.0869107438  -0.2441025371
       -0.0113403840   0.0522302591   0.7063186393   0.0333778500  -0.1502900032
       -0.3209868559  -0.0170732626   0.0358321613  -0.0796367039  -0.0040961773
        0.0067956423   0.0187059460   0.0007794125  -0.0284373214  -0.0058846850
       -0.0004730384   0.0262860751   0.0137218899   0.0012964730   0.0027087263
       -0.0053557059  -0.0005838764   0.0010279272   0.0002918123  -0.0000242909
        0.0007556475  -0.0052359798  -0.0005994921  -0.0333949521  -0.0084809988
       -0.0008673195  -0.0075261127  -0.0645813016  -0.0007113205  -0.0017908227
       -0.0007893196  -0.0001199340  -0.0000927628   0.0009013813   0.0000403357
       -0.0004784456  -0.0000392568  -0.0000059249   0.0003155650  -0.0004089428
       -0.0000047730   0.0002807571   0.0002667330   0.0000200151  -0.0003838864
       -0.0008311951   0.0000568477  -0.0005437417  -0.0000413859   0.0000465336
        0.0005111833  -0.0004025863  -0.0000066458  -0.0001179451   0.0000923382
       -0.0000300644   0.0000810868  -0.0000512127  -0.0000266720   0.0000111645
       -0.0000256655   0.0000198639   0.0000430763  -0.0000589451   0.0000179529
       -0.0001164800   0.0000394539  -0.0000036564  -0.0021747945   0.0015458503
       -0.0019905769  -0.0023089356   0.0014601981   0.0021603408   0.0013479182
       -0.0005202793  -0.0000470229  -0.0066562856  -0.0029785114  -0.0000950585
        0.0014795136  -0.0001927885   0.0000037860  -0.0009280800  -0.0010661063
        0.0001195262  -0.0001069358  -0.0001580883   0.0000007140  -0.0000630934
       -0.0000744114  -0.0000026117  -0.0000212421  -0.0000020865  -0.0000029546
       -0.0000648245   0.0000152290  -0.0000004868   0.0000169597  -0.0000075071
        0.0000201587   0.0000055160   0.0000195588   0.0000100277   0.0000336868
        0.0000204897  -0.0000015757   0.0000482525   0.0000164492  -0.0000027258
        0.0000687312   0.0000458587   0.0000182265
        0.0010590932   0.0001673348  -0.0029002503   0.0048119855  -0.0114781134
       -0.0424062155   0.0056305096   0.0333778500   0.1375060053  -0.0091855530
       -0.0163294463  -0.0427595925   0.0023746917  -0.0044354745  -0.0085974108
        0.0003928247   0.0008807185   0.0057194470  -0.0017684605  -0.0003744096
       -0.0019989358   0.0011212013   0.0011819394  -0.0007987480   0.0001202404
       -0.0005459948   0.0051320321  -0.0001223163   0.0000512592   0.0001668008
        0.0001348475  -0.0006473158   0.0069058025  -0.0022118377  -0.0007651437
       -0.0015947089  -0.0016265145  -0.0007008392  -0.0526675264  -0.0001699101
       -0.0001542058   0.0009028662   0.0000197296   0.0000949576  -0.0000801984
       -0.0000648846  -0.0000043475  -0.0001158001   0.0000321329  -0.0000583740
        0.0000237019   0.0000352584   0.0000589337  -0.0000953134  -0.0000339197
       -0.0001144456  -0.0004614439   0.0000269233   0.0001625892  -0.0007284175
        0.0001011946  -0.0001085075  -0.0001180572  -0.0000545159  -0.0000381107
        0.0000030346   0.0000386691  -0.0000358512   0.0000052464   0.0000177200
        0.0000204919  -0.0000305829  -0.0000177422   0.0000325928   0.0000216324
        0.0000277653   0.0000197882   0.0000479952  -0.0014694647   0.0009825799
        0.0005747389   0.0011477671  -0.0008789195   0.0006908613   0.0000945745
       -0.0000784310   0.0005981625  -0.0004937251  -0.0003326178  -0.0007475480
        0.0000329407  -0.0000270553   0.0002965374  -0.0000097182   0.0000452684
       -0.0024173478  -0.0000090916  -0.0000089371   0.0000390700  -0.0000050635
       -0.0000011048  -0.0000021273   0.0000004237   0.0000028197  -0.0000103124
       -0.0000033052   0.0000112696  -0.0000852580  -0.0000054727   0.0000014896
       -0.0000159926   0.0000074051  -0.0000039785  -0.0000041727   0.0000037512
       -0.0000007257  -0.0000020561   0.0000047097   0.0000163895   0.0000101357
        0.0000151366   0.0000140772  -0.0000060537
        0.0037459514   0.0020331806   0.0001278575   0.0038604409   0.0296048108
        0.0017030984  -0.1424251428  -0.1502900032  -0.0091855530   0.6411112512
        0.0795660046   0.0081363832  -0.1314784341   0.1029832543   0.0057318464
        0.0111367662  -0.0119653645  -0.0008113279  -0.0565286820   0.0215795212
        0.0007036106   0.0047312838   0.0051803889   0.0004435130  -0.0020769080
       -0.0016340677  -0.0001378842   0.0003647646   0.0012819511   0.0000964212
       -0.0001975631  -0.0017528193  -0.0000750988  -0.0053793623   0.0002210985
       -0.0000889868  -0.0242464910  -0.0306981097  -0.0019794913  -0.0003629538
        0.0000019265  -0.0000093213   0.0000235838   0.0000083670  -0.0000053666
       -0.0000675606  -0.0000380225  -0.0000170776   0.0000767922  -0.0001053246
       -0.0000141764   0.0000009110   0.0000989271   0.0000066202  -0.0000602741
       -0.0001876450  -0.0000266033   0.0001033822   0.0000305022  -0.0000086917
       -0.0000246413   0.0000512605   0.0000097655   0.0000155960   0.0000023092
       -0.0000023147  -0.0000123453   0.0000084021  -0.0000055881  -0.0000017970
       -0.0000115696   0.0000166570  -0.0000139682  -0.0000085323   0.0000165093
       -0.0000114670  -0.0000159587  -0.0000265672   0.0003891076  -0.0004376977
       -0.0003136299   0.0003779265  -0.0004677734   0.0002436837  -0.0002985044
        0.0000609818  -0.0000074414  -0.3029087840  -0.0452867918  -0.0045590607
        0.0003615236  -0.0001252403  -0.0000006717  -0.0001168251   0.0002972606
       -0.0000011389  -0.0000283593   0.0000287368  -0.0000104971  -0.0000130734
       -0.0000076847  -0.0000113625  -0.0000116084  -0.0000092689  -0.0000073225
       -0.0000016993   0.0000002344  -0.0000017467  -0.0000007093  -0.0000090748
       -0.0000003349  -0.0000133821  -0.0000039625   0.0000122965  -0.0000156538
        0.0000049789   0.0000124020  -0.0000078287   0.0000086189   0.0000066657
        0.0000047375   0.0000021951   0.0000399251
       -0.0036371384   0.0007143930   0.0001803373   0.0061193395  -0.0732909809
       -0.0049726805  -0.1014397156  -0.3209868559  -0.0163294463   0.0795660046
        0.6945395799   0.0363224753   0.0573470454  -0.1505099379  -0.0051524414
        0.0092304112  -0.0922051323  -0.0067141133   0.0389404871   0.0154932074
        0.0005697440  -0.0010546103  -0.0235080420  -0.0014341408  -0.0001729806
        0.0001142481  -0.0000068157   0.0054679941  -0.0028948798  -0.0002071753
       -0.0090145165   0.0022548465  -0.0000672696   0.0100805933   0.0106356164
        0.0005515046  -0.0448455580  -0.0122832067  -0.0010694343   0.0017488196
        0.0022506912   0.0001273277  -0.0007532201  -0.0010894379  -0.0000783669
        0.0012495818   0.0002250379   0.0000491625  -0.0006187292   0.0011655114
        0.0000232941  -0.0004032708  -0.0012288757  -0.0000826633   0.0000877575
        0.0029486751   0.0002697905  -0.0047973142  -0.0025158386  -0.0001677429
        0.0005431100  -0.0006370180  -0.0000038926  -0.0001465625   0.0002557638
       -0.0000216495   0.0000242217  -0.0000160159  -0.0000617141  -0.0000019584
        0.0000259310  -0.0000296052   0.0000594834  -0.0000313959   0.0000827012
       -0.0001663976   0.0001467479   0.0000925385   0.0004908881   0.0001517991
        0.0003310222   0.0005455178   0.0001699913  -0.0002912044  -0.0008802011
        0.0003836605  -0.0000014580  -0.0437816088  -0.0505888129  -0.0018093965
       -0.0002809844   0.0000730843   0.0000149107   0.0006544459   0.0005028777
       -0.0000112444   0.0001146599  -0.0000322596  -0.0000067130   0.0000148374
       -0.0001031901  -0.0000070065  -0.0000739864  -0.0000767197  -0.0000136857
       -0.0000921204  -0.0000095196  -0.0000119790   0.0000346614  -0.0000478879
       -0.0000541428  -0.0000613497   0.0000014391   0.0000267677  -0.0000485007
        0.0000224417   0.0000014719  -0.0000574319   0.0000505546  -0.0000390269
        0.0000082955  -0.0000700908   0.0000019606
       -0.0002225270   0.0001765521  -0.0024414151   0.0003172289  -0.0046025727
        0.0100031381  -0.0062452780  -0.0170732626  -0.0427595925   0.0081363832
        0.0363224753   0.0898296588   0.0028345664  -0.0048614364  -0.0594048477
        0.0005670901  -0.0068499635   0.0164096420   0.0018069751   0.0004016309
        0.0120254418  -0.0000331801  -0.0013373639  -0.0016561586  -0.0000075458
       -0.0000074715   0.0005911741   0.0002814800  -0.0002090602   0.0001665149
       -0.0005187383   0.0001233268   0.0001101558   0.0005143042   0.0004643447
        0.0030655747  -0.0028460695  -0.0009799408   0.0012573071   0.0001056153
        0.0001497642  -0.0003717050  -0.0000401642  -0.0000541135   0.0000325841
        0.0000642969   0.0000040142   0.0000651856  -0.0000401512   0.0000567413
        0.0000319497  -0.0000259861  -0.0000614549   0.0000537802   0.0000096492
        0.0001774195  -0.0000059570  -0.0002334624  -0.0001441484  -0.0000799065
        0.0000315430  -0.0000372652  -0.0000409524  -0.0000072007   0.0000215740
        0.0000037771   0.0000020401   0.0000046247   0.0000044084   0.0000012563
        0.0000063208   0.0000053450   0.0000033702   0.0000050432   0.0000038091
        0.0000121535   0.0000127202  -0.0000103826   0.0003020114   0.0001427818
        0.0000283307  -0.0002849409  -0.0000717891  -0.0000231664  -0.0000575806
       -0.0000063237   0.0003744873  -0.0044126892  -0.0017903635  -0.0268788514
       -0.0000158425   0.0000122894  -0.0000827677   0.0000390396   0.0000353418
       -0.0003321564   0.0000058637  -0.0000047524  -0.0000177627  -0.0000026234
       -0.0000082580   0.0000127434  -0.0000056079  -0.0000044183   0.0000077988
       -0.0000065162   0.0000018159   0.0000125792  -0.0000150457  -0.0000080796
        0.0000074654  -0.0000061961   0.0000064159   0.0000133077  -0.0000058091
        0.0000012371   0.0000008757  -0.0000024411  -0.0000121948  -0.0000078410
        0.0000007289  -0.0000022006  -0.0000035718
       -0.0025273902   0.0004808024   0.0000189766   0.0064392315  -0.0216183612
       -0.0012979811   0.0279443227   0.0358321613   0.0023746917  -0.1314784341
        0.0573470454   0.0028345664   0.4448350731   0.0678951955   0.0070389208
       -0.1198997860  -0.1530378850  -0.0101252222  -0.1688675156   0.0330390641
        0.0009330102  -0.0249629159  -0.0524271149  -0.0036268182   0.0039280201
        0.0046279987   0.0003696259  -0.0014413413  -0.0038756569  -0.0002963638
       -0.0056256049   0.0006239591  -0.0000301857   0.0056670189   0.0047254681
        0.0003704710  -0.0138779726   0.0014685347   0.0000806760   0.0015038471
        0.0023014735   0.0001452213  -0.0002732336  -0.0018319032  -0.0000797934
        0.0017171119   0.0000795012   0.0000737090  -0.0009040080   0.0014051763
        0.0000463926  -0.0009655807  -0.0012001682  -0.0000734582   0.0005199729
        0.0028218995   0.0000698554  -0.0006770606  -0.0017012054  -0.0000226498
       -0.0006584263   0.0004542721   0.0000610600   0.0001155956  -0.0001604720
        0.0000706220  -0.0000795926   0.0000074129   0.0000718394  -0.0000253966
        0.0000465918  -0.0000441893  -0.0000079582   0.0001167604  -0.0000986379
        0.0002647454   0.0000305025   0.0000951520   0.0000161196   0.0004972910
        0.0003403655   0.0000182548   0.0005304255  -0.0002750742   0.0000341878
        0.0000981225   0.0000089103  -0.0202103409   0.0206380288   0.0011516052
       -0.0006895548  -0.0000801473   0.0000075666   0.0003109902   0.0007759471
        0.0000021253  -0.0000670578   0.0000373097   0.0000049551   0.0000263984
        0.0000943842   0.0000128900   0.0000494780   0.0000397611   0.0000025470
        0.0000726423  -0.0000617398   0.0000030357  -0.0000426045   0.0000483955
       -0.0000419464   0.0000147606   0.0000091380  -0.0000416374   0.0000022275
       -0.0000266532  -0.0000184287  -0.0000501594  -0.0000200738   0.0000091723
       -0.0001480637  -0.0000312422  -0.0001255767
        0.0041319283   0.0005020337   0.0000109593  -0.0138159537   0.0183945188
        0.0003507979  -0.0085040706  -0.0796367039  -0.0044354745   0.1029832543
       -0.1505099379  -0.0048614364   0.0678951955   0.8366607527   0.0426998080
       -0.1639653807  -0.5504397456  -0.0324227635   0.0290076290  -0.0830030856
       -0.0021058689  -0.0273166657   0.0121294141   0.0006838613  -0.0017949961
       -0.0017149504  -0.0002294736  -0.0101322121   0.0020312981   0.0000885040
        0.0063610212  -0.0034193706  -0.0000126022  -0.0055341566  -0.0067231813
       -0.0004387253   0.0153952324   0.0018647536   0.0004513764  -0.0009845668
       -0.0009768440  -0.0000088264   0.0009712376  -0.0002441938   0.0000324684
       -0.0003367405  -0.0002098135  -0.0000440412   0.0002484750  -0.0007193204
       -0.0000246111  -0.0001221600   0.0009706004   0.0000661993   0.0002477601
       -0.0024411260  -0.0004229751   0.0077083114   0.0024927712   0.0002174837
       -0.0015928500   0.0016610871   0.0000835112   0.0004220060  -0.0004774564
        0.0000683012  -0.0000931143   0.0000293825   0.0001266164   0.0000151146
       -0.0000740587   0.0000401596  -0.0001577872   0.0001336774  -0.0001801694
        0.0003896728  -0.0003792291  -0.0000843537  -0.0000613635  -0.0004851528
       -0.0004123674  -0.0000358978  -0.0006042570   0.0003837840  -0.0001609849
        0.0000609585   0.0000067906  -0.0018749965   0.0043491754   0.0002995750
        0.0006306533  -0.0000759607   0.0000214826  -0.0001974962   0.0002400982
        0.0000201071  -0.0002597543   0.0000779208  -0.0000076773   0.0000207142
        0.0002513572   0.0000002703   0.0001366511   0.0001562791   0.0000059162
        0.0002503485  -0.0000108383   0.0000177382  -0.0000853940   0.0001056355
        0.0000515134   0.0001182222  -0.0000002023  -0.0000642358   0.0001057769
       -0.0000400294  -0.0000022775   0.0000885620  -0.0000887171   0.0000930976
       -0.0001012248   0.0001624604  -0.0000624420
        0.0002172146  -0.0000263090   0.0009972534  -0.0008507166   0.0003447269
        0.0113708458  -0.0002471778  -0.0040961773  -0.0085974108   0.0057318464
       -0.0051524414  -0.0594048477   0.0070389208   0.0426998080   0.1682512685
       -0.0108337578  -0.0322965867  -0.0611714174   0.0006756484  -0.0020484760
       -0.0446238914  -0.0019419865   0.0004621564  -0.0041660194  -0.0001867659
       -0.0001653271   0.0009394448  -0.0006487224   0.0000115056   0.0017691501
        0.0003411060  -0.0002346837   0.0003587178  -0.0002866212  -0.0003533779
       -0.0002426086   0.0008209296   0.0004007130  -0.0040853539  -0.0000439155
       -0.0000206439  -0.0000429821   0.0000628154  -0.0000402106  -0.0000115942
       -0.0000025979  -0.0000139917  -0.0000010996   0.0000033525  -0.0000422568
        0.0000302142  -0.0000208507   0.0000611136  -0.0000897101   0.0000268448
       -0.0001149979  -0.0001352509   0.0004170857   0.0001428441  -0.0001148148
       -0.0000524847   0.0000520347   0.0000202849   0.0000031783  -0.0000374933
       -0.0000122081   0.0000069474  -0.0000080080  -0.0000086505   0.0000112774
        0.0000026252  -0.0000200494  -0.0000088326   0.0000143310  -0.0000117246
       -0.0000086058  -0.0000319241   0.0000498464   0.0001817184  -0.0006010526
       -0.0003004634  -0.0001848767   0.0005830172  -0.0001799315  -0.0000141483
        0.0000025959   0.0000263078  -0.0002388265   0.0004139227  -0.0003647087
        0.0000337945  -0.0000002231  -0.0000474217  -0.0000049329   0.0000336679
       -0.0001786369  -0.0000169299   0.0000033331   0.0000152102   0.0000014099
        0.0000147144   0.0000108728   0.0000095029   0.0000083867   0.0000219298
        0.0000164301   0.0000027603   0.0000002822  -0.0000014493   0.0000191557
       -0.0000101642   0.0000171428   0.0000067277  -0.0000102393   0.0000126746
       -0.0000031663  -0.0000100504  -0.0000126166  -0.0000014170  -0.0000047612