94
 energy: -150.482586848576 gnorm: 0.000189912158 xtb: 6.7.1 (edcfbbe)
N            1.85182193852870       10.09077124864657        0.11600468463218
C            1.32981048600612        9.06376553194357        0.08008039498019
C            0.66389616695654        7.83105932221927        0.03728600357652
N            1.35821322267913        6.69001564138642        0.05712215238248
C            0.67786334670221        5.52610177226042        0.02347927570690
C            1.39500608970004        4.29495656994209        0.03234960397406
C            2.80207717818511        4.30703085934199        0.06511465095369
C            3.51998411138661        3.14397667296202        0.06616115000623
C            2.85771363638118        1.90258348727972        0.02377098025951
C            3.61570416942843        0.65010462725145        0.00798205702053
C            4.78461439886818        0.50498168128650        0.76027434699261
C            5.49494506830810       -0.67488229066757        0.75335273975762
C            5.06368922175291       -1.75742920638248       -0.02003520855578
N            5.77866662868321       -2.95321936085020       -0.03433726219851
C            7.17492809029631       -2.93972910198254        0.04906848190743
C            7.84887819123567       -3.93054278024816        0.76592844911073
C            9.22796332768437       -3.91561339836367        0.84054585572318
C            9.95437795262559       -2.91686192150951        0.21025252203454
C            9.28951308019496       -1.92981129046553       -0.50122477705694
C            7.91107770500329       -1.93801220578031       -0.58722613927122
C            5.09909489652702       -4.17251190883628       -0.13816162167235
C            3.88114865159529       -4.35882366396189        0.51893380147906
C            3.21217100024015       -5.56242967402440        0.41163518192476
C            3.74505700187041       -6.59628424572802       -0.34304257228811
C            4.95580061468394       -6.41712058653092       -0.99449267820386
C            5.63121182868653       -5.21600130878755       -0.89795760630728
C            3.89868635586967       -1.61706812714655       -0.78100404486171
C            3.18998161828879       -0.43707738142086       -0.76097037826016
C            1.47309590779887        1.88523256886177       -0.00359771498697
C            0.70685507855559        3.05500376078180        0.00620257401392
C           -0.73687935857957        3.04685662818410       -0.00821990344318
C           -1.48996401421925        1.86855277665299       -0.00086064192094
C           -2.87481349083943        1.87040429678345       -0.02500541838724
C           -3.61920352728647        0.60985186843015       -0.00944444778788
C           -3.17734345388065       -0.47570449816373        0.75278989951731
C           -3.87423414983039       -1.66266640342375        0.77412121020422
C           -5.04367329881385       -1.81203784602336        0.02169114501734
N           -5.74725154160035       -3.01447741564859        0.03805531502717
C           -7.14416403945035       -3.01415815476937       -0.03528603244195
C           -7.88547148195832       -2.02122045250525        0.60871116788200
C           -9.26452436734603       -2.02664403308962        0.53293160101110
C           -9.92479131257720       -3.01865001295444       -0.17591609316341
C           -9.19318461834053       -4.00855453328273       -0.81410996780267
C           -7.81352235472103       -4.00987685095525       -0.74965317081541
C           -5.05569709686428       -4.22764895409543        0.13463147767553
C           -5.57265597483388       -5.27744842767907        0.89620907078969
C           -4.88548527623569       -6.47243672784095        0.98555688578597
C           -3.67793927720494       -6.63921311413671        0.32495089349756
C           -3.16007608445320       -5.59904241597366       -0.43151227951995
C           -3.84087232212273       -4.40145153038631       -0.53160409098137
C           -5.49094795584984       -0.73133441140658       -0.74519520814974
C           -4.79208194981310        0.45531674203755       -0.75376326238169
C           -3.55085539488072        3.10459922442391       -0.06256687170794
C           -2.84596938051006        4.27553794495394       -0.06080145378808
C           -1.43878986424952        4.27912914040659       -0.03067674049413
C           -0.73548830502225        5.51812435058611       -0.01997948297222
N           -1.42899280363404        6.67440799363506       -0.05109797849057
C           -0.74763176484126        7.82309570190731       -0.02856728931955
C           -1.42788656814006        9.04808195639785       -0.06857730797479
N           -1.96257774513994       10.06863410570736       -0.10148845633299
H            3.29339539317688        5.26856022807183        0.08336962793255
H            4.59900807901903        3.17665577348883        0.06907837520600
H            5.11931903137311        1.31982704243670        1.38432272968745
H            6.38187327007547       -0.77534025510064        1.36119671528908
H            7.28377772290936       -4.70030908870500        1.27026648117937
H            9.73892057021706       -4.68359171326565        1.40196483068397
H           11.03187534884802       -2.90747395942568        0.27286740478770
H            9.84887162749476       -1.15291515821324       -1.00096797840728
H            7.39576934568429       -1.17844125459965       -1.15632817750097
H            3.47418671303868       -3.55936682866263        1.12015213245922
H            2.27359269630541       -5.69699301087758        0.92837053614500
H            3.22065329714622       -7.53631670356228       -0.42288843394480
H            5.37368114655913       -7.21574609730279       -1.58913487859157
H            6.56690680858344       -5.07255613253396       -1.41768157224623
H            3.56822753282987       -2.43638106523291       -1.40201012940508
H            2.31096854641193       -0.33882343004430       -1.37979725967881
H            0.97924312870949        0.92738293445278       -0.00932928733492
H           -0.98525330655463        0.91636168171175        0.00086366059880
H           -2.29499364965149       -0.37103967419360        1.36576826800492
H           -3.53116344662642       -2.48050560228425        1.39018951287901
H           -7.37359117159285       -1.25777541116309        1.17571608018427
H           -9.82787733690419       -1.25645354234478        1.03852889009987
H          -11.00277392174239       -3.01996966845309       -0.23030681042612
H           -9.70061929455401       -4.78052066793224       -1.37325463246300
H           -7.24451431957396       -4.77279064638437       -1.25996904406668
H           -6.50583943344484       -5.14374214256790        1.42301820066908
H           -5.29179953342465       -7.27605873677620        1.58148388954088
H           -3.14438862625838       -7.57455514633765        0.39906913479896
H           -2.22397962028996       -5.72390510464363       -0.95515060403633
H           -3.44568814813820       -3.59710921836837       -1.13417884597612
H           -6.38135570834030       -0.83838855364320       -1.34679339056130
H           -5.13938114567796        1.26852552543505       -1.37299892140491
H           -4.63016459801727        3.12559980858369       -0.06235778452033
H           -3.34796940870713        5.23156172541947       -0.07600252049276
