80
 energy: -99.634263650697 gnorm: 0.000065823599 xtb: 6.7.1 (edcfbbe)
C            5.10300304608977        3.63380285218069        0.11413517388674
C            3.57877809364690        3.77779517195425        0.10934849220149
C            3.18193634868001        4.59811409996623       -1.12615581209742
C            3.16664118358937        4.52333432729458        1.38651817918796
C            2.86696692718875        2.43419570553010        0.06603358753335
C            3.52756306206795        1.23265945633252        0.03508320227012
C            2.82770158006610        0.00999082872356        0.00415931660234
C            3.53618319632568       -1.20768596004404       -0.02766691425839
C            2.88405766854969       -2.41378902180713       -0.06032409297236
C            3.60522301098450       -3.75225048541051       -0.10737544618112
C            3.19516424612460       -4.49841148679996       -1.38488058780378
C            3.21711385475459       -4.57746575555027        1.12760517699729
C            5.12837217634891       -3.59745669485647       -0.11584479865878
C            1.48096898340274       -2.40220987383019       -0.04740862046051
C            0.73386500859776       -1.24098766478450       -0.00901636362748
C           -0.72505394359180       -1.24617260848125        0.01810593384615
C           -1.46392608304959       -2.41268970600337        0.05533702273764
C           -2.86689753268374       -2.43416397176797        0.06922300425760
C           -3.57865190078824       -3.77776899758819        0.11293471981419
C           -3.18634410007238       -4.59553382236381       -1.12570939353462
C           -3.16182428736637       -4.52590643812176        1.38705129340299
C           -5.10284485827263       -3.63369029872653        0.12382733614903
C           -3.52752323440212       -1.23263080943946        0.03920331110107
C           -2.82767453300157       -0.00998864652911        0.00691267227674
C           -3.53617985115992        1.20765479398274       -0.02529016381818
C           -2.88407728921077        2.41373053414578       -0.05955827481139
C           -3.60532643592412        3.75210325502540       -0.10776116104900
C           -3.21705442764675        4.57847915893690        1.12641269142875
C           -3.19560219895901        4.49710808830372       -1.38606347753076
C           -5.12848895590198        3.59723016484857       -0.11588013538421
C           -1.48098063385025        2.40218267498141       -0.04727424654958
C           -0.73385114734102        1.24098071439966       -0.00857046106295
C            0.72508931435176        1.24616830249558        0.01737932270838
C            1.46398193563028        2.41269047529532        0.05424322748969
C            1.41251230626292        0.00500291243311        0.00425533651914
C           -1.41248561969322       -0.00500253306487        0.00566267785489
H            5.45082638836513        3.13203665546545       -0.78589642218914
H            5.56098052491024        4.62050773669688        0.14709839890914
H            5.44017229620193        3.07777709859771        0.98587752320037
H            2.11319907575478        4.79244260522626       -1.15040347490861
H            3.45006118747531        4.06217805666648       -2.03443020918601
H            3.70048695590626        5.55477542692486       -1.12334700792201
H            3.42856961021486        3.93645945823748        2.26460534849210
H            3.68096726249094        5.48052972911800        1.44440643030774
H            2.09677582564863        4.71138447692123        1.41174282448239
H            4.60464969893791        1.18287888198231        0.03532696693928
H            4.61289369376817       -1.15031181893769       -0.02784491481754
H            3.44928182212768       -3.90734292938303       -2.26243947538135
H            2.12686441256051       -4.69549159312025       -1.40713002882748
H            3.71735068370173       -5.45108325925245       -1.44664388050991
H            3.74163811991975       -5.53083666088916        1.12138500971809
H            3.48452174221075       -4.04165564687704        2.03614813724281
H            2.14967229443023       -4.77848740174341        1.15456667399129
H            5.45919801859030       -3.03673072757524       -0.98701000990164
H            5.47516255414106       -3.09568350416408        0.78457532819268
H            5.59317868474656       -4.58081803844121       -0.15271100045964
H            0.97274329457772       -3.35170129846603       -0.07059124955611
H           -0.94904079092078       -3.35863363795584        0.07653937557532
H           -3.70447523376489       -5.55240895870207       -1.12280427183560
H           -3.45829135082769       -4.05785697188469       -2.03180752521562
H           -2.11759714950110       -4.78923036919370       -1.15456651317584
H           -3.67737870350041       -5.48237558782081        1.44580063733977
H           -2.09217742375407       -4.71578786300049        1.40722651414388
H           -3.41888424999953       -3.93998170110261        2.26719881111819
H           -5.56073701194903       -4.62041553382716        0.15723926476008
H           -5.45421200656561       -3.13074497692067       -0.77415655359745
H           -5.43651535415818       -3.07877683004684        0.99762804525868
H           -4.60460909826977       -1.18282073840960        0.04105972714150
H           -4.61289136793751        1.15027640433655       -0.02472957558156
H           -2.14972883754147        4.78036076073810        1.15247566133783
H           -3.74232761702274        5.53143665857602        1.11988419990737
H           -3.48343399627770        4.04307765051705        2.03553253301091
H           -3.71638256719827        5.45056598068409       -1.44757610584819
H           -2.12699886019877        4.69250012889828       -1.40968690332993
H           -3.45167649785635        3.90607214369487       -2.26311364778014
H           -5.59337172092884        4.58052786348257       -0.15353430414676
H           -5.47515486107340        3.09619266102525        0.78500863745635
H           -5.45937052629196        3.03572936275472       -0.98654561642614
H           -0.97275546843627        3.35165963986511       -0.07135506376097
H            0.94907557921581        3.35859502486216        0.07686887612379
