      -----------------------------------------------------------      
     |                   =====================                   |     
     |                           x T B                           |     
     |                   =====================                   |     
     |                         S. Grimme                         |     
     |          Mulliken Center for Theoretical Chemistry        |     
     |                    University of Bonn                     |     
      -----------------------------------------------------------      

   * xtb version 6.7.1 (edcfbbe) compiled by 'albert@albert-system' on 2024-07-22

   xtb is free software: you can redistribute it and/or modify it under
   the terms of the GNU Lesser General Public License as published by
   the Free Software Foundation, either version 3 of the License, or
   (at your option) any later version.
   
   xtb is distributed in the hope that it will be useful,
   but WITHOUT ANY WARRANTY; without even the implied warranty of
   MERCHANTABILITY or FITNESS FOR A PARTICULAR PURPOSE.  See the
   GNU Lesser General Public License for more details.
   
   Cite this work as:
   * C. Bannwarth, E. Caldeweyher, S. Ehlert, A. Hansen, P. Pracht,
     J. Seibert, S. Spicher, S. Grimme, WIREs Comput. Mol. Sci., 2020, 11,
     e01493. DOI: 10.1002/wcms.1493
   
   for GFN2-xTB:
   * C. Bannwarth, S. Ehlert and S. Grimme., J. Chem. Theory Comput., 2019,
     15, 1652-1671. DOI: 10.1021/acs.jctc.8b01176
   for GFN1-xTB:
   * S. Grimme, C. Bannwarth, P. Shushkov, J. Chem. Theory Comput., 2017,
     13, 1989-2009. DOI: 10.1021/acs.jctc.7b00118
   for GFN0-xTB:
   * P. Pracht, E. Caldeweyher, S. Ehlert, S. Grimme, ChemRxiv, 2019, preprint.
     DOI: 10.26434/chemrxiv.8326202.v1
   for GFN-FF:
   * S. Spicher and S. Grimme, Angew. Chem. Int. Ed., 2020, 59, 15665-15673.
     DOI: 10.1002/anie.202004239
   
   for ALPB and GBSA implicit solvation:
   * S. Ehlert, M. Stahn, S. Spicher, S. Grimme, J. Chem. Theory Comput.,
     2021, 17, 4250-4261. DOI: 10.1021/acs.jctc.1c00471
   
   for ddCOSMO and CPCM-X implicit solvation:
   * M. Stahn, S. Ehlert, S. Grimme, J. Phys. Chem. A,
     2023, XX, XXXX-XXXX. DOI: 10.1021/acs.jpca.3c04382
   
   for DFT-D4:
   * E. Caldeweyher, C. Bannwarth and S. Grimme, J. Chem. Phys., 2017,
     147, 034112. DOI: 10.1063/1.4993215
   * E. Caldeweyher, S. Ehlert, A. Hansen, H. Neugebauer, S. Spicher,
     C. Bannwarth and S. Grimme, J. Chem. Phys., 2019, 150, 154122.
     DOI: 10.1063/1.5090222
   * E. Caldeweyher, J.-M. Mewes, S. Ehlert and S. Grimme, Phys. Chem. Chem. Phys.
     2020, 22, 8499-8512. DOI: 10.1039/D0CP00502A
   
   for sTDA-xTB:
   * S. Grimme and C. Bannwarth, J. Chem. Phys., 2016, 145, 054103.
     DOI: 10.1063/1.4959605
   
   in the mass-spec context:
   * V. Asgeirsson, C. Bauer and S. Grimme, Chem. Sci., 2017, 8, 4879.
     DOI: 10.1039/c7sc00601b
   * J. Koopman and S. Grimme, ACS Omega 2019, 4, 12, 15120-15133.
     DOI: 10.1021/acsomega.9b02011
   
   for metadynamics refer to:
   * S. Grimme, J. Chem. Theory Comput., 2019, 155, 2847-2862
     DOI: 10.1021/acs.jctc.9b00143
   
   for SPH calculations refer to:
   * S. Spicher and S. Grimme, J. Chem. Theory Comput., 2021, 17, 1701-1714
     DOI: 10.1021/acs.jctc.0c01306
   
   for ONIOM refer to:
   * C. Plett, A. Katbashev, S. Ehlert, S. Grimme, M. Bursch,
     Phys. Chem. Chem. Phys., 2023, 25, 17860-17868. DOI: 10.1039/D3CP02178E
   
   for DIPRO refer to:
   * J. Kohn, N. Gildemeister, S. Grimme, D. Fazzi, A. Hansen,
     J. Chem. Phys., 2023, just accepted.
   
   for PTB refer to:
   * S. Grimme, M. Mueller, A. Hansen, J. Chem. Phys., 2023, 158, 124111.
     DOI: 10.1063/5.0137838
   
   with help from (in alphabetical order)
   P. Atkinson, C. Bannwarth, F. Bohle, G. Brandenburg, E. Caldeweyher
   M. Checinski, S. Dohm, S. Ehlert, S. Ehrlich, I. Gerasimov, C. Hölzer
   A. Katbashev, J. Kohn, J. Koopman, C. Lavigne, S. Lehtola, F. März, M. Müller,
   F. Musil, H. Neugebauer, J. Pisarek, C. Plett, P. Pracht, F. Pultar,
   J. Seibert, P. Shushkov, S. Spicher, M. Stahn, M. Steiner, T. Strunk,
   J. Stückrath, T. Rose, and J. Unsleber
   
 * started run on 2025/09/02 at 20:56:07.490     
   ID    Z sym.   atoms
    1    6 C      1-20, 22-44, 46-59, 61-80
    2    7 N      21, 45, 60
    3    1 H      81-141

           -------------------------------------------------
          |                Calculation Setup                |
           -------------------------------------------------

          program call               : xtb data2507/gas/PTPC/PTPC_gas_S0_crest.xyz --gfn 2 --ohess vtight --parallel 40 --molden --ceasefiles --namespace data2507/gas/PTPC/PTPC_gas_S0_finalOpt
          calculation namespace      : data2507/gas/PTPC/PTPC_gas_S0_finalOpt
          coordinate file            : data2507/gas/PTPC/PTPC_gas_S0_crest.xyz
          omp threads                :                    40


           -------------------------------------------------
          |                 G F N 2 - x T B                 |
           -------------------------------------------------

        Reference                      10.1021/acs.jctc.8b01176
      * Hamiltonian:
        H0-scaling (s, p, d)           1.850000    2.230000    2.230000
        zeta-weighting                 0.500000
      * Dispersion:
        s8                             2.700000
        a1                             0.520000
        a2                             5.000000
        s9                             5.000000
      * Repulsion:
        kExp                           1.500000    1.000000
        rExp                           1.000000
      * Coulomb:
        alpha                          2.000000
        third order                    shell-resolved
        anisotropic                    true
        a3                             3.000000
        a5                             4.000000
        cn-shift                       1.200000
        cn-exp                         4.000000
        max-rad                        5.000000


          ...................................................
          :                      SETUP                      :
          :.................................................:
          :  # basis functions                 381          :
          :  # atomic orbitals                 381          :
          :  # shells                          221          :
          :  # electrons                       384          :
          :  max. iterations                   250          :
          :  Hamiltonian                  GFN2-xTB          :
          :  restarted?                      false          :
          :  GBSA solvation                  false          :
          :  PC potential                    false          :
          :  electronic temp.          300.0000000     K    :
          :  accuracy                    1.0000000          :
          :  -> integral cutoff          0.2500000E+02      :
          :  -> integral neglect         0.1000000E-07      :
          :  -> SCF convergence          0.1000000E-05 Eh   :
          :  -> wf. convergence          0.1000000E-03 e    :
          :  Broyden damping             0.4000000          :
          :  net charge                          0          :
          :  unpaired electrons                  0          :
          ...................................................

 iter      E             dE          RMSdq      gap      omega  full diag
   1   -208.5288555 -0.208529E+03  0.403E+00    2.40       0.0  T
   2   -208.6920077 -0.163152E+00  0.244E+00    2.42       1.0  T
   3   -208.6289446  0.630630E-01  0.998E-01    2.30       1.0  T
   4   -208.7131562 -0.842115E-01  0.311E-01    2.38       1.0  T
   5   -208.7253218 -0.121657E-01  0.950E-02    2.36       1.0  T
   6   -208.7260810 -0.759141E-03  0.368E-02    2.36       1.0  T
   7   -208.7261687 -0.876604E-04  0.181E-02    2.36       1.0  T
   8   -208.7261757 -0.702365E-05  0.756E-03    2.36       1.1  T
   9   -208.7261804 -0.477359E-05  0.185E-03    2.37       4.6  T
  10   -208.7261808 -0.367421E-06  0.665E-04    2.37      12.7  T
  11   -208.7261808 -0.334621E-07  0.304E-04    2.36      27.7  T

   *** convergence criteria satisfied after 11 iterations ***

         #    Occupation            Energy/Eh            Energy/eV
      -------------------------------------------------------------
         1        2.0000           -0.6839733             -18.6119
       ...           ...                  ...                  ...
       186        2.0000           -0.3866815             -10.5221
       187        2.0000           -0.3777762             -10.2798
       188        2.0000           -0.3753459             -10.2137
       189        2.0000           -0.3731460             -10.1538
       190        2.0000           -0.3675770             -10.0023
       191        2.0000           -0.3593882              -9.7795
       192        2.0000           -0.3509800              -9.5507 (HOMO)
       193                         -0.2640688              -7.1857 (LUMO)
       194                         -0.2538581              -6.9078
       195                         -0.2475289              -6.7356
       196                         -0.2467619              -6.7147
       197                         -0.2409337              -6.5561
       ...                                ...                  ...
       381                          0.7488747              20.3779
      -------------------------------------------------------------
                  HL-Gap            0.0869112 Eh            2.3650 eV
             Fermi-level           -0.3075244 Eh           -8.3682 eV

 SCC (total)                   0 d,  0 h,  0 min,  0.346 sec
 SCC setup                      ...        0 min,  0.001 sec (  0.314%)
 Dispersion                     ...        0 min,  0.009 sec (  2.567%)
 classical contributions        ...        0 min,  0.000 sec (  0.065%)
 integral evaluation            ...        0 min,  0.019 sec (  5.517%)
 iterations                     ...        0 min,  0.283 sec ( 81.791%)
 molecular gradient             ...        0 min,  0.031 sec (  8.828%)
 printout                       ...        0 min,  0.003 sec (  0.889%)

         :::::::::::::::::::::::::::::::::::::::::::::::::::::
         ::                     SUMMARY                     ::
         :::::::::::::::::::::::::::::::::::::::::::::::::::::
         :: total energy            -204.886676030556 Eh    ::
         :: gradient norm              0.000397612672 Eh/a0 ::
         :: HOMO-LUMO gap              2.364973737096 eV    ::
         ::.................................................::
         :: SCC energy              -208.726082018980 Eh    ::
         :: -> isotropic ES            0.026416084558 Eh    ::
         :: -> anisotropic ES          0.026089147503 Eh    ::
         :: -> anisotropic XC          0.121831296435 Eh    ::
         :: -> dispersion             -0.199775906565 Eh    ::
         :: repulsion energy           3.839405988424 Eh    ::
         :: add. restraining           0.000000000000 Eh    ::
         :: total charge               0.000000000000 e     ::
         :::::::::::::::::::::::::::::::::::::::::::::::::::::

      ----------------------------------------------------------- 
     |                   =====================                   |
     |                        A N C O P T                        |
     |                   =====================                   |
     |               Approximate Normal Coordinate               |
     |                Rational Function Optimizer                |
      ----------------------------------------------------------- 

Optimization log is written to '/dev/null'
      ----------------------------------------------------------- 
     |                   =====================                   |
     |                        A N C O P T                        |
     |                   =====================                   |
     |               Approximate Normal Coordinate               |
     |                Rational Function Optimizer                |
      ----------------------------------------------------------- 

          ...................................................
          :                      SETUP                      :
          :.................................................:
          :   optimization level         verytight          :
          :   max. optcycles                  2820          :
          :   ANC micro-cycles                  20          :
          :   degrees of freedom               417          :
          :.................................................:
          :   RF solver                   davidson          :
          :   write xtbopt.log                true          :
          :   linear?                        false          :
          :   energy convergence         0.1000000E-06 Eh   :
          :   grad. convergence          0.2000000E-03 Eh/α :
          :   maxmium RF displ.          1.0000000          :
          :   Hlow (freq-cutoff)         0.1000000E-01      :
          :   Hmax (freq-cutoff)         5.0000000          :
          :   S6 in model hess.         20.0000000          :
          ...................................................

generating ANC from exact Hessian ...
Using Lindh-Hessian (1995)
 Shifting diagonal of input Hessian by   9.991117727026072E-003
 Lowest  eigenvalues of input Hessian
    0.000000    0.000000    0.000000    0.000000    0.000000    0.010000
    0.000000    0.010003    0.010025    0.010048    0.010117    0.010124
    0.010201    0.010303    0.010381    0.010399    0.010410    0.010537
 Highest eigenvalues
    2.141735    2.142948    2.191018    2.198208    2.230244    2.245718
 

........................................................................
.............................. CYCLE    1 ..............................
........................................................................

 iter      E             dE          RMSdq      gap      omega  full diag
   1   -208.7261809 -0.208726E+03  0.123E-04    2.36       0.0  T
   2   -208.7261809 -0.413337E-09  0.807E-05    2.36     104.3  T
   3   -208.7261809 -0.469896E-09  0.498E-05    2.36     169.1  T
     SCC iter.                  ...        0 min,  0.078 sec
     gradient                   ...        0 min,  0.030 sec
 * total energy  :  -204.8866760 Eh     change       -0.2695003E-08 Eh
   gradient norm :     0.0003971 Eh/α   predicted     0.0000000E+00 (-100.00%)
   displ. norm   :     0.0153675 α      lambda       -0.2080549E-06
   maximum displ.:     0.0053906 α      in ANC's #31, #27, #42, ...

........................................................................
.............................. CYCLE    2 ..............................
........................................................................

 iter      E             dE          RMSdq      gap      omega  full diag
   1   -208.7261920 -0.208726E+03  0.286E-03    2.36       0.0  T
   2   -208.7261920 -0.596725E-08  0.169E-03    2.36       5.0  T
   3   -208.7261920  0.714661E-08  0.237E-04    2.36      35.6  T
   4   -208.7261920 -0.863352E-08  0.577E-05    2.36     146.0  T
     SCC iter.                  ...        0 min,  0.097 sec
     gradient                   ...        0 min,  0.028 sec
 * total energy  :  -204.8866781 Eh     change       -0.2049970E-05 Eh
   gradient norm :     0.0002185 Eh/α   predicted    -0.9675633E-06 ( -52.80%)
   displ. norm   :     0.0404571 α      lambda       -0.2984027E-05
   maximum displ.:     0.0135694 α      in ANC's #31, #27, #4, ...

........................................................................
.............................. CYCLE    3 ..............................
........................................................................

 iter      E             dE          RMSdq      gap      omega  full diag
   1   -208.7262135 -0.208726E+03  0.543E-03    2.36       0.0  T
   2   -208.7262135 -0.111386E-07  0.319E-03    2.36       2.6  T
   3   -208.7262135  0.228897E-07  0.408E-04    2.36      20.6  T
   4   -208.7262135 -0.282329E-07  0.716E-05    2.36     117.6  T
     SCC iter.                  ...        0 min,  0.098 sec
     gradient                   ...        0 min,  0.028 sec
 * total energy  :  -204.8866816 Eh     change       -0.3521089E-05 Eh
   gradient norm :     0.0004781 Eh/α   predicted    -0.1494804E-05 ( -57.55%)
   displ. norm   :     0.0802990 α      lambda       -0.4302804E-05
   maximum displ.:     0.0224981 α      in ANC's #31, #4, #42, ...

........................................................................
.............................. CYCLE    4 ..............................
........................................................................

 iter      E             dE          RMSdq      gap      omega  full diag
   1   -208.7262803 -0.208726E+03  0.104E-02    2.36       0.0  T
   2   -208.7262804 -0.357948E-07  0.610E-03    2.36       1.4  T
   3   -208.7262803  0.773829E-07  0.732E-04    2.36      11.5  T
   4   -208.7262804 -0.957229E-07  0.130E-04    2.36      64.6  T
     SCC iter.                  ...        0 min,  0.104 sec
     gradient                   ...        0 min,  0.031 sec
 * total energy  :  -204.8866858 Eh     change       -0.4146766E-05 Eh
   gradient norm :     0.0004835 Eh/α   predicted    -0.2210335E-05 ( -46.70%)
   displ. norm   :     0.0417378 α      lambda       -0.1510592E-05
   maximum displ.:     0.0135795 α      in ANC's #4, #3, #11, ...

........................................................................
.............................. CYCLE    5 ..............................
........................................................................

 iter      E             dE          RMSdq      gap      omega  full diag
   1   -208.7263522 -0.208726E+03  0.521E-03    2.36       0.0  T
   2   -208.7263522 -0.848618E-08  0.306E-03    2.36       2.8  T
   3   -208.7263522  0.176818E-07  0.338E-04    2.36      24.9  T
   4   -208.7263522 -0.216075E-07  0.644E-05    2.36     130.9  T
     SCC iter.                  ...        0 min,  0.095 sec
     gradient                   ...        0 min,  0.028 sec
 * total energy  :  -204.8866875 Eh     change       -0.1707333E-05 Eh
   gradient norm :     0.0002334 Eh/α   predicted    -0.7567863E-06 ( -55.67%)
   displ. norm   :     0.0565485 α      lambda       -0.1972604E-05
   maximum displ.:     0.0200629 α      in ANC's #4, #3, #11, ...

........................................................................
.............................. CYCLE    6 ..............................
........................................................................

 iter      E             dE          RMSdq      gap      omega  full diag
   1   -208.7263761 -0.208726E+03  0.685E-03    2.36       0.0  T
   2   -208.7263761 -0.141645E-07  0.402E-03    2.36       2.1  T
   3   -208.7263761  0.202078E-07  0.377E-04    2.36      22.3  T
   4   -208.7263761 -0.260025E-07  0.796E-05    2.36     105.9  T
     SCC iter.                  ...        0 min,  0.093 sec
     gradient                   ...        0 min,  0.028 sec
 * total energy  :  -204.8866898 Eh     change       -0.2320010E-05 Eh
   gradient norm :     0.0002649 Eh/α   predicted    -0.9905066E-06 ( -57.31%)
   displ. norm   :     0.0870482 α      lambda       -0.2797890E-05
   maximum displ.:     0.0319508 α      in ANC's #4, #3, #11, ...

........................................................................
.............................. CYCLE    7 ..............................
........................................................................

 iter      E             dE          RMSdq      gap      omega  full diag
   1   -208.7262912 -0.208726E+03  0.104E-02    2.36       0.0  T
   2   -208.7262913 -0.250348E-07  0.612E-03    2.36       1.4  T
   3   -208.7262912  0.358012E-07  0.511E-04    2.36      16.5  T
   4   -208.7262913 -0.479697E-07  0.106E-04    2.36      79.6  T
     SCC iter.                  ...        0 min,  0.091 sec
     gradient                   ...        0 min,  0.028 sec
 * total energy  :  -204.8866931 Eh     change       -0.3289299E-05 Eh
   gradient norm :     0.0005841 Eh/α   predicted    -0.1422395E-05 ( -56.76%)
   displ. norm   :     0.1158530 α      lambda       -0.3263099E-05
   maximum displ.:     0.0435933 α      in ANC's #4, #3, #11, ...

........................................................................
.............................. CYCLE    8 ..............................
........................................................................

 iter      E             dE          RMSdq      gap      omega  full diag
   1   -208.7261162 -0.208726E+03  0.137E-02    2.36       0.0  T
   2   -208.7261162 -0.411184E-07  0.802E-03    2.36       1.1  T
   3   -208.7261161  0.789013E-07  0.730E-04    2.36      11.5  T
   4   -208.7261162 -0.101451E-06  0.138E-04    2.36      61.1  T
     SCC iter.                  ...        0 min,  0.093 sec
     gradient                   ...        0 min,  0.028 sec
 * total energy  :  -204.8866967 Eh     change       -0.3630207E-05 Eh
   gradient norm :     0.0006288 Eh/α   predicted    -0.1642166E-05 ( -54.76%)
   displ. norm   :     0.1044104 α      lambda       -0.2629097E-05
   maximum displ.:     0.0407601 α      in ANC's #4, #3, #11, ...

........................................................................
.............................. CYCLE    9 ..............................
........................................................................

 iter      E             dE          RMSdq      gap      omega  full diag
   1   -208.7259980 -0.208726E+03  0.120E-02    2.36       0.0  T
   2   -208.7259980 -0.341325E-07  0.703E-03    2.36       1.2  T
   3   -208.7259979  0.785094E-07  0.709E-04    2.36      11.9  T
   4   -208.7259980 -0.978248E-07  0.127E-04    2.36      66.3  T
     SCC iter.                  ...        0 min,  0.092 sec
     gradient                   ...        0 min,  0.028 sec
 * total energy  :  -204.8866996 Eh     change       -0.2906987E-05 Eh
   gradient norm :     0.0003869 Eh/α   predicted    -0.1322866E-05 ( -54.49%)
   displ. norm   :     0.0898350 α      lambda       -0.2107987E-05
   maximum displ.:     0.0366434 α      in ANC's #4, #3, #5, ...

........................................................................
.............................. CYCLE   10 ..............................
........................................................................

 iter      E             dE          RMSdq      gap      omega  full diag
   1   -208.7259391 -0.208726E+03  0.984E-03    2.36       0.0  T
   2   -208.7259391 -0.266164E-07  0.577E-03    2.36       1.5  T
   3   -208.7259390  0.645734E-07  0.636E-04    2.36      13.2  T
   4   -208.7259391 -0.788935E-07  0.112E-04    2.36      75.4  T
     SCC iter.                  ...        0 min,  0.092 sec
     gradient                   ...        0 min,  0.028 sec
 * total energy  :  -204.8867020 Eh     change       -0.2393036E-05 Eh
   gradient norm :     0.0001694 Eh/α   predicted    -0.1062628E-05 ( -55.59%)
   displ. norm   :     0.0812425 α      lambda       -0.2060871E-05
   maximum displ.:     0.0344221 α      in ANC's #4, #3, #5, ...

........................................................................
.............................. CYCLE   11 ..............................
........................................................................

 iter      E             dE          RMSdq      gap      omega  full diag
   1   -208.7259592 -0.208726E+03  0.846E-03    2.36       0.0  T
   2   -208.7259592 -0.217158E-07  0.496E-03    2.36       1.7  T
   3   -208.7259592  0.483086E-07  0.555E-04    2.36      15.2  T
   4   -208.7259592 -0.593865E-07  0.105E-04    2.36      79.8  T
     SCC iter.                  ...        0 min,  0.102 sec
     gradient                   ...        0 min,  0.028 sec
 * total energy  :  -204.8867043 Eh     change       -0.2328708E-05 Eh
   gradient norm :     0.0003485 Eh/α   predicted    -0.1034698E-05 ( -55.57%)
   displ. norm   :     0.0815375 α      lambda       -0.1960932E-05
   maximum displ.:     0.0354832 α      in ANC's #4, #3, #5, ...

........................................................................
.............................. CYCLE   12 ..............................
........................................................................

 iter      E             dE          RMSdq      gap      omega  full diag
   1   -208.7259792 -0.208726E+03  0.828E-03    2.36       0.0  T
   2   -208.7259793 -0.194484E-07  0.486E-03    2.36       1.7  T
   3   -208.7259792  0.419451E-07  0.519E-04    2.36      16.2  T
   4   -208.7259793 -0.521789E-07  0.102E-04    2.36      82.2  T
     SCC iter.                  ...        0 min,  0.094 sec
     gradient                   ...        0 min,  0.028 sec
 * total energy  :  -204.8867064 Eh     change       -0.2117202E-05 Eh
   gradient norm :     0.0004614 Eh/α   predicted    -0.9876581E-06 ( -53.35%)
   displ. norm   :     0.0596343 α      lambda       -0.1346482E-05
   maximum displ.:     0.0270083 α      in ANC's #4, #3, #5, ...

........................................................................
.............................. CYCLE   13 ..............................
........................................................................

 iter      E             dE          RMSdq      gap      omega  full diag
   1   -208.7260903 -0.208726E+03  0.611E-03    2.36       0.0  T
   2   -208.7260903 -0.995692E-08  0.359E-03    2.36       2.3  T
   3   -208.7260903  0.237599E-07  0.381E-04    2.36      22.1  T
   4   -208.7260903 -0.294334E-07  0.786E-05    2.36     107.1  T
     SCC iter.                  ...        0 min,  0.092 sec
     gradient                   ...        0 min,  0.028 sec
 * total energy  :  -204.8867079 Eh     change       -0.1425636E-05 Eh
   gradient norm :     0.0003079 Eh/α   predicted    -0.6756814E-06 ( -52.60%)
   displ. norm   :     0.0364023 α      lambda       -0.8035190E-06
   maximum displ.:     0.0175365 α      in ANC's #4, #3, #5, ...

........................................................................
.............................. CYCLE   14 ..............................
........................................................................

 iter      E             dE          RMSdq      gap      omega  full diag
   1   -208.7261990 -0.208726E+03  0.393E-03    2.36       0.0  T
   2   -208.7261990 -0.391103E-08  0.231E-03    2.36       3.6  T
   3   -208.7261990  0.937993E-08  0.238E-04    2.36      35.3  T
   4   -208.7261990 -0.114617E-07  0.489E-05    2.36     172.1  T
     SCC iter.                  ...        0 min,  0.092 sec
     gradient                   ...        0 min,  0.028 sec
 * total energy  :  -204.8867088 Eh     change       -0.8812509E-06 Eh
   gradient norm :     0.0001032 Eh/α   predicted    -0.4039312E-06 ( -54.16%)
   displ. norm   :     0.0316224 α      lambda       -0.6236688E-06
   maximum displ.:     0.0162119 α      in ANC's #3, #4, #5, ...

........................................................................
.............................. CYCLE   15 ..............................
........................................................................

 iter      E             dE          RMSdq      gap      omega  full diag
   1   -208.7262778 -0.208726E+03  0.341E-03    2.36       0.0  T
   2   -208.7262778 -0.272021E-08  0.200E-03    2.36       4.2  T
   3   -208.7262778  0.582099E-08  0.194E-04    2.36      43.5  T
   4   -208.7262778 -0.726203E-08  0.408E-05    2.36     206.4  T
     SCC iter.                  ...        0 min,  0.092 sec
     gradient                   ...        0 min,  0.028 sec
 * total energy  :  -204.8867095 Eh     change       -0.7681061E-06 Eh
   gradient norm :     0.0001882 Eh/α   predicted    -0.3158175E-06 ( -58.88%)
   displ. norm   :     0.0392043 α      lambda       -0.8328471E-06
   maximum displ.:     0.0202692 α      in ANC's #3, #4, #5, ...

........................................................................
.............................. CYCLE   16 ..............................
........................................................................

 iter      E             dE          RMSdq      gap      omega  full diag
   1   -208.7263475 -0.208726E+03  0.420E-03    2.36       0.0  T
   2   -208.7263475 -0.352500E-08  0.246E-03    2.36       3.4  T
   3   -208.7263475  0.678094E-08  0.217E-04    2.36      38.8  T
   4   -208.7263475 -0.870898E-08  0.435E-05    2.36     193.6  T
     SCC iter.                  ...        0 min,  0.091 sec
     gradient                   ...        0 min,  0.028 sec
 * total energy  :  -204.8867106 Eh     change       -0.1037892E-05 Eh
   gradient norm :     0.0003376 Eh/α   predicted    -0.4210459E-06 ( -59.43%)
   displ. norm   :     0.0573851 α      lambda       -0.1163800E-05
   maximum displ.:     0.0296794 α      in ANC's #3, #4, #5, ...

........................................................................
.............................. CYCLE   17 ..............................
........................................................................

 iter      E             dE          RMSdq      gap      omega  full diag
   1   -208.7263809 -0.208726E+03  0.594E-03    2.36       0.0  T
   2   -208.7263809 -0.681777E-08  0.348E-03    2.36       2.4  T
   3   -208.7263809  0.135686E-07  0.302E-04    2.36      27.9  T
   4   -208.7263809 -0.175051E-07  0.627E-05    2.36     134.3  T
     SCC iter.                  ...        0 min,  0.092 sec
     gradient                   ...        0 min,  0.028 sec
 * total energy  :  -204.8867120 Eh     change       -0.1405318E-05 Eh
   gradient norm :     0.0003748 Eh/α   predicted    -0.5840512E-06 ( -58.44%)
   displ. norm   :     0.0698843 α      lambda       -0.1247691E-05
   maximum displ.:     0.0366279 α      in ANC's #3, #4, #5, ...

........................................................................
.............................. CYCLE   18 ..............................
........................................................................

 iter      E             dE          RMSdq      gap      omega  full diag
   1   -208.7263601 -0.208726E+03  0.698E-03    2.36       0.0  T
   2   -208.7263601 -0.900289E-08  0.410E-03    2.36       2.1  T
   3   -208.7263601  0.198395E-07  0.354E-04    2.36      23.8  T
   4   -208.7263601 -0.251317E-07  0.702E-05    2.36     120.0  T
     SCC iter.                  ...        0 min,  0.107 sec
     gradient                   ...        0 min,  0.033 sec
 * total energy  :  -204.8867135 Eh     change       -0.1488283E-05 Eh
   gradient norm :     0.0002713 Eh/α   predicted    -0.6269251E-06 ( -57.88%)
   displ. norm   :     0.0722616 α      lambda       -0.1173641E-05
   maximum displ.:     0.0385193 α      in ANC's #3, #4, #5, ...

........................................................................
.............................. CYCLE   19 ..............................
........................................................................

 iter      E             dE          RMSdq      gap      omega  full diag
   1   -208.7262857 -0.208726E+03  0.686E-03    2.36       0.0  T
   2   -208.7262858 -0.929552E-08  0.403E-03    2.36       2.1  T
   3   -208.7262857  0.217388E-07  0.364E-04    2.36      23.1  T
   4   -208.7262858 -0.271399E-07  0.738E-05    2.36     114.1  T
     SCC iter.                  ...        0 min,  0.090 sec
     gradient                   ...        0 min,  0.028 sec
 * total energy  :  -204.8867149 Eh     change       -0.1427299E-05 Eh
   gradient norm :     0.0001224 Eh/α   predicted    -0.5922303E-06 ( -58.51%)
   displ. norm   :     0.0809376 α      lambda       -0.1276928E-05
   maximum displ.:     0.0437105 α      in ANC's #3, #4, #5, ...

........................................................................
.............................. CYCLE   20 ..............................
........................................................................

 iter      E             dE          RMSdq      gap      omega  full diag
   1   -208.7261754 -0.208726E+03  0.737E-03    2.36       0.0  T
   2   -208.7261754 -0.105263E-07  0.432E-03    2.36       1.9  T
   3   -208.7261754  0.253185E-07  0.391E-04    2.36      21.5  T
   4   -208.7261754 -0.314926E-07  0.767E-05    2.36     109.8  T
     SCC iter.                  ...        0 min,  0.090 sec
     gradient                   ...        0 min,  0.028 sec
 * total energy  :  -204.8867165 Eh     change       -0.1581490E-05 Eh
   gradient norm :     0.0002148 Eh/α   predicted    -0.6425894E-06 ( -59.37%)
   displ. norm   :     0.0988953 α      lambda       -0.1554865E-05
   maximum displ.:     0.0538584 α      in ANC's #3, #4, #5, ...
 * RMSD in coord.:     0.0897807 α      energy gain  -0.4042858E-04 Eh

generating ANC from exact Hessian ...
Using Lindh-Hessian (1995)
 Shifting diagonal of input Hessian by   9.991137501389372E-003
 Lowest  eigenvalues of input Hessian
    0.000000    0.000000    0.000000    0.000000    0.000000    0.010000
    0.000000    0.010003    0.010025    0.010048    0.010118    0.010123
    0.010201    0.010305    0.010381    0.010398    0.010409    0.010536
 Highest eigenvalues
    2.141798    2.142969    2.190793    2.198231    2.230317    2.245237
 

........................................................................
.............................. CYCLE   21 ..............................
........................................................................

 iter      E             dE          RMSdq      gap      omega  full diag
   1   -208.7260097 -0.208726E+03  0.858E-03    2.36       0.0  T
   2   -208.7260097 -0.148823E-07  0.503E-03    2.36       1.7  T
   3   -208.7260097  0.342353E-07  0.461E-04    2.36      18.3  T
   4   -208.7260097 -0.429755E-07  0.948E-05    2.36      88.8  T
     SCC iter.                  ...        0 min,  0.090 sec
     gradient                   ...        0 min,  0.028 sec
 * total energy  :  -204.8867184 Eh     change       -0.1898855E-05 Eh
   gradient norm :     0.0003560 Eh/α   predicted     0.0000000E+00 (-100.00%)
   displ. norm   :     0.0085540 α      lambda       -0.6245893E-06
   maximum displ.:     0.0027280 α      in ANC's #30, #27, #3, ...

........................................................................
.............................. CYCLE   22 ..............................
........................................................................

 iter      E             dE          RMSdq      gap      omega  full diag
   1   -208.7260783 -0.208726E+03  0.146E-03    2.36       0.0  T
   2   -208.7260783 -0.206427E-08  0.866E-04    2.36       9.7  T
   3   -208.7260783  0.505901E-08  0.180E-04    2.36      46.7  T
     SCC iter.                  ...        0 min,  0.068 sec
     gradient                   ...        0 min,  0.028 sec
 * total energy  :  -204.8867190 Eh     change       -0.6802068E-06 Eh
   gradient norm :     0.0001304 Eh/α   predicted    -0.3243423E-06 ( -52.32%)
   displ. norm   :     0.0196021 α      lambda       -0.5324719E-06
   maximum displ.:     0.0062645 α      in ANC's #27, #3, #42, ...

........................................................................
.............................. CYCLE   23 ..............................
........................................................................

 iter      E             dE          RMSdq      gap      omega  full diag
   1   -208.7261573 -0.208726E+03  0.233E-03    2.36       0.0  T
   2   -208.7261574 -0.316396E-08  0.138E-03    2.36       6.1  T
   3   -208.7261573  0.482223E-08  0.200E-04    2.36      42.1  T
   4   -208.7261574 -0.585828E-08  0.405E-05    2.36     208.1  T
     SCC iter.                  ...        0 min,  0.089 sec
     gradient                   ...        0 min,  0.028 sec
 * total energy  :  -204.8867199 Eh     change       -0.8536756E-06 Eh
   gradient norm :     0.0002856 Eh/α   predicted    -0.4119172E-06 ( -51.75%)
   displ. norm   :     0.0223587 α      lambda       -0.5695552E-06
   maximum displ.:     0.0081191 α      in ANC's #3, #27, #42, ...

........................................................................
.............................. CYCLE   24 ..............................
........................................................................

 iter      E             dE          RMSdq      gap      omega  full diag
   1   -208.7261729 -0.208726E+03  0.235E-03    2.36       0.0  T
   2   -208.7261729 -0.163487E-08  0.139E-03    2.36       6.1  T
   3   -208.7261729  0.242184E-08  0.147E-04    2.36      57.4  T
   4   -208.7261729 -0.318352E-08  0.354E-05    2.36     238.1  T
     SCC iter.                  ...        0 min,  0.089 sec
     gradient                   ...        0 min,  0.028 sec
 * total energy  :  -204.8867205 Eh     change       -0.6311679E-06 Eh
   gradient norm :     0.0002933 Eh/α   predicted    -0.2934002E-06 ( -53.51%)
   displ. norm   :     0.0239185 α      lambda       -0.4922272E-06
   maximum displ.:     0.0099165 α      in ANC's #3, #42, #1, ...

........................................................................
.............................. CYCLE   25 ..............................
........................................................................

 iter      E             dE          RMSdq      gap      omega  full diag
   1   -208.7262020 -0.208726E+03  0.235E-03    2.36       0.0  T
   2   -208.7262020 -0.175518E-08  0.138E-03    2.36       6.1  T
   3   -208.7262020  0.273320E-08  0.151E-04    2.36      55.7  T
   4   -208.7262020 -0.348467E-08  0.351E-05    2.36     239.7  T
     SCC iter.                  ...        0 min,  0.091 sec
     gradient                   ...        0 min,  0.028 sec
 * total energy  :  -204.8867210 Eh     change       -0.5212838E-06 Eh
   gradient norm :     0.0001545 Eh/α   predicted    -0.2481047E-06 ( -52.41%)
   displ. norm   :     0.0191652 α      lambda       -0.3311234E-06
   maximum displ.:     0.0091491 α      in ANC's #3, #1, #4, ...

........................................................................
.............................. CYCLE   26 ..............................
........................................................................

 iter      E             dE          RMSdq      gap      omega  full diag
   1   -208.7262229 -0.208726E+03  0.181E-03    2.36       0.0  T
   2   -208.7262229 -0.121983E-08  0.107E-03    2.36       7.9  T
   3   -208.7262229  0.253135E-08  0.137E-04    2.36      61.6  T
   4   -208.7262229 -0.306463E-08  0.286E-05    2.36     294.0  T
     SCC iter.                  ...        0 min,  0.089 sec
     gradient                   ...        0 min,  0.028 sec
 * total energy  :  -204.8867214 Eh     change       -0.3618482E-06 Eh
   gradient norm :     0.0000835 Eh/α   predicted    -0.1658544E-06 ( -54.16%)
   displ. norm   :     0.0183112 α      lambda       -0.2752302E-06
   maximum displ.:     0.0093661 α      in ANC's #3, #1, #4, ...

........................................................................
.............................. CYCLE   27 ..............................
........................................................................

 iter      E             dE          RMSdq      gap      omega  full diag
   1   -208.7262277 -0.208726E+03  0.167E-03    2.36       0.0  T
   2   -208.7262277 -0.822354E-09  0.984E-04    2.36       8.6  T
   3   -208.7262277  0.161486E-08  0.107E-04    2.36      79.0  T
     SCC iter.                  ...        0 min,  0.069 sec
     gradient                   ...        0 min,  0.028 sec
 * total energy  :  -204.8867217 Eh     change       -0.3229070E-06 Eh
   gradient norm :     0.0001558 Eh/α   predicted    -0.1386412E-06 ( -57.06%)
   displ. norm   :     0.0229279 α      lambda       -0.3116223E-06
   maximum displ.:     0.0120773 α      in ANC's #3, #1, #4, ...

........................................................................
.............................. CYCLE   28 ..............................
........................................................................

 iter      E             dE          RMSdq      gap      omega  full diag
   1   -208.7262242 -0.208726E+03  0.199E-03    2.36       0.0  T
   2   -208.7262242 -0.104902E-08  0.117E-03    2.36       7.2  T
   3   -208.7262242  0.933852E-09  0.945E-05    2.36      89.1  T
   4   -208.7262242 -0.138917E-08  0.234E-05    2.36     360.1  T
     SCC iter.                  ...        0 min,  0.090 sec
     gradient                   ...        0 min,  0.028 sec
 * total energy  :  -204.8867221 Eh     change       -0.3839141E-06 Eh
   gradient norm :     0.0001839 Eh/α   predicted    -0.1575365E-06 ( -58.97%)
   displ. norm   :     0.0275345 α      lambda       -0.3538153E-06
   maximum displ.:     0.0148921 α      in ANC's #3, #1, #4, ...

........................................................................
.............................. CYCLE   29 ..............................
........................................................................

 iter      E             dE          RMSdq      gap      omega  full diag
   1   -208.7262010 -0.208726E+03  0.220E-03    2.36       0.0  T
   2   -208.7262010 -0.120266E-08  0.129E-03    2.36       6.5  T
   3   -208.7262010  0.126548E-08  0.107E-04    2.36      78.8  T
   4   -208.7262010 -0.181521E-08  0.252E-05    2.36     334.6  T
     SCC iter.                  ...        0 min,  0.089 sec
     gradient                   ...        0 min,  0.028 sec
 * total energy  :  -204.8867225 Eh     change       -0.4280161E-06 Eh
   gradient norm :     0.0001436 Eh/α   predicted    -0.1774994E-06 ( -58.53%)
   displ. norm   :     0.0279872 α      lambda       -0.3435473E-06
   maximum displ.:     0.0156030 α      in ANC's #3, #1, #4, ...

........................................................................
.............................. CYCLE   30 ..............................
........................................................................

 iter      E             dE          RMSdq      gap      omega  full diag
   1   -208.7261730 -0.208726E+03  0.199E-03    2.36       0.0  T
   2   -208.7261730 -0.112365E-08  0.117E-03    2.36       7.2  T
   3   -208.7261730  0.166165E-08  0.114E-04    2.36      73.9  T
   4   -208.7261730 -0.217241E-08  0.255E-05    2.36     330.7  T
     SCC iter.                  ...        0 min,  0.089 sec
     gradient                   ...        0 min,  0.028 sec
 * total energy  :  -204.8867230 Eh     change       -0.4248390E-06 Eh
   gradient norm :     0.0000842 Eh/α   predicted    -0.1768026E-06 ( -58.38%)
   displ. norm   :     0.0316821 α      lambda       -0.3749565E-06
   maximum displ.:     0.0180594 α      in ANC's #3, #1, #4, ...

........................................................................
.............................. CYCLE   31 ..............................
........................................................................

 iter      E             dE          RMSdq      gap      omega  full diag
   1   -208.7261383 -0.208726E+03  0.208E-03    2.36       0.0  T
   2   -208.7261383 -0.115571E-08  0.122E-03    2.36       6.9  T
   3   -208.7261383  0.172776E-08  0.115E-04    2.36      73.2  T
   4   -208.7261383 -0.228869E-08  0.260E-05    2.36     323.5  T
     SCC iter.                  ...        0 min,  0.090 sec
     gradient                   ...        0 min,  0.028 sec
 * total energy  :  -204.8867234 Eh     change       -0.4678664E-06 Eh
   gradient norm :     0.0001155 Eh/α   predicted    -0.1882134E-06 ( -59.77%)
   displ. norm   :     0.0366066 α      lambda       -0.4186483E-06
   maximum displ.:     0.0211680 α      in ANC's #3, #1, #4, ...

........................................................................
.............................. CYCLE   32 ..............................
........................................................................

 iter      E             dE          RMSdq      gap      omega  full diag
   1   -208.7261011 -0.208726E+03  0.231E-03    2.36       0.0  T
   2   -208.7261011 -0.125556E-08  0.136E-03    2.36       6.2  T
   3   -208.7261011  0.183573E-08  0.118E-04    2.36      71.3  T
   4   -208.7261011 -0.252402E-08  0.278E-05    2.36     302.9  T
     SCC iter.                  ...        0 min,  0.090 sec
     gradient                   ...        0 min,  0.028 sec
 * total energy  :  -204.8867240 Eh     change       -0.5332575E-06 Eh
   gradient norm :     0.0001675 Eh/α   predicted    -0.2100031E-06 ( -60.62%)
   displ. norm   :     0.0443331 α      lambda       -0.5037024E-06
   maximum displ.:     0.0258613 α      in ANC's #3, #1, #4, ...

........................................................................
.............................. CYCLE   33 ..............................
........................................................................

 iter      E             dE          RMSdq      gap      omega  full diag
   1   -208.7260681 -0.208726E+03  0.280E-03    2.36       0.0  T
   2   -208.7260681 -0.167941E-08  0.164E-03    2.36       5.1  T
   3   -208.7260681  0.244580E-08  0.135E-04    2.36      62.2  T
   4   -208.7260681 -0.342726E-08  0.322E-05    2.36     261.3  T
     SCC iter.                  ...        0 min,  0.089 sec
     gradient                   ...        0 min,  0.028 sec
 * total energy  :  -204.8867246 Eh     change       -0.6436750E-06 Eh
   gradient norm :     0.0001796 Eh/α   predicted    -0.2524551E-06 ( -60.78%)
   displ. norm   :     0.0529917 α      lambda       -0.5800264E-06
   maximum displ.:     0.0312117 α      in ANC's #3, #1, #4, ...

........................................................................
.............................. CYCLE   34 ..............................
........................................................................

 iter      E             dE          RMSdq      gap      omega  full diag
   1   -208.7260513 -0.208726E+03  0.332E-03    2.36       0.0  T
   2   -208.7260513 -0.243372E-08  0.195E-03    2.36       4.3  T
   3   -208.7260513  0.398384E-08  0.170E-04    2.36      49.5  T
   4   -208.7260513 -0.542036E-08  0.391E-05    2.36     215.2  T
     SCC iter.                  ...        0 min,  0.093 sec
     gradient                   ...        0 min,  0.028 sec
 * total energy  :  -204.8867253 Eh     change       -0.7278420E-06 Eh
   gradient norm :     0.0001424 Eh/α   predicted    -0.2905449E-06 ( -60.08%)
   displ. norm   :     0.0548132 α      lambda       -0.5512483E-06
   maximum displ.:     0.0326329 α      in ANC's #3, #1, #4, ...

........................................................................
.............................. CYCLE   35 ..............................
........................................................................

 iter      E             dE          RMSdq      gap      omega  full diag
   1   -208.7260506 -0.208726E+03  0.337E-03    2.36       0.0  T
   2   -208.7260506 -0.263287E-08  0.198E-03    2.36       4.3  T
   3   -208.7260506  0.482896E-08  0.183E-04    2.36      45.9  T
   4   -208.7260506 -0.634572E-08  0.410E-05    2.36     205.3  T
     SCC iter.                  ...        0 min,  0.094 sec
     gradient                   ...        0 min,  0.028 sec
 * total energy  :  -204.8867260 Eh     change       -0.6908773E-06 Eh
   gradient norm :     0.0000863 Eh/α   predicted    -0.2804933E-06 ( -59.40%)
   displ. norm   :     0.0548548 α      lambda       -0.5213454E-06
   maximum displ.:     0.0330379 α      in ANC's #3, #1, #4, ...

........................................................................
.............................. CYCLE   36 ..............................
........................................................................

 iter      E             dE          RMSdq      gap      omega  full diag
   1   -208.7260782 -0.208726E+03  0.340E-03    2.36       0.0  T
   2   -208.7260782 -0.273317E-08  0.199E-03    2.36       4.2  T
   3   -208.7260782  0.590390E-08  0.195E-04    2.36      43.1  T
   4   -208.7260782 -0.745456E-08  0.417E-05    2.36     202.0  T
     SCC iter.                  ...        0 min,  0.092 sec
     gradient                   ...        0 min,  0.028 sec
 * total energy  :  -204.8867267 Eh     change       -0.6789661E-06 Eh
   gradient norm :     0.0000924 Eh/α   predicted    -0.2619394E-06 ( -61.42%)
   displ. norm   :     0.0584349 α      lambda       -0.5699467E-06
   maximum displ.:     0.0354388 α      in ANC's #3, #1, #4, ...

........................................................................
.............................. CYCLE   37 ..............................
........................................................................

 iter      E             dE          RMSdq      gap      omega  full diag
   1   -208.7261253 -0.208726E+03  0.378E-03    2.36       0.0  T
   2   -208.7261253 -0.338957E-08  0.222E-03    2.36       3.8  T
   3   -208.7261253  0.752578E-08  0.219E-04    2.36      38.5  T
   4   -208.7261253 -0.939434E-08  0.461E-05    2.36     182.8  T
     SCC iter.                  ...        0 min,  0.090 sec
     gradient                   ...        0 min,  0.028 sec
 * total energy  :  -204.8867275 Eh     change       -0.7566626E-06 Eh
   gradient norm :     0.0001335 Eh/α   predicted    -0.2860920E-06 ( -62.19%)
   displ. norm   :     0.0705025 α      lambda       -0.7076318E-06
   maximum displ.:     0.0429017 α      in ANC's #3, #1, #4, ...

........................................................................
.............................. CYCLE   38 ..............................
........................................................................

 iter      E             dE          RMSdq      gap      omega  full diag
   1   -208.7261799 -0.208726E+03  0.485E-03    2.36       0.0  T
   2   -208.7261799 -0.534024E-08  0.284E-03    2.36       3.0  T
   3   -208.7261799  0.116854E-07  0.271E-04    2.36      31.1  T
   4   -208.7261799 -0.145529E-07  0.568E-05    2.36     148.2  T
     SCC iter.                  ...        0 min,  0.090 sec
     gradient                   ...        0 min,  0.028 sec
 * total energy  :  -204.8867284 Eh     change       -0.9288833E-06 Eh
   gradient norm :     0.0001586 Eh/α   predicted    -0.3550790E-06 ( -61.77%)
   displ. norm   :     0.0842576 α      lambda       -0.8052102E-06
   maximum displ.:     0.0514181 α      in ANC's #3, #1, #4, ...

........................................................................
.............................. CYCLE   39 ..............................
........................................................................

 iter      E             dE          RMSdq      gap      omega  full diag
   1   -208.7262359 -0.208726E+03  0.608E-03    2.36       0.0  T
   2   -208.7262359 -0.816917E-08  0.357E-03    2.36       2.4  T
   3   -208.7262359  0.183124E-07  0.336E-04    2.36      25.1  T
   4   -208.7262359 -0.227749E-07  0.703E-05    2.36     119.9  T
     SCC iter.                  ...        0 min,  0.089 sec
     gradient                   ...        0 min,  0.028 sec
 * total energy  :  -204.8867295 Eh     change       -0.1075907E-05 Eh
   gradient norm :     0.0001451 Eh/α   predicted    -0.4042199E-06 ( -62.43%)
   displ. norm   :     0.0863780 α      lambda       -0.7383803E-06
   maximum displ.:     0.0529996 α      in ANC's #3, #1, #4, ...

........................................................................
.............................. CYCLE   40 ..............................
........................................................................

 iter      E             dE          RMSdq      gap      omega  full diag
   1   -208.7262673 -0.208726E+03  0.645E-03    2.36       0.0  T
   2   -208.7262673 -0.859595E-08  0.378E-03    2.36       2.2  T
   3   -208.7262673  0.196879E-07  0.344E-04    2.36      24.5  T
   4   -208.7262673 -0.245466E-07  0.713E-05    2.36     118.1  T
     SCC iter.                  ...        0 min,  0.089 sec
     gradient                   ...        0 min,  0.028 sec
 * total energy  :  -204.8867304 Eh     change       -0.9131157E-06 Eh
   gradient norm :     0.0001032 Eh/α   predicted    -0.3706785E-06 ( -59.41%)
   displ. norm   :     0.0781183 α      lambda       -0.6308649E-06
   maximum displ.:     0.0482336 α      in ANC's #3, #1, #4, ...

........................................................................
.............................. CYCLE   41 ..............................
........................................................................

 iter      E             dE          RMSdq      gap      omega  full diag
   1   -208.7262833 -0.208726E+03  0.599E-03    2.36       0.0  T
   2   -208.7262833 -0.724913E-08  0.351E-03    2.36       2.4  T
   3   -208.7262833  0.176408E-07  0.322E-04    2.36      26.2  T
   4   -208.7262833 -0.219459E-07  0.655E-05    2.36     128.6  T
     SCC iter.                  ...        0 min,  0.090 sec
     gradient                   ...        0 min,  0.028 sec
 * total energy  :  -204.8867312 Eh     change       -0.8230440E-06 Eh
   gradient norm :     0.0000689 Eh/α   predicted    -0.3171465E-06 ( -61.47%)
   displ. norm   :     0.0778145 α      lambda       -0.6718443E-06
   maximum displ.:     0.0482717 α      in ANC's #3, #1, #4, ...

........................................................................
.............................. CYCLE   42 ..............................
........................................................................

 iter      E             dE          RMSdq      gap      omega  full diag
   1   -208.7262626 -0.208726E+03  0.613E-03    2.36       0.0  T
   2   -208.7262626 -0.731845E-08  0.359E-03    2.36       2.3  T
   3   -208.7262626  0.173789E-07  0.321E-04    2.36      26.2  T
   4   -208.7262626 -0.218021E-07  0.644E-05    2.36     130.9  T
     SCC iter.                  ...        0 min,  0.088 sec
     gradient                   ...        0 min,  0.028 sec
 * total energy  :  -204.8867321 Eh     change       -0.9118258E-06 Eh
   gradient norm :     0.0000871 Eh/α   predicted    -0.3379390E-06 ( -62.94%)
   displ. norm   :     0.0949185 α      lambda       -0.8853100E-06
   maximum displ.:     0.0589496 α      in ANC's #3, #1, #4, ...
 * RMSD in coord.:     0.0692119 α      energy gain  -0.1565864E-04 Eh

generating ANC from exact Hessian ...
Using Lindh-Hessian (1995)
 Shifting diagonal of input Hessian by   9.991167165802345E-003
 Lowest  eigenvalues of input Hessian
    0.000000    0.000000    0.000000    0.000000    0.000000    0.010000
    0.000000    0.010003    0.010025    0.010047    0.010119    0.010123
    0.010201    0.010307    0.010381    0.010398    0.010409    0.010536
 Highest eigenvalues
    2.141881    2.143048    2.190985    2.198331    2.230379    2.245578
 

........................................................................
.............................. CYCLE   43 ..............................
........................................................................

 iter      E             dE          RMSdq      gap      omega  full diag
   1   -208.7262001 -0.208726E+03  0.761E-03    2.36       0.0  T
   2   -208.7262002 -0.115477E-07  0.446E-03    2.36       1.9  T
   3   -208.7262001  0.269104E-07  0.403E-04    2.36      20.9  T
   4   -208.7262002 -0.339146E-07  0.805E-05    2.36     104.6  T
     SCC iter.                  ...        0 min,  0.093 sec
     gradient                   ...        0 min,  0.028 sec
 * total energy  :  -204.8867333 Eh     change       -0.1190663E-05 Eh
   gradient norm :     0.0001334 Eh/α   predicted     0.0000000E+00 (-100.00%)
   displ. norm   :     0.0054867 α      lambda       -0.1120260E-07
   maximum displ.:     0.0024197 α      in ANC's #31, #8, #1, ...

........................................................................
.............................. CYCLE   44 ..............................
........................................................................

 iter      E             dE          RMSdq      gap      omega  full diag
   1   -208.7262022 -0.208726E+03  0.669E-04    2.36       0.0  T
   2   -208.7262022 -0.201481E-09  0.393E-04    2.36      21.4  T
   3   -208.7262022  0.173526E-08  0.932E-05    2.36      90.4  T
     SCC iter.                  ...        0 min,  0.068 sec
     gradient                   ...        0 min,  0.028 sec
 * total energy  :  -204.8867336 Eh     change       -0.2554682E-06 Eh
   gradient norm :     0.0001384 Eh/α   predicted    -0.1009862E-06 ( -60.47%)
   displ. norm   :     0.0334695 α      lambda       -0.9568396E-06
   maximum displ.:     0.0129819 α      in ANC's #31, #8, #1, ...

........................................................................
.............................. CYCLE   45 ..............................
........................................................................

 iter      E             dE          RMSdq      gap      omega  full diag
   1   -208.7261466 -0.208726E+03  0.396E-03    2.36       0.0  T
   2   -208.7261466 -0.577606E-08  0.233E-03    2.36       3.6  T
   3   -208.7261466  0.105777E-07  0.280E-04    2.36      30.0  T
   4   -208.7261466 -0.133473E-07  0.551E-05    2.36     152.8  T
     SCC iter.                  ...        0 min,  0.090 sec
     gradient                   ...        0 min,  0.028 sec
 * total energy  :  -204.8867344 Eh     change       -0.8463255E-06 Eh
   gradient norm :     0.0001132 Eh/α   predicted    -0.4813598E-06 ( -43.12%)
   displ. norm   :     0.0149685 α      lambda       -0.2113250E-06
   maximum displ.:     0.0060228 α      in ANC's #1, #8, #9, ...

........................................................................
.............................. CYCLE   46 ..............................
........................................................................

 iter      E             dE          RMSdq      gap      omega  full diag
   1   -208.7261176 -0.208726E+03  0.172E-03    2.36       0.0  T
   2   -208.7261176 -0.875218E-09  0.101E-03    2.36       8.3  T
   3   -208.7261175  0.217938E-08  0.118E-04    2.36      71.2  T
   4   -208.7261176 -0.263429E-08  0.215E-05    2.36     392.4  T
     SCC iter.                  ...        0 min,  0.089 sec
     gradient                   ...        0 min,  0.028 sec
 * total energy  :  -204.8867347 Eh     change       -0.2744824E-06 Eh
   gradient norm :     0.0000823 Eh/α   predicted    -0.1192943E-06 ( -56.54%)
   displ. norm   :     0.0230549 α      lambda       -0.3475938E-06
   maximum displ.:     0.0097441 α      in ANC's #1, #8, #3, ...

........................................................................
.............................. CYCLE   47 ..............................
........................................................................

 iter      E             dE          RMSdq      gap      omega  full diag
   1   -208.7261014 -0.208726E+03  0.255E-03    2.36       0.0  T
   2   -208.7261014 -0.176937E-08  0.150E-03    2.36       5.6  T
   3   -208.7261014  0.311769E-08  0.149E-04    2.36      56.7  T
   4   -208.7261014 -0.398501E-08  0.310E-05    2.36     271.4  T
     SCC iter.                  ...        0 min,  0.091 sec
     gradient                   ...        0 min,  0.028 sec
 * total energy  :  -204.8867351 Eh     change       -0.4286817E-06 Eh
   gradient norm :     0.0001178 Eh/α   predicted    -0.1761581E-06 ( -58.91%)
   displ. norm   :     0.0347353 α      lambda       -0.4891962E-06
   maximum displ.:     0.0152526 α      in ANC's #1, #8, #3, ...

........................................................................
.............................. CYCLE   48 ..............................
........................................................................

 iter      E             dE          RMSdq      gap      omega  full diag
   1   -208.7260699 -0.208726E+03  0.381E-03    2.36       0.0  T
   2   -208.7260699 -0.348206E-08  0.224E-03    2.36       3.8  T
   3   -208.7260699  0.515931E-08  0.200E-04    2.36      42.2  T
   4   -208.7260699 -0.695260E-08  0.430E-05    2.36     196.0  T
     SCC iter.                  ...        0 min,  0.088 sec
     gradient                   ...        0 min,  0.028 sec
 * total energy  :  -204.8867357 Eh     change       -0.5533321E-06 Eh
   gradient norm :     0.0001581 Eh/α   predicted    -0.2466846E-06 ( -55.42%)
   displ. norm   :     0.0383833 α      lambda       -0.4284938E-06
   maximum displ.:     0.0174199 α      in ANC's #1, #8, #3, ...

........................................................................
.............................. CYCLE   49 ..............................
........................................................................

 iter      E             dE          RMSdq      gap      omega  full diag
   1   -208.7260620 -0.208726E+03  0.415E-03    2.36       0.0  T
   2   -208.7260620 -0.393754E-08  0.243E-03    2.36       3.5  T
   3   -208.7260620  0.699021E-08  0.224E-04    2.36      37.5  T
   4   -208.7260620 -0.918033E-08  0.454E-05    2.36     185.5  T
     SCC iter.                  ...        0 min,  0.092 sec
     gradient                   ...        0 min,  0.028 sec
 * total energy  :  -204.8867362 Eh     change       -0.5014966E-06 Eh
   gradient norm :     0.0001391 Eh/α   predicted    -0.2146296E-06 ( -57.20%)
   displ. norm   :     0.0439133 α      lambda       -0.4560406E-06
   maximum displ.:     0.0204152 α      in ANC's #1, #8, #3, ...

........................................................................
.............................. CYCLE   50 ..............................
........................................................................

 iter      E             dE          RMSdq      gap      omega  full diag
   1   -208.7260654 -0.208726E+03  0.467E-03    2.36       0.0  T
   2   -208.7260654 -0.503096E-08  0.274E-03    2.36       3.1  T
   3   -208.7260654  0.105773E-07  0.267E-04    2.36      31.6  T
   4   -208.7260654 -0.134723E-07  0.504E-05    2.36     167.1  T
     SCC iter.                  ...        0 min,  0.090 sec
     gradient                   ...        0 min,  0.028 sec
 * total energy  :  -204.8867367 Eh     change       -0.5558956E-06 Eh
   gradient norm :     0.0000950 Eh/α   predicted    -0.2320382E-06 ( -58.26%)
   displ. norm   :     0.0508943 α      lambda       -0.5113779E-06
   maximum displ.:     0.0242587 α      in ANC's #1, #3, #8, ...

........................................................................
.............................. CYCLE   51 ..............................
........................................................................

 iter      E             dE          RMSdq      gap      omega  full diag
   1   -208.7260751 -0.208726E+03  0.521E-03    2.36       0.0  T
   2   -208.7260751 -0.670479E-08  0.306E-03    2.36       2.8  T
   3   -208.7260751  0.157650E-07  0.318E-04    2.36      26.5  T
   4   -208.7260751 -0.196681E-07  0.584E-05    2.36     144.2  T
     SCC iter.                  ...        0 min,  0.091 sec
     gradient                   ...        0 min,  0.028 sec
 * total energy  :  -204.8867373 Eh     change       -0.5901004E-06 Eh
   gradient norm :     0.0001013 Eh/α   predicted    -0.2592325E-06 ( -56.07%)
   displ. norm   :     0.0408415 α      lambda       -0.3787476E-06
   maximum displ.:     0.0201314 α      in ANC's #1, #3, #8, ...

........................................................................
.............................. CYCLE   52 ..............................
........................................................................

 iter      E             dE          RMSdq      gap      omega  full diag
   1   -208.7260990 -0.208726E+03  0.388E-03    2.36       0.0  T
   2   -208.7260990 -0.406834E-08  0.228E-03    2.36       3.7  T
   3   -208.7260990  0.109073E-07  0.260E-04    2.36      32.3  T
   4   -208.7260990 -0.133139E-07  0.453E-05    2.36     186.1  T
     SCC iter.                  ...        0 min,  0.093 sec
     gradient                   ...        0 min,  0.029 sec
 * total energy  :  -204.8867377 Eh     change       -0.4294039E-06 Eh
   gradient norm :     0.0001177 Eh/α   predicted    -0.1916483E-06 ( -55.37%)
   displ. norm   :     0.0341390 α      lambda       -0.3053542E-06
   maximum displ.:     0.0175691 α      in ANC's #1, #3, #8, ...

........................................................................
.............................. CYCLE   53 ..............................
........................................................................

 iter      E             dE          RMSdq      gap      omega  full diag
   1   -208.7261100 -0.208726E+03  0.293E-03    2.36       0.0  T
   2   -208.7261100 -0.268989E-08  0.172E-03    2.36       4.9  T
   3   -208.7261100  0.730449E-08  0.214E-04    2.36      39.4  T
   4   -208.7261100 -0.886354E-08  0.384E-05    2.36     219.3  T
     SCC iter.                  ...        0 min,  0.090 sec
     gradient                   ...        0 min,  0.028 sec
 * total energy  :  -204.8867381 Eh     change       -0.3479377E-06 Eh
   gradient norm :     0.0000987 Eh/α   predicted    -0.1556641E-06 ( -55.26%)
   displ. norm   :     0.0302831 α      lambda       -0.2904031E-06
   maximum displ.:     0.0161259 α      in ANC's #1, #3, #8, ...

........................................................................
.............................. CYCLE   54 ..............................
........................................................................

 iter      E             dE          RMSdq      gap      omega  full diag
   1   -208.7261223 -0.208726E+03  0.246E-03    2.36       0.0  T
   2   -208.7261223 -0.201675E-08  0.145E-03    2.36       5.8  T
   3   -208.7261223  0.519771E-08  0.183E-04    2.36      46.1  T
   4   -208.7261223 -0.632522E-08  0.337E-05    2.36     250.0  T
     SCC iter.                  ...        0 min,  0.090 sec
     gradient                   ...        0 min,  0.028 sec
 * total energy  :  -204.8867385 Eh     change       -0.3627595E-06 Eh
   gradient norm :     0.0000658 Eh/α   predicted    -0.1497911E-06 ( -58.71%)
   displ. norm   :     0.0293888 α      lambda       -0.2772922E-06
   maximum displ.:     0.0161553 α      in ANC's #1, #3, #4, ...

........................................................................
.............................. CYCLE   55 ..............................
........................................................................

 iter      E             dE          RMSdq      gap      omega  full diag
   1   -208.7261271 -0.208726E+03  0.245E-03    2.36       0.0  T
   2   -208.7261271 -0.182092E-08  0.144E-03    2.36       5.9  T
   3   -208.7261271  0.375482E-08  0.163E-04    2.36      51.7  T
   4   -208.7261271 -0.474961E-08  0.328E-05    2.36     256.5  T
     SCC iter.                  ...        0 min,  0.090 sec
     gradient                   ...        0 min,  0.028 sec
 * total energy  :  -204.8867388 Eh     change       -0.3293721E-06 Eh
   gradient norm :     0.0000615 Eh/α   predicted    -0.1419185E-06 ( -56.91%)
   displ. norm   :     0.0207146 α      lambda       -0.1828059E-06
   maximum displ.:     0.0118365 α      in ANC's #1, #3, #4, ...

........................................................................
.............................. CYCLE   56 ..............................
........................................................................

 iter      E             dE          RMSdq      gap      omega  full diag
   1   -208.7261310 -0.208726E+03  0.180E-03    2.36       0.0  T
   2   -208.7261310 -0.805613E-09  0.105E-03    2.36       8.0  T
   3   -208.7261310  0.165031E-08  0.108E-04    2.36      78.2  T
   4   -208.7261310 -0.211813E-08  0.221E-05    2.36     381.4  T
     SCC iter.                  ...        0 min,  0.088 sec
     gradient                   ...        0 min,  0.028 sec
 * total energy  :  -204.8867390 Eh     change       -0.2117093E-06 Eh
   gradient norm :     0.0000702 Eh/α   predicted    -0.9376889E-07 ( -55.71%)
   displ. norm   :     0.0178244 α      lambda       -0.1688512E-06
   maximum displ.:     0.0103655 α      in ANC's #1, #3, #4, ...

........................................................................
.............................. CYCLE   57 ..............................
........................................................................

 iter      E             dE          RMSdq      gap      omega  full diag
   1   -208.7261416 -0.208726E+03  0.163E-03    2.36       0.0  T
   2   -208.7261416 -0.567979E-09  0.957E-04    2.36       8.8  T
   3   -208.7261416  0.665040E-09  0.758E-05    2.36     111.1  T
     SCC iter.                  ...        0 min,  0.067 sec
     gradient                   ...        0 min,  0.028 sec
 * total energy  :  -204.8867392 Eh     change       -0.2157144E-06 Eh
   gradient norm :     0.0000669 Eh/α   predicted    -0.8681648E-07 ( -59.75%)
   displ. norm   :     0.0226826 α      lambda       -0.2294644E-06
   maximum displ.:     0.0132771 α      in ANC's #1, #3, #4, ...

........................................................................
.............................. CYCLE   58 ..............................
........................................................................

 iter      E             dE          RMSdq      gap      omega  full diag
   1   -208.7261479 -0.208726E+03  0.212E-03    2.36       0.0  T
   2   -208.7261479 -0.934961E-09  0.125E-03    2.36       6.8  T
   3   -208.7261479  0.456765E-09  0.791E-05    2.36     106.5  T
   4   -208.7261479 -0.897984E-09  0.224E-05    2.36     376.5  T
     SCC iter.                  ...        0 min,  0.092 sec
     gradient                   ...        0 min,  0.028 sec
 * total energy  :  -204.8867395 Eh     change       -0.2959527E-06 Eh
   gradient norm :     0.0000567 Eh/α   predicted    -0.1161671E-06 ( -60.75%)
   displ. norm   :     0.0277471 α      lambda       -0.2741180E-06
   maximum displ.:     0.0161692 α      in ANC's #1, #3, #4, ...

........................................................................
.............................. CYCLE   59 ..............................
........................................................................

 iter      E             dE          RMSdq      gap      omega  full diag
   1   -208.7261549 -0.208726E+03  0.255E-03    2.36       0.0  T
   2   -208.7261549 -0.139448E-08  0.149E-03    2.36       5.6  T
   3   -208.7261549  0.889656E-09  0.978E-05    2.36      86.1  T
   4   -208.7261549 -0.153582E-08  0.280E-05    2.36     300.9  T
     SCC iter.                  ...        0 min,  0.089 sec
     gradient                   ...        0 min,  0.028 sec
 * total energy  :  -204.8867399 Eh     change       -0.3513601E-06 Eh
   gradient norm :     0.0000603 Eh/α   predicted    -0.1385727E-06 ( -60.56%)
   displ. norm   :     0.0304319 α      lambda       -0.2894117E-06
   maximum displ.:     0.0179647 α      in ANC's #1, #3, #4, ...

........................................................................
.............................. CYCLE   60 ..............................
........................................................................

 iter      E             dE          RMSdq      gap      omega  full diag
   1   -208.7261615 -0.208726E+03  0.269E-03    2.36       0.0  T
   2   -208.7261615 -0.168325E-08  0.158E-03    2.36       5.3  T
   3   -208.7261615  0.147543E-08  0.112E-04    2.36      74.9  T
   4   -208.7261615 -0.225558E-08  0.310E-05    2.36     271.3  T
     SCC iter.                  ...        0 min,  0.090 sec
     gradient                   ...        0 min,  0.028 sec
 * total energy  :  -204.8867402 Eh     change       -0.3614146E-06 Eh
   gradient norm :     0.0000668 Eh/α   predicted    -0.1478108E-06 ( -59.10%)
   displ. norm   :     0.0304229 α      lambda       -0.2688423E-06
   maximum displ.:     0.0183167 α      in ANC's #1, #3, #4, ...

........................................................................
.............................. CYCLE   61 ..............................
........................................................................

 iter      E             dE          RMSdq      gap      omega  full diag
   1   -208.7261605 -0.208726E+03  0.256E-03    2.36       0.0  T
   2   -208.7261605 -0.166310E-08  0.150E-03    2.36       5.6  T
   3   -208.7261605  0.198290E-08  0.119E-04    2.36      70.6  T
   4   -208.7261605 -0.276773E-08  0.309E-05    2.36     272.2  T
     SCC iter.                  ...        0 min,  0.089 sec
     gradient                   ...        0 min,  0.028 sec
 * total energy  :  -204.8867406 Eh     change       -0.3493473E-06 Eh
   gradient norm :     0.0000635 Eh/α   predicted    -0.1393504E-06 ( -60.11%)
   displ. norm   :     0.0320687 α      lambda       -0.2938093E-06
   maximum displ.:     0.0195936 α      in ANC's #1, #3, #4, ...

........................................................................
.............................. CYCLE   62 ..............................
........................................................................

 iter      E             dE          RMSdq      gap      omega  full diag
   1   -208.7261564 -0.208726E+03  0.262E-03    2.36       0.0  T
   2   -208.7261564 -0.187336E-08  0.153E-03    2.36       5.5  T
   3   -208.7261564  0.137115E-08  0.110E-04    2.36      76.2  T
   4   -208.7261564 -0.219379E-08  0.320E-05    2.36     263.4  T
     SCC iter.                  ...        0 min,  0.090 sec
     gradient                   ...        0 min,  0.028 sec
 * total energy  :  -204.8867410 Eh     change       -0.3877108E-06 Eh
   gradient norm :     0.0000555 Eh/α   predicted    -0.1473230E-06 ( -62.00%)
   displ. norm   :     0.0414145 α      lambda       -0.3987737E-06
   maximum displ.:     0.0254226 α      in ANC's #1, #3, #2, ...

........................................................................
.............................. CYCLE   63 ..............................
........................................................................

 iter      E             dE          RMSdq      gap      omega  full diag
   1   -208.7261434 -0.208726E+03  0.330E-03    2.36       0.0  T
   2   -208.7261434 -0.307745E-08  0.193E-03    2.36       4.4  T
   3   -208.7261434  0.248230E-08  0.145E-04    2.36      58.0  T
   4   -208.7261434 -0.386561E-08  0.409E-05    2.36     206.1  T
     SCC iter.                  ...        0 min,  0.091 sec
     gradient                   ...        0 min,  0.028 sec
 * total energy  :  -204.8867415 Eh     change       -0.5343346E-06 Eh
   gradient norm :     0.0000673 Eh/α   predicted    -0.2002667E-06 ( -62.52%)
   displ. norm   :     0.0626635 α      lambda       -0.6219767E-06
   maximum displ.:     0.0384692 α      in ANC's #1, #3, #2, ...

........................................................................
.............................. CYCLE   64 ..............................
........................................................................

 iter      E             dE          RMSdq      gap      omega  full diag
   1   -208.7261158 -0.208726E+03  0.494E-03    2.36       0.0  T
   2   -208.7261158 -0.685341E-08  0.289E-03    2.36       2.9  T
   3   -208.7261158  0.499020E-08  0.211E-04    2.36      40.0  T
   4   -208.7261158 -0.810317E-08  0.617E-05    2.36     136.5  T
     SCC iter.                  ...        0 min,  0.091 sec
     gradient                   ...        0 min,  0.028 sec
 * total energy  :  -204.8867423 Eh     change       -0.8306043E-06 Eh
   gradient norm :     0.0000972 Eh/α   predicted    -0.3142143E-06 ( -62.17%)
   displ. norm   :     0.0995174 α      lambda       -0.9400292E-06
   maximum displ.:     0.0612390 α      in ANC's #1, #3, #2, ...

........................................................................
.............................. CYCLE   65 ..............................
........................................................................

 iter      E             dE          RMSdq      gap      omega  full diag
   1   -208.7260683 -0.208726E+03  0.773E-03    2.36       0.0  T
   2   -208.7260683 -0.162211E-07  0.453E-03    2.36       1.9  T
   3   -208.7260683  0.971406E-08  0.309E-04    2.36      27.3  T
   4   -208.7260683 -0.171446E-07  0.950E-05    2.36      88.7  T
     SCC iter.                  ...        0 min,  0.089 sec
     gradient                   ...        0 min,  0.028 sec
 * total energy  :  -204.8867435 Eh     change       -0.1210752E-05 Eh
   gradient norm :     0.0001245 Eh/α   predicted    -0.4727778E-06 ( -60.95%)
   displ. norm   :     0.1232104 α      lambda       -0.1013821E-05
   maximum displ.:     0.0762401 α      in ANC's #1, #3, #2, ...

........................................................................
.............................. CYCLE   66 ..............................
........................................................................

 iter      E             dE          RMSdq      gap      omega  full diag
   1   -208.7260348 -0.208726E+03  0.940E-03    2.36       0.0  T
   2   -208.7260348 -0.234277E-07  0.551E-03    2.36       1.5  T
   3   -208.7260348  0.187038E-07  0.396E-04    2.36      21.3  T
   4   -208.7260349 -0.300489E-07  0.116E-04    2.36      72.8  T
     SCC iter.                  ...        0 min,  0.089 sec
     gradient                   ...        0 min,  0.028 sec
 * total energy  :  -204.8867448 Eh     change       -0.1276087E-05 Eh
   gradient norm :     0.0001242 Eh/α   predicted    -0.5135260E-06 ( -59.76%)
   displ. norm   :     0.1225274 α      lambda       -0.8550001E-06
   maximum displ.:     0.0765396 α      in ANC's #1, #3, #2, ...
 * RMSD in coord.:     0.0587449 α      energy gain  -0.1269091E-04 Eh

generating ANC from exact Hessian ...
Using Lindh-Hessian (1995)
 Shifting diagonal of input Hessian by   9.991180997878780E-003
 Lowest  eigenvalues of input Hessian
    0.000000    0.000000    0.000000    0.000000    0.000000    0.010000
    0.000000    0.010003    0.010025    0.010048    0.010119    0.010123
    0.010201    0.010306    0.010381    0.010399    0.010409    0.010536
 Highest eigenvalues
    2.141801    2.142902    2.190901    2.198248    2.230317    2.245439
 

........................................................................
.............................. CYCLE   67 ..............................
........................................................................

 iter      E             dE          RMSdq      gap      omega  full diag
   1   -208.7260389 -0.208726E+03  0.913E-03    2.36       0.0  T
   2   -208.7260390 -0.213092E-07  0.535E-03    2.36       1.6  T
   3   -208.7260389  0.180439E-07  0.385E-04    2.36      21.9  T
   4   -208.7260390 -0.287596E-07  0.110E-04    2.36      76.5  T
     SCC iter.                  ...        0 min,  0.090 sec
     gradient                   ...        0 min,  0.028 sec
 * total energy  :  -204.8867459 Eh     change       -0.1092613E-05 Eh
   gradient norm :     0.0000951 Eh/α   predicted     0.0000000E+00 (-100.00%)
   displ. norm   :     0.0001427 α      lambda        0.0000000E+00
   maximum displ.:     0.0000497 α      in ANC's #387, #391, #386, ...

........................................................................
[...]
 273:  3.24 274:  3.82 275:  3.80 276:  3.56 277:  6.77 278:  7.41 279:  8.73 280: 10.78
 281: 11.04 282: 11.01 283: 10.53 284: 11.76 285: 11.24 286: 11.77 287: 11.70 288: 11.81
 289: 11.68 290: 10.91 291: 11.07 292: 10.94 293: 11.55 294: 10.92 295: 11.08 296: 11.06
 297: 10.75 298: 10.55 299: 10.21 300:  6.04 301:  8.79 302:  3.35 303:  3.05 304:  3.05
 305:  9.16 306:  9.28 307:  9.91 308:  9.75 309:  2.96 310:  2.96 311:  8.84 312:  9.59
 313:  9.25 314:  9.04 315:  9.66 316: 10.16 317:  9.22 318: 10.00 319:  9.41 320:  9.98
 321:  9.99 322: 10.11 323: 10.68 324:  1.62 325:  1.62 326:  1.58 327:  1.58 328:  4.75
 329:  5.54 330:  4.15 331:  1.69 332:  1.78 333: 10.70 334: 10.92 335:  1.59 336:  1.58
 337: 11.11 338:  1.64 339:  1.76 340: 11.84 341: 11.71 342: 11.61 343: 11.65 344: 11.72
 345: 11.65 346: 11.76 347: 11.66 348: 11.54 349: 11.62 350: 11.49 351: 11.53 352: 11.54
 353: 11.49 354: 11.48 355: 11.42 356: 11.51 357: 11.48 358: 11.49 359: 11.54 360: 11.54
 361: 11.73 362: 11.71 363:  1.91 364:  1.91 365:  1.89 366:  1.89 367:  1.87 368:  1.87
 369:  1.89 370:  1.90 371:  1.67 372:  1.66 373:  1.86 374:  1.87 375:  1.28 376:  1.28
 377:  1.49 378:  1.49 379:  1.55 380:  1.55 381:  1.74 382:  1.78 383:  1.76 384:  1.79
 385:  1.77 386:  1.77 387:  1.81 388:  1.77 389:  1.81 390:  1.78 391:  1.78 392:  1.78
 393:  1.83 394:  1.82 395:  1.80 396:  1.83 397:  1.79 398:  1.77 399:  1.83 400:  1.85
 401:  1.80 402:  1.87 403:  1.85 404:  1.87 405:  1.80 406:  1.87 407:  1.91 408:  1.83
 409:  1.86 410:  1.87 411:  1.92 412:  1.87 413:  1.88 414:  1.87 415:  1.89 416:  1.86
 417:  1.86 418:  1.85 419:  1.90 420:  1.82 421:  1.84 422:  1.82 423:  1.82
 IR intensities (km·mol⁻¹)
   1:  0.00   2:  0.00   3:  0.00   4:  0.01   5:  0.03   6:  0.01   7:  0.04   8:  0.06
   9:  0.02  10:  0.06  11:  0.05  12:  0.01  13:  0.00  14:  0.09  15:  0.14  16:  0.06
  17:  0.00  18:  0.06  19:  0.19  20:  0.05  21:  0.03  22:  0.17  23:  0.01  24:  0.13
  25:  0.11  26:  0.10  27:  0.40  28:  0.17  29:  0.20  30:  0.25  31:  0.26  32:  0.60
  33:  0.34  34:  0.14  35:  1.17  36:  0.20  37:  0.07  38:  0.06  39:  0.13  40:  0.06
  41:  0.18  42:  0.37  43:  1.58  44:  0.24  45:  0.16  46:  0.37  47:  0.14  48:  0.25
  49:  0.38  50:  0.14  51:  0.39  52:  0.30  53:  0.25  54:  0.05  55:  0.06  56:  0.52
  57:  0.02  58:  0.07  59:  0.03  60:  1.61  61:  0.28  62:  0.59  63:  0.10  64:  0.11
  65:  0.10  66:  0.32  67:  0.00  68:  0.37  69:  0.08  70:  0.08  71:  0.15  72:  0.24
  73:  0.31  74:  1.09  75:  1.51  76:  0.51  77:  0.41  78:  0.73  79:  0.07  80:  1.31
  81:  0.35  82:  0.14  83:  0.99  84:  8.63  85:  0.64  86:  1.45  87:  1.00  88:  1.15
  89:  2.56  90:  0.19  91:  0.14  92:  0.48  93:  0.08  94:  0.09  95:  0.02  96:  1.85
  97:  0.61  98:  3.03  99:  0.81 100:  1.15 101:  1.15 102:  1.31 103:  0.37 104:  1.26
 105:  1.79 106:  0.67 107:  0.19 108:  2.13 109:  0.34 110:  0.10 111:  4.16 112:  4.37
 113:  0.77 114:  1.02 115:  0.24 116:  1.92 117:  0.78 118:  0.88 119:  0.34 120:  0.08
 121:  0.43 122:  0.13 123:  0.37 124:  0.01 125:  0.81 126:  5.46 127:  4.29 128:  0.06
 129:  0.32 130:  0.23 131:  4.94 132:  5.06 133:  5.08 134:  2.16 135:  1.80 136:  2.96
 137: 14.16 138:  1.46 139:  3.39 140:  0.53 141:  2.70 142:  2.86 143:  3.68 144:  5.32
 145:  0.21 146:  1.57 147:  4.33 148:  2.83 149:  2.08 150:  1.94 151: 41.73 152: 13.37
 153: 31.81 154: 12.08 155:  4.23 156:  1.05 157:  6.06 158: 28.04 159: 33.60 160: 16.12
 161:  0.96 162:  0.07 163:  1.26 164:  0.57 165:  0.97 166:  1.64 167:  0.73 168:  4.68
 169:  1.56 170:  9.40 171:  1.84 172:  0.25 173:  0.49 174:  1.65 175:  0.39 176:  2.02
 177:  7.31 178:  0.38 179:  0.20 180:  0.37 181:  0.24 182:  0.02 183:  0.00 184:  0.21
 185:  0.11 186:  0.17 187:  1.55 188:  0.30 189:  0.42 190:  0.31 191:  0.05 192:  0.14
 193:  4.36 194:  0.14 195:  0.36 196:  0.44 197:  0.15 198:  0.08 199:  0.10 200:  1.31
 201:  0.08 202: 18.87 203:  3.27 204:  0.02 205:  2.62 206:  6.74 207:  0.01 208:  0.07
 209:  0.02 210:  6.37 211:  0.44 212: 13.06 213:  1.04 214:  1.34 215:  0.20 216:  0.50
 217:  2.88 218:  0.05 219:  0.05 220:  0.02 221:  0.52 222: 19.07 223:  2.14 224:  0.10
 225:  0.26 226:  0.84 227:  0.60 228:  0.50 229:  0.25 230:  1.13 231:  0.67 232:  1.16
 233: 15.04 234:  0.47 235:  0.34 236: 35.77 237:  2.64 238:  1.41 239:  0.86 240:  6.28
 241:  1.24 242:  0.61 243:  7.59 244:  0.60 245:  0.17 246:  0.00 247:  0.13 248:  0.13
 249:  0.48 250: 14.27 251:  0.26 252:  0.61 253:  1.82 254:  0.67 255:  1.66 256:  2.78
 257:  1.73 258:  0.04 259: 26.51 260:  1.37 261:  5.16 262:  6.25 263:  0.19 264:  1.78
 265: 10.36 266:  8.61 267:  3.71 268:  1.56 269:  5.02 270:  4.61 271:  0.63 272:  1.19
 273:  0.29 274:  0.28 275:  0.71 276:  0.17 277:  4.33 278:  2.23 279:  0.30 280:  8.28
 281: 19.62 282:  8.47 283:119.73 284:  0.20 285: 18.74 286:  1.04 287:  0.50 288:  1.49
 289:  1.24 290: 19.97 291:  2.91 292:  9.34 293: 48.29 294: 15.01 295:  0.17 296: 78.89
 297:193.44 298: 45.41 299: 10.21 300:  3.05 301:  2.46 302: 16.63 303:  0.58 304:  5.49
 305:  4.07 306:  1.70 307:  0.36 308: 13.07 309:  2.97 310:  1.44 311:  0.49 312: 23.26
 313:  3.86 314:  0.44 315: 14.99 316:290.08 317:106.13 318: 31.75 319: 45.44 320: 87.53
 321:117.51 322:105.30 323: 33.69 324:  0.00 325:  0.06 326:  0.00 327:  0.23 328: 11.00
 329: 36.79 330: 32.54 331:  1.19 332:  0.26 333: 94.80 334: 23.31 335:  0.03 336:  4.27
 337: 22.36 338:  6.26 339:  3.91 340:  1.21 341:  7.87 342:  0.88 343:  2.62 344: 16.72
 345:  0.10 346:  5.30 347:  1.47 348:  0.74 349: 45.23 350:  0.50 351:  1.65 352:  0.21
 353: 57.71 354: 12.17 355:  2.22 356:  2.85 357: 10.52 358:  1.79 359: 14.05 360: 22.49
 361: 13.66 362: 30.66 363:  1.98 364:  0.39 365:  0.58 366:  4.20 367:  1.63 368:  3.21
 369:271.23 370:163.46 371:  1.54 372: 10.07 373:  3.94 374:155.20 375:  0.98 376:105.45
 377:  9.47 378:  9.66 379: 37.02 380: 33.72 381:  2.74 382: 32.89 383: 10.98 384:  4.23
 385: 15.39 386:  0.06 387:  9.79 388: 13.60 389: 28.48 390: 36.07 391:  7.94 392: 28.17
 393: 75.60 394: 32.44 395: 17.30 396: 23.95 397: 19.75 398:  4.85 399:101.31 400: 46.82
 401: 22.09 402: 60.97 403: 68.50 404: 78.31 405: 13.25 406: 26.59 407: 48.15 408: 13.27
 409: 80.58 410: 34.88 411: 42.19 412: 92.77 413:  4.46 414: 15.90 415: 64.19 416: 20.79
 417: 12.12 418: 18.29 419: 37.61 420: 80.82 421: 22.28 422:  1.22 423: 38.70
 Raman intensities (Ä⁴*amu⁻¹)
   1:  0.00   2:  0.00   3:  0.00   4:  0.00   5:  0.00   6:  0.00   7:  0.00   8:  0.00
   9:  0.00  10:  0.00  11:  0.00  12:  0.00  13:  0.00  14:  0.00  15:  0.00  16:  0.00
  17:  0.00  18:  0.00  19:  0.00  20:  0.00  21:  0.00  22:  0.00  23:  0.00  24:  0.00
  25:  0.00  26:  0.00  27:  0.00  28:  0.00  29:  0.00  30:  0.00  31:  0.00  32:  0.00
  33:  0.00  34:  0.00  35:  0.00  36:  0.00  37:  0.00  38:  0.00  39:  0.00  40:  0.00
  41:  0.00  42:  0.00  43:  0.00  44:  0.00  45:  0.00  46:  0.00  47:  0.00  48:  0.00
  49:  0.00  50:  0.00  51:  0.00  52:  0.00  53:  0.00  54:  0.00  55:  0.00  56:  0.00
  57:  0.00  58:  0.00  59:  0.00  60:  0.00  61:  0.00  62:  0.00  63:  0.00  64:  0.00
  65:  0.00  66:  0.00  67:  0.00  68:  0.00  69:  0.00  70:  0.00  71:  0.00  72:  0.00
  73:  0.00  74:  0.00  75:  0.00  76:  0.00  77:  0.00  78:  0.00  79:  0.00  80:  0.00
  81:  0.00  82:  0.00  83:  0.00  84:  0.00  85:  0.00  86:  0.00  87:  0.00  88:  0.00
  89:  0.00  90:  0.00  91:  0.00  92:  0.00  93:  0.00  94:  0.00  95:  0.00  96:  0.00
  97:  0.00  98:  0.00  99:  0.00 100:  0.00 101:  0.00 102:  0.00 103:  0.00 104:  0.00
 105:  0.00 106:  0.00 107:  0.00 108:  0.00 109:  0.00 110:  0.00 111:  0.00 112:  0.00
 113:  0.00 114:  0.00 115:  0.00 116:  0.00 117:  0.00 118:  0.00 119:  0.00 120:  0.00
 121:  0.00 122:  0.00 123:  0.00 124:  0.00 125:  0.00 126:  0.00 127:  0.00 128:  0.00
 129:  0.00 130:  0.00 131:  0.00 132:  0.00 133:  0.00 134:  0.00 135:  0.00 136:  0.00
 137:  0.00 138:  0.00 139:  0.00 140:  0.00 141:  0.00 142:  0.00 143:  0.00 144:  0.00
 145:  0.00 146:  0.00 147:  0.00 148:  0.00 149:  0.00 150:  0.00 151:  0.00 152:  0.00
 153:  0.00 154:  0.00 155:  0.00 156:  0.00 157:  0.00 158:  0.00 159:  0.00 160:  0.00
 161:  0.00 162:  0.00 163:  0.00 164:  0.00 165:  0.00 166:  0.00 167:  0.00 168:  0.00
 169:  0.00 170:  0.00 171:  0.00 172:  0.00 173:  0.00 174:  0.00 175:  0.00 176:  0.00
 177:  0.00 178:  0.00 179:  0.00 180:  0.00 181:  0.00 182:  0.00 183:  0.00 184:  0.00
 185:  0.00 186:  0.00 187:  0.00 188:  0.00 189:  0.00 190:  0.00 191:  0.00 192:  0.00
 193:  0.00 194:  0.00 195:  0.00 196:  0.00 197:  0.00 198:  0.00 199:  0.00 200:  0.00
 201:  0.00 202:  0.00 203:  0.00 204:  0.00 205:  0.00 206:  0.00 207:  0.00 208:  0.00
 209:  0.00 210:  0.00 211:  0.00 212:  0.00 213:  0.00 214:  0.00 215:  0.00 216:  0.00
 217:  0.00 218:  0.00 219:  0.00 220:  0.00 221:  0.00 222:  0.00 223:  0.00 224:  0.00
 225:  0.00 226:  0.00 227:  0.00 228:  0.00 229:  0.00 230:  0.00 231:  0.00 232:  0.00
 233:  0.00 234:  0.00 235:  0.00 236:  0.00 237:  0.00 238:  0.00 239:  0.00 240:  0.00
 241:  0.00 242:  0.00 243:  0.00 244:  0.00 245:  0.00 246:  0.00 247:  0.00 248:  0.00
 249:  0.00 250:  0.00 251:  0.00 252:  0.00 253:  0.00 254:  0.00 255:  0.00 256:  0.00
 257:  0.00 258:  0.00 259:  0.00 260:  0.00 261:  0.00 262:  0.00 263:  0.00 264:  0.00
 265:  0.00 266:  0.00 267:  0.00 268:  0.00 269:  0.00 270:  0.00 271:  0.00 272:  0.00
 273:  0.00 274:  0.00 275:  0.00 276:  0.00 277:  0.00 278:  0.00 279:  0.00 280:  0.00
 281:  0.00 282:  0.00 283:  0.00 284:  0.00 285:  0.00 286:  0.00 287:  0.00 288:  0.00
 289:  0.00 290:  0.00 291:  0.00 292:  0.00 293:  0.00 294:  0.00 295:  0.00 296:  0.00
 297:  0.00 298:  0.00 299:  0.00 300:  0.00 301:  0.00 302:  0.00 303:  0.00 304:  0.00
 305:  0.00 306:  0.00 307:  0.00 308:  0.00 309:  0.00 310:  0.00 311:  0.00 312:  0.00
 313:  0.00 314:  0.00 315:  0.00 316:  0.00 317:  0.00 318:  0.00 319:  0.00 320:  0.00
 321:  0.00 322:  0.00 323:  0.00 324:  0.00 325:  0.00 326:  0.00 327:  0.00 328:  0.00
 329:  0.00 330:  0.00 331:  0.00 332:  0.00 333:  0.00 334:  0.00 335:  0.00 336:  0.00
 337:  0.00 338:  0.00 339:  0.00 340:  0.00 341:  0.00 342:  0.00 343:  0.00 344:  0.00
 345:  0.00 346:  0.00 347:  0.00 348:  0.00 349:  0.00 350:  0.00 351:  0.00 352:  0.00
 353:  0.00 354:  0.00 355:  0.00 356:  0.00 357:  0.00 358:  0.00 359:  0.00 360:  0.00
 361:  0.00 362:  0.00 363:  0.00 364:  0.00 365:  0.00 366:  0.00 367:  0.00 368:  0.00
 369:  0.00 370:  0.00 371:  0.00 372:  0.00 373:  0.00 374:  0.00 375:  0.00 376:  0.00
 377:  0.00 378:  0.00 379:  0.00 380:  0.00 381:  0.00 382:  0.00 383:  0.00 384:  0.00
 385:  0.00 386:  0.00 387:  0.00 388:  0.00 389:  0.00 390:  0.00 391:  0.00 392:  0.00
 393:  0.00 394:  0.00 395:  0.00 396:  0.00 397:  0.00 398:  0.00 399:  0.00 400:  0.00
 401:  0.00 402:  0.00 403:  0.00 404:  0.00 405:  0.00 406:  0.00 407:  0.00 408:  0.00
 409:  0.00 410:  0.00 411:  0.00 412:  0.00 413:  0.00 414:  0.00 415:  0.00 416:  0.00
 417:  0.00 418:  0.00 419:  0.00 420:  0.00 421:  0.00 422:  0.00 423:  0.00
 output can be read by thermo (or use thermo option).
 writing <g98.out> molden fake output.
 recommended (thermochemical) frequency scaling factor: 1.0
           -------------------------------------------------
          |             Thermodynamic Functions             |
           -------------------------------------------------

Refinement of some symmetry elements was terminated before convergence was reached.
Some symmetry elements may remain unidentified.
Molecule has no symmetry elements
It seems to be the C1 point group
c1  symmetry found (for desy threshold:  0.10E+00) used in thermo

          ...................................................
          :                      SETUP                      :
          :.................................................:
          :  # frequencies                         417      :
          :  # imaginary freq.                       0      :
          :  linear?                             false      :
          :  only rotor calc.                    false      :
          :  symmetry                               c1      :
          :  rotational number                       1      :
          :  scaling factor                  1.0000000      :
          :  rotor cutoff                   50.0000000 cm⁻¹ :
          :  imag. cutoff                  -20.0000000 cm⁻¹ :
          :.................................................:

    mode    ω/cm⁻¹     T·S(HO)/kcal·mol⁻¹    T·S(FR)/kcal·mol⁻¹   T·S(vib)
   ------------------------------------------------------------------------
       1      4.32    -2.88561 (  0.01%)    -1.78190 ( 99.99%)    -1.78196
       2      5.27    -2.76797 (  0.01%)    -1.72308 ( 99.99%)    -1.72321
       3      6.01    -2.69005 (  0.02%)    -1.68412 ( 99.98%)    -1.68433
       4     12.78    -2.24309 (  0.43%)    -1.46061 ( 99.57%)    -1.46394
       5     16.21    -2.10222 (  1.09%)    -1.39015 ( 98.91%)    -1.39794
       6     16.81    -2.08092 (  1.26%)    -1.37949 ( 98.74%)    -1.38833
       7     21.14    -1.94519 (  3.10%)    -1.31158 ( 96.90%)    -1.33120
       8     25.76    -1.82815 (  6.58%)    -1.25300 ( 93.42%)    -1.29086
       9     28.38    -1.77078 (  9.41%)    -1.22427 ( 90.59%)    -1.27569
      10     31.04    -1.71793 ( 12.93%)    -1.19780 ( 87.07%)    -1.26505
      11     33.66    -1.66997 ( 17.04%)    -1.17378 ( 82.96%)    -1.25832
      12     35.47    -1.63895 ( 20.21%)    -1.15823 ( 79.79%)    -1.25540
      13     37.68    -1.60333 ( 24.38%)    -1.14037 ( 75.62%)    -1.25325
      14     45.13    -1.49670 ( 39.90%)    -1.08688 ( 60.10%)    -1.25041
      15     50.72    -1.42782 ( 51.44%)    -1.05229 ( 48.56%)    -1.24545
      16     52.51    -1.40743 ( 54.88%)    -1.04204 ( 45.12%)    -1.24257
      17     54.39    -1.38670 ( 58.34%)    -1.03162 ( 41.66%)    -1.23876
      18     55.90    -1.37057 ( 60.97%)    -1.02350 ( 39.03%)    -1.23512
      19     59.43    -1.33450 ( 66.63%)    -1.00535 ( 33.37%)    -1.22465
      20     63.53    -1.29530 ( 72.27%)    -0.98561 ( 27.73%)    -1.20942
      21     68.54    -1.25066 ( 77.93%)    -0.96310 ( 22.07%)    -1.18721
      22     72.71    -1.21605 ( 81.72%)    -0.94563 ( 18.28%)    -1.16663
      23     74.71    -1.20013 ( 83.29%)    -0.93758 ( 16.71%)    -1.15626
      24     78.16    -1.17367 ( 85.66%)    -0.92420 ( 14.34%)    -1.13789
      25     82.52    -1.14194 ( 88.12%)    -0.90814 ( 11.88%)    -1.11417
      26     87.14    -1.11009 ( 90.22%)    -0.89199 (  9.78%)    -1.08876
      27     92.00    -1.07845 ( 91.97%)    -0.87592 (  8.03%)    -1.06220
      28     95.55    -1.05639 ( 93.02%)    -0.86470 (  6.98%)    -1.04302
      29    101.12    -1.02341 ( 94.36%)    -0.84790 (  5.64%)    -1.01351
      30    108.42    -0.98298 ( 95.67%)    -0.82725 (  4.33%)    -0.97624
      31    116.73    -0.94032 ( 96.74%)    -0.80539 (  3.26%)    -0.93593
      32    120.12    -0.92381 ( 97.09%)    -0.79691 (  2.91%)    -0.92011
      33    123.77    -0.90656 ( 97.41%)    -0.78803 (  2.59%)    -0.90348
      34    136.68    -0.84968 ( 98.24%)    -0.75864 (  1.76%)    -0.84808
      35    146.31    -0.81086 ( 98.65%)    -0.73847 (  1.35%)    -0.80989
      36    160.64    -0.75796 ( 99.07%)    -0.71079 (  0.93%)    -0.75752
      37    164.41    -0.74489 ( 99.15%)    -0.70391 (  0.85%)    -0.74454
      38    171.52    -0.72115 ( 99.28%)    -0.69138 (  0.72%)    -0.72094
      39    175.34    -0.70883 ( 99.34%)    -0.68485 (  0.66%)    -0.70867
      40    183.51    -0.68348 ( 99.45%)    -0.67136 (  0.55%)    -0.68341
      41    194.86    -0.65029 ( 99.57%)    -0.65359 (  0.43%)    -0.65031
      42    198.66    -0.63968 ( 99.60%)    -0.64787 (  0.40%)    -0.63971
      43    202.98    -0.62788 ( 99.63%)    -0.64149 (  0.37%)    -0.62793
      44    205.16    -0.62205 ( 99.65%)    -0.63833 (  0.35%)    -0.62210
      45    216.96    -0.59163 ( 99.72%)    -0.62176 (  0.28%)    -0.59172
      46    222.19    -0.57877 ( 99.74%)    -0.61471 (  0.26%)    -0.57886
      47    223.04    -0.57669 ( 99.75%)    -0.61357 (  0.25%)    -0.57679
      48    225.21    -0.57149 ( 99.76%)    -0.61070 (  0.24%)    -0.57159
      49    230.02    -0.56015 ( 99.78%)    -0.60444 (  0.22%)    -0.56025
      50    234.93    -0.54887 ( 99.80%)    -0.59818 (  0.20%)    -0.54897
      51    243.91    -0.52897 ( 99.82%)    -0.58707 (  0.18%)    -0.52907
      52    245.23    -0.52611 ( 99.83%)    -0.58547 (  0.17%)    -0.52621
      53    254.04    -0.50756 ( 99.85%)    -0.57502 (  0.15%)    -0.50766
      54    258.99    -0.49748 ( 99.86%)    -0.56930 (  0.14%)    -0.49758
      55    259.35    -0.49675 ( 99.86%)    -0.56889 (  0.14%)    -0.49685
      56    265.90    -0.48381 ( 99.88%)    -0.56150 (  0.12%)    -0.48390
      57    275.03    -0.46641 ( 99.89%)    -0.55150 (  0.11%)    -0.46651
      58    283.65    -0.45067 ( 99.90%)    -0.54236 (  0.10%)    -0.45076
      59    287.99    -0.44298 ( 99.91%)    -0.53786 (  0.09%)    -0.44306
      60    298.10    -0.42562 ( 99.92%)    -0.52764 (  0.08%)    -0.42570
   ------------------------------------------------------------------------

   temp. (K)  partition function   enthalpy   heat capacity  entropy
                                   cal/mol     cal/K/mol   cal/K/mol   J/K/mol
 298.15  VIB  0.111E+35            41069.587    252.753    260.166
         ROT  0.654E+09              888.752      2.981     43.320
         INT  0.724E+43            41958.340    255.734    303.486
         TR   0.319E+29             1481.254      4.968     46.644
         TOT                       43439.5935   260.7018   350.1300  1464.9439

       T/K    H(0)-H(T)+PV         H(T)/Eh          T*S/Eh         G(T)/Eh
   ------------------------------------------------------------------------
    298.15    0.692254E-01    0.119638E+01    0.166358E+00    0.103002E+01
   ------------------------------------------------------------------------

         :::::::::::::::::::::::::::::::::::::::::::::::::::::
         ::                  THERMODYNAMIC                  ::
         :::::::::::::::::::::::::::::::::::::::::::::::::::::
         :: total free energy        -203.856726578419 Eh   ::
         ::.................................................::
         :: total energy             -204.886745910335 Eh   ::
         :: zero point energy           1.127151990926 Eh   ::
         :: G(RRHO) w/o ZPVE           -0.097132659010 Eh   ::
         :: G(RRHO) contrib.            1.030019331916 Eh   ::
         :::::::::::::::::::::::::::::::::::::::::::::::::::::

optimized geometry written to: xtbopt.xyz


           -------------------------------------------------
          | TOTAL ENERGY             -204.886745910335 Eh   |
          | TOTAL ENTHALPY           -203.690368520855 Eh   |
          | TOTAL FREE ENERGY        -203.856726578419 Eh   |
          | GRADIENT NORM               0.000064422082 Eh/α |
          | HOMO-LUMO GAP               2.361244077221 eV   |
           -------------------------------------------------

------------------------------------------------------------------------
 * finished run on 2025/09/02 at 20:56:34.009     
------------------------------------------------------------------------
 total:
 * wall-time:     0 d,  0 h,  0 min, 26.517 sec
 *  cpu-time:     0 d,  0 h, 16 min,  6.582 sec
 * ratio c/w:    36.451 speedup
 SCF:
 * wall-time:     0 d,  0 h,  0 min,  0.347 sec
 *  cpu-time:     0 d,  0 h,  0 min, 13.783 sec
 * ratio c/w:    39.675 speedup
 ANC optimizer:
 * wall-time:     0 d,  0 h,  0 min,  9.820 sec
 *  cpu-time:     0 d,  0 h,  6 min, 32.777 sec
 * ratio c/w:    39.997 speedup
 analytical hessian:
 * wall-time:     0 d,  0 h,  0 min, 15.880 sec
 *  cpu-time:     0 d,  0 h,  9 min, 10.231 sec
 * ratio c/w:    34.650 speedup

