$hessian                                                                        
        0.5097005261  -0.0122715020  -0.0286470086  -0.0815337789  -0.0163520847
       -0.0406936897   0.0017907635   0.0012604768   0.0036344344   0.0026220476
        0.0036819322   0.0067702241  -0.0172818910  -0.0103068067  -0.0242647724
       -0.0049890608  -0.0002041587   0.0007417616  -0.0010830067  -0.0004763912
       -0.0010334650   0.0000515057  -0.0001497922  -0.0003945360  -0.0002703932
       -0.0000132070  -0.0000100037   0.0000995658   0.0002248113  -0.0001342796
        0.0000271174  -0.0000423511   0.0000374562   0.0000104589   0.0000481047
       -0.0000185208  -0.0000168362  -0.0000235812   0.0000115779  -0.0000084205
        0.0000276282  -0.0000088266  -0.0000261654  -0.0000391735   0.0000183236
       -0.0000095794  -0.0000031315  -0.0000003885  -0.0000304162   0.0000361207
       -0.0000176654  -0.0000070642  -0.0000244318   0.0000136602  -0.0000217943
        0.0000211662  -0.0000102471   0.0000187420  -0.0000443638   0.0000263948
        0.0000149911   0.0000609102  -0.0000058861   0.0001275389  -0.0002224949
        0.0000905249   0.0000097032  -0.0000042886  -0.0000093341   0.0000053023
       -0.0000058110  -0.0000119372  -0.0000110081   0.0000001499  -0.0000010684
       -0.0000003252   0.0000019219   0.0000036528  -0.0000012504  -0.0000024873
       -0.0000066418  -0.0000012159   0.0000048027   0.0000036760  -0.0000298360
        0.0000129079   0.0000265665   0.0000288247  -0.0000014359   0.0000005796
       -0.0000125231   0.0000023625   0.0000022002   0.0000173932  -0.0000087055
        0.0000018851  -0.0000148197   0.0000008377   0.0000005580   0.0000174790
        0.0000051156  -0.0000030551  -0.0000119843   0.0000000290  -0.0000006330
       -0.0000158271  -0.0000094079   0.0000027047   0.0000099431   0.0000021408
       -0.0000001020  -0.0000027841  -0.0000008068   0.0000003519   0.0000015517
       -0.0000000854   0.0000004571   0.0000001764  -0.0000008707   0.0000002138
        0.0000003126   0.0000003494  -0.0000002448  -0.0000004110   0.0000002580
       -0.0000001641  -0.0000003508  -0.0000004500   0.0000005564  -0.0000004206
       -0.0000003005  -0.0000002366   0.0000017829   0.0000005187   0.0000002839
       -0.0000030085  -0.0000021050   0.0000009882   0.0000107642  -0.0000014303
       -0.0000009359  -0.0000039354   0.0000038492  -0.0000001782   0.0000029562
       -0.0000012807   0.0000000053   0.0000003402  -0.0000002039  -0.0000001650
       -0.0000001494   0.0000003457  -0.0000003560  -0.0000001752   0.0000004706
       -0.0000003242  -0.0000011462  -0.0000002161  -0.0000004417  -0.0000007726
       -0.0000004494   0.0000003720   0.0000010954   0.0000000124  -0.0000001537
       -0.0000020316   0.0000008375   0.0000001613   0.0000100382  -0.0000041178
       -0.0000007775  -0.0000160587   0.0000130295  -0.0000016956   0.0000181895
       -0.0000184832  -0.0000321803  -0.0000035706   0.0000069833   0.0000149438
        0.0000080269  -0.0000054070  -0.0000099666  -0.0000104719   0.0000020137
        0.0000048112   0.0000146758   0.0000004582   0.0000037769   0.0000003716
        0.0000048973   0.0000082996   0.0002856952  -0.0003151928  -0.0008889418
       -0.0012383227   0.0000102170   0.0001071901  -0.0722325029   0.0768101516
        0.0167846782  -0.0549719795  -0.0325469117   0.0406501932  -0.2792607605
       -0.0108425187   0.0233441077   0.0000407354  -0.0000053142  -0.0000772199
        0.0006442059  -0.0000634309   0.0012250762   0.0001302462  -0.0007529526
        0.0015113088   0.0006954633   0.0008865903   0.0009423160  -0.0002846913
        0.0023007993   0.0010036394   0.0000879901  -0.0000804086   0.0001231911
        0.0000390559   0.0000198690   0.0000126257  -0.0004394442  -0.0000491177
       -0.0000544831  -0.0000096780   0.0000433362  -0.0000330122  -0.0000002629
       -0.0000163352   0.0000061906  -0.0000102831  -0.0000108946   0.0000017804
       -0.0000123727  -0.0000095121   0.0000030239  -0.0000139376   0.0000069421
       -0.0000053556  -0.0000127558   0.0000078981  -0.0000049822  -0.0000026726
        0.0000145678  -0.0000106509   0.0000001768  -0.0000582683   0.0000067172
        0.0000027331  -0.0000029675  -0.0000077218   0.0000013246   0.0000032113
        0.0000064165  -0.0000049295   0.0000017585   0.0000045161  -0.0000055067
        0.0000011393   0.0000033150   0.0000017064  -0.0000012399  -0.0000006654
        0.0000013986   0.0000008367  -0.0000007613   0.0000004456   0.0000001007
       -0.0000000287  -0.0000004198  -0.0000006818   0.0000001370   0.0000003029
        0.0000001482   0.0000003931  -0.0000010750  -0.0000001527   0.0000000688
        0.0000004585  -0.0000000762   0.0000004435   0.0000004218  -0.0000003439
        0.0000002998  -0.0000011953  -0.0000001971  -0.0000001980   0.0000002556
        0.0000001702   0.0000004547   0.0000004232   0.0000000477   0.0000002054
        0.0000004200  -0.0000002577   0.0000000556  -0.0000011805   0.0000000252
        0.0000001881  -0.0000003725   0.0000000984  -0.0000000328  -0.0000002513
       -0.0000000371  -0.0000001223   0.0000004231   0.0000000996   0.0000003919
       -0.0000010985   0.0000003365  -0.0000000008   0.0000003953  -0.0000002065
       -0.0000001946   0.0000003255  -0.0000001505  -0.0000001761   0.0000003576
       -0.0000000769  -0.0000003056  -0.0000009470   0.0000004900   0.0000001884
        0.0000003797  -0.0000001998  -0.0000001864  -0.0000011797   0.0000002960
       -0.0000002982   0.0000003097  -0.0000000109   0.0000002893  -0.0000007106
        0.0000007298  -0.0000003466   0.0000003314  -0.0000001736  -0.0000004646
       -0.0000069742  -0.0000006982  -0.0000023408  -0.0000055985  -0.0000011012
       -0.0000035069   0.0000005564  -0.0000003872  -0.0000011192   0.0000007046
        0.0000042596   0.0000042474   0.0000597928   0.0000036025   0.0000001774
       -0.0026756327  -0.0005415341  -0.0007522320
       -0.0122715020   0.5223577318  -0.0234716895  -0.0156080599  -0.0775267378
       -0.0363717391   0.0042228172   0.0034859711   0.0152149031  -0.0065768516
       -0.0170529749  -0.0258614340  -0.0033338884  -0.0006752984  -0.0026103275
       -0.0003517675   0.0007589036  -0.0001600498  -0.0001534327   0.0000265254
       -0.0001241977  -0.0000329710   0.0000589264  -0.0000707252   0.0000399135
       -0.0000755800   0.0000398480   0.0000282371   0.0000542388  -0.0000244166
       -0.0000033938   0.0000105934   0.0000106629   0.0000093263   0.0000051956
        0.0000017103  -0.0000042001  -0.0000173339   0.0000087670  -0.0000057015
        0.0000214865  -0.0000097927  -0.0000087671  -0.0000047315   0.0000009021
       -0.0000020882  -0.0000079594   0.0000043689   0.0000230880  -0.0000103926
        0.0000061602  -0.0000132585   0.0000042570  -0.0000041272  -0.0000135173
        0.0000039858  -0.0000035140   0.0000237041  -0.0000090328   0.0000009759
        0.0000088314  -0.0000117062  -0.0000114968   0.0000119642   0.0000145317
       -0.0000055810   0.0000012066  -0.0000018225   0.0000024731   0.0000021319
       -0.0000048061  -0.0000005223   0.0000017166  -0.0000029253   0.0000009090
       -0.0000000209   0.0000011976   0.0000049695  -0.0000034095  -0.0000021937
       -0.0000023100   0.0000030043   0.0000011258   0.0000005795  -0.0000036092
       -0.0000024259   0.0000020284  -0.0000024220   0.0000047429  -0.0000012278
        0.0000025687  -0.0000014356   0.0000001171  -0.0000028460   0.0000015715
       -0.0000003008   0.0000019656  -0.0000009104   0.0000002864  -0.0000011096
        0.0000031638  -0.0000007960  -0.0000005535  -0.0000018959   0.0000008815
        0.0000021381  -0.0000025689   0.0000010233  -0.0000036993   0.0000022632
       -0.0000008098   0.0000013934   0.0000003787   0.0000001302  -0.0000013575
       -0.0000006625   0.0000000110  -0.0000002792  -0.0000004915   0.0000000320
       -0.0000019183   0.0000003614  -0.0000005183  -0.0000006220   0.0000002172
       -0.0000002842  -0.0000001246   0.0000004847   0.0000002198  -0.0000002273
        0.0000005286  -0.0000003608   0.0000039768   0.0000027157  -0.0000001260
       -0.0000028187  -0.0000029509   0.0000003541  -0.0000021948   0.0000019713
       -0.0000004769  -0.0000002346  -0.0000006131   0.0000003743   0.0000012656
       -0.0000003064  -0.0000000565   0.0000003110  -0.0000003884   0.0000000363
       -0.0000001083   0.0000007396  -0.0000002720   0.0000001049   0.0000001079
       -0.0000000689   0.0000003383   0.0000003809   0.0000001725   0.0000000903
        0.0000005341  -0.0000001658  -0.0000009414   0.0000011444  -0.0000000488
        0.0000019384   0.0000007959  -0.0000003942  -0.0000013456  -0.0000002912
        0.0000001002   0.0000015067  -0.0000024191   0.0000004171   0.0000027251
        0.0000008523  -0.0000017660  -0.0000033185   0.0000003252   0.0000017925
       -0.0000001000  -0.0000020607  -0.0000030284   0.0000003912  -0.0000006933
       -0.0000004848   0.0000044752  -0.0000000039   0.0000024766   0.0000001018
       -0.0000034739  -0.0000005081   0.0000186176   0.0001046007  -0.0001016504
        0.0002859306  -0.0007743542   0.0002229363   0.0765784468  -0.2452952866
       -0.0419494303  -0.0325476356  -0.1360182380   0.1120546868  -0.0107475366
       -0.0448153414   0.0018791709   0.0001218588   0.0007183694   0.0010170851
        0.0005429979   0.0003279904   0.0004058568  -0.0005705256  -0.0016126685
        0.0036499704  -0.0010281017   0.0005264073  -0.0003487056   0.0016910480
       -0.0055991620  -0.0023149885  -0.0003587129   0.0006459622  -0.0010201801
        0.0000043293  -0.0000675293   0.0000664643  -0.0000134644  -0.0000635299
        0.0000309874   0.0000040175  -0.0000035788  -0.0000160760   0.0000001242
       -0.0000105211   0.0000019657  -0.0000008463  -0.0000032622  -0.0000003087
       -0.0000013397  -0.0000035697   0.0000016583  -0.0000019665   0.0000015111
       -0.0000002643  -0.0000020791  -0.0000004115   0.0000029975  -0.0000041759
       -0.0000033111   0.0000059295  -0.0000063004   0.0000042829   0.0000143544
       -0.0000005985   0.0000028744  -0.0000010078  -0.0000016474   0.0000013245
       -0.0000009201  -0.0000004762   0.0000000235  -0.0000002580  -0.0000007392
        0.0000006973   0.0000003376  -0.0000001361  -0.0000005872   0.0000003252
        0.0000002372  -0.0000011686  -0.0000000334  -0.0000002771  -0.0000005326
        0.0000000217  -0.0000005818  -0.0000000599  -0.0000000388  -0.0000003188
        0.0000001290  -0.0000001695  -0.0000002599   0.0000003160  -0.0000001002
       -0.0000003528   0.0000001036   0.0000001354  -0.0000001585   0.0000000976
       -0.0000000482  -0.0000004240   0.0000003160  -0.0000001062  -0.0000000723
        0.0000001067  -0.0000003315  -0.0000001508   0.0000001826   0.0000002558
       -0.0000001757   0.0000000366  -0.0000001312  -0.0000003805   0.0000003364
       -0.0000001772  -0.0000003927  -0.0000002976  -0.0000000341  -0.0000003284
       -0.0000000270   0.0000000312  -0.0000000152   0.0000002650   0.0000000332
       -0.0000001141   0.0000003234  -0.0000001260  -0.0000000006   0.0000001033
       -0.0000000268   0.0000001845   0.0000000090   0.0000002029   0.0000002106
        0.0000001750  -0.0000002475  -0.0000000974   0.0000003285  -0.0000001713
        0.0000002521   0.0000001595   0.0000000680   0.0000002073   0.0000002367
       -0.0000001078   0.0000000806   0.0000001652  -0.0000000577   0.0000003752
       -0.0000000533   0.0000000693  -0.0000002177  -0.0000002229   0.0000001575
       -0.0000012138   0.0000001185  -0.0000000646  -0.0000010450   0.0000002051
       -0.0000001926  -0.0000001316  -0.0000006905   0.0000003811   0.0000009889
       -0.0000010431  -0.0000007652   0.0000131060   0.0000024983   0.0000030778
        0.0000414061   0.0005343284  -0.0001665058
       -0.0286470086  -0.0234716895   0.4739294092  -0.0388541194  -0.0362210284
       -0.1536138738  -0.0073620331  -0.0033911536  -0.0303396482  -0.0023534943
       -0.0088854540  -0.0106828721  -0.0049865919  -0.0010160289  -0.0011184628
        0.0004557266  -0.0001406235   0.0003591102  -0.0000715088  -0.0000877581
       -0.0001533701  -0.0000771236  -0.0000392679  -0.0000114889   0.0001920340
        0.0000466268   0.0000115258  -0.0000777607  -0.0001692005   0.0001032051
        0.0000272591   0.0000211263  -0.0000199876  -0.0000214764  -0.0000266604
        0.0000102960   0.0000001440   0.0000238222  -0.0000109297   0.0000072509
       -0.0000355753   0.0000154538   0.0000287455   0.0000271601  -0.0000116084
        0.0000045637   0.0000010140  -0.0000007221   0.0000243785  -0.0000243502
        0.0000118307  -0.0000008914   0.0000322580  -0.0000162715   0.0000090389
       -0.0000206903   0.0000107649  -0.0000265594   0.0000176896  -0.0000087728
        0.0000232108  -0.0000173320   0.0000099930  -0.0000900319   0.0001420857
       -0.0000874036  -0.0000068138   0.0000004774   0.0000010790   0.0000009277
        0.0000046412   0.0000073882   0.0000031001   0.0000010041   0.0000007901
       -0.0000104754  -0.0000029303  -0.0000062718   0.0000048656   0.0000040186
        0.0000079587  -0.0000079019  -0.0000084811  -0.0000096259   0.0000122803
        0.0000010375   0.0000017282  -0.0000087646  -0.0000015863   0.0000015703
        0.0000029799  -0.0000016383  -0.0000002325  -0.0000046245   0.0000013519
       -0.0000002917   0.0000020520   0.0000002057  -0.0000000256  -0.0000067645
       -0.0000040650   0.0000013712   0.0000043802   0.0000021259   0.0000000283
        0.0000014357   0.0000039015  -0.0000007710  -0.0000007123  -0.0000005276
        0.0000002078   0.0000007128   0.0000010034   0.0000000355   0.0000018617
       -0.0000024515   0.0000007635  -0.0000012049   0.0000010705  -0.0000001990
       -0.0000027338  -0.0000003178  -0.0000000552  -0.0000001425   0.0000000345
        0.0000003228  -0.0000003892   0.0000003980  -0.0000005035  -0.0000004320
        0.0000003735   0.0000001082   0.0000002650   0.0000019781  -0.0000002288
        0.0000014124   0.0000004658   0.0000000694  -0.0000038221  -0.0000014195
        0.0000001408   0.0000010414  -0.0000000349  -0.0000000329  -0.0000013882
       -0.0000001310  -0.0000000189  -0.0000010208   0.0000008143  -0.0000001945
       -0.0000003377  -0.0000000715  -0.0000002610   0.0000000779   0.0000002878
       -0.0000003643   0.0000001357   0.0000000230  -0.0000004271   0.0000003286
        0.0000000441  -0.0000001580   0.0000003133   0.0000001614  -0.0000002492
       -0.0000002675  -0.0000004163   0.0000000312  -0.0000029893   0.0000010175
       -0.0000000837   0.0000042162  -0.0000018769  -0.0000003194  -0.0000029217
        0.0000070364   0.0000098638   0.0000036766  -0.0000028890  -0.0000046770
       -0.0000078613   0.0000024410   0.0000053915   0.0000024965  -0.0000022866
       -0.0000031794   0.0000053788  -0.0000012421  -0.0000027655  -0.0000098038
       -0.0000031299  -0.0000047966   0.0001104187   0.0000205176   0.0001884329
        0.0009580850   0.0002365406  -0.0004270345   0.0164757824  -0.0417000379
       -0.0522450269   0.0403026229   0.1117666242  -0.1787872842   0.0236143813
        0.0018981817  -0.0447391319  -0.0001894145  -0.0009950553   0.0006640511
       -0.0009218151  -0.0008042720   0.0003869034   0.0008204685   0.0029579768
       -0.0045510364  -0.0004690459   0.0005555099   0.0001484385   0.0005084666
       -0.0017311023  -0.0001691971  -0.0001775854   0.0009655521   0.0006991077
       -0.0000480250   0.0000581637   0.0000625342   0.0000240651   0.0000432245
        0.0000441119  -0.0000099582  -0.0000059757   0.0000111882  -0.0000004346
        0.0000135523  -0.0000036312   0.0000018483   0.0000007465  -0.0000022373
        0.0000020306   0.0000031589   0.0000001427   0.0000037315  -0.0000029994
        0.0000024512  -0.0000008375  -0.0000001834   0.0000041460   0.0000030670
       -0.0000090916   0.0000031529  -0.0000076223   0.0000050699  -0.0000062205
        0.0000043886  -0.0000009265   0.0000016714  -0.0000017174  -0.0000011491
       -0.0000014335   0.0000012648  -0.0000009368   0.0000004296   0.0000003262
       -0.0000000316   0.0000003952   0.0000002157   0.0000020012  -0.0000002882
       -0.0000001551  -0.0000017786   0.0000005567  -0.0000006124  -0.0000005667
        0.0000003585  -0.0000008811   0.0000005216   0.0000000672  -0.0000004558
        0.0000001423   0.0000000013  -0.0000001780   0.0000003338  -0.0000000675
       -0.0000005495   0.0000001587  -0.0000001357  -0.0000003061   0.0000000904
       -0.0000002437   0.0000000338   0.0000001522  -0.0000000371  -0.0000003927
        0.0000001052  -0.0000000383  -0.0000004594   0.0000000638   0.0000001400
       -0.0000003090   0.0000005962  -0.0000003130  -0.0000001968   0.0000001440
       -0.0000002356  -0.0000008283  -0.0000000063  -0.0000001439  -0.0000004437
        0.0000000138  -0.0000000545  -0.0000002992   0.0000000388  -0.0000004557
       -0.0000003076   0.0000002473  -0.0000003755  -0.0000002248  -0.0000000251
        0.0000001957  -0.0000002298  -0.0000000035   0.0000001097   0.0000000252
        0.0000006024  -0.0000005145  -0.0000003414   0.0000002216  -0.0000004069
       -0.0000000828   0.0000002177  -0.0000005031  -0.0000001215   0.0000001602
       -0.0000003865  -0.0000001141   0.0000000873  -0.0000004328  -0.0000002325
        0.0000002264  -0.0000002801   0.0000003204   0.0000004819  -0.0000003820
       -0.0000008239  -0.0000002631   0.0000010285   0.0000006174   0.0000003763
        0.0000004768   0.0000003418   0.0000001877   0.0000032543   0.0000060754
       -0.0000019199  -0.0000021220  -0.0000046000  -0.0000046858  -0.0000063964
        0.0008247054  -0.0000363665   0.0003334069
       -0.0815337789  -0.0156080599  -0.0388541194   0.4793307767   0.0066193120
        0.0140983816  -0.0684760362  -0.0176096972   0.0185550289  -0.0784060407
        0.0376976731   0.0060763969  -0.1790473364  -0.0085985384   0.0041379896
       -0.0224920233  -0.0050346410  -0.0089295560   0.0014967789  -0.0011503893
       -0.0020859544  -0.0013286240   0.0000204800   0.0004367675   0.0005704504
        0.0001798973  -0.0000667808  -0.0001181479  -0.0003147871   0.0002332641
        0.0000297895   0.0000593022  -0.0000265215  -0.0000679525  -0.0000627969
        0.0000295878   0.0000285140   0.0000694223  -0.0000306055   0.0000407454
       -0.0000720253   0.0000345813   0.0000639006   0.0000517658  -0.0000184405
        0.0000242045   0.0000021725  -0.0000003524   0.0000562269  -0.0000328003
        0.0000164664   0.0000139097   0.0000605628  -0.0000293225   0.0000437659
       -0.0000635611   0.0000338900  -0.0000701680   0.0000504824  -0.0000266736
        0.0000188729  -0.0000695087   0.0000292954  -0.0001904888   0.0002578831
       -0.0002180693  -0.0000226343   0.0000032273   0.0000132953   0.0000103935
        0.0000036701   0.0000111951   0.0000063475   0.0000043128   0.0000152414
       -0.0000346741  -0.0000093557  -0.0000156138   0.0000139412   0.0000084670
        0.0000188401  -0.0000176121  -0.0000355034  -0.0000358862   0.0000495908
       -0.0000039623  -0.0000024773  -0.0000509298  -0.0000015674   0.0000012568
        0.0000184943  -0.0000135670   0.0000003911  -0.0000285207   0.0000146962
       -0.0000032819   0.0000135019  -0.0000009056  -0.0000000103  -0.0000320892
       -0.0000152162   0.0000049236   0.0000197533   0.0000100183   0.0000004496
        0.0000292371   0.0000203211  -0.0000024502  -0.0000255786  -0.0000036788
       -0.0000005672   0.0000003665   0.0000022210  -0.0000004685  -0.0000026377
       -0.0000039348   0.0000004749  -0.0000090589   0.0000016011  -0.0000015018
       -0.0000082444  -0.0000008573  -0.0000009582  -0.0000031126   0.0000009210
       -0.0000009146  -0.0000024571   0.0000014222  -0.0000018183  -0.0000030483
        0.0000017862  -0.0000006616  -0.0000055652   0.0000050385  -0.0000016079
        0.0000030983   0.0000022864  -0.0000009373  -0.0000256620   0.0000004131
        0.0000002634   0.0000030665  -0.0000018472  -0.0000001198  -0.0000045761
       -0.0000039682   0.0000002652  -0.0000076667   0.0000009946  -0.0000001593
       -0.0000069088   0.0000011254  -0.0000005799  -0.0000017880   0.0000003136
       -0.0000011161  -0.0000013237   0.0000009658  -0.0000008944  -0.0000008532
        0.0000012577  -0.0000017107  -0.0000008344   0.0000046719  -0.0000014753
        0.0000022074  -0.0000029227   0.0000001472  -0.0000246798   0.0000050880
        0.0000008941   0.0000280660  -0.0000221742   0.0000019054  -0.0000206859
        0.0000364083   0.0000457341   0.0000126999  -0.0000118202  -0.0000180822
       -0.0000327208   0.0000077993   0.0000178302   0.0000070205  -0.0000075912
       -0.0000096991   0.0000068360  -0.0000050978  -0.0000068706  -0.0000189644
       -0.0000094861  -0.0000094816   0.0005433535   0.0001458726   0.0020073446
       -0.0203215668   0.0010877400   0.0079782948   0.0039124546   0.0030747879
        0.0081029883   0.0024845658   0.0024850291   0.0044726015  -0.0175428567
       -0.0109641174  -0.0260784762   0.0028231488   0.0067951701  -0.0077547759
       -0.0124713630  -0.0196834517   0.0222428326   0.0019892704   0.0055327529
       -0.0064471068  -0.0170733537   0.0278172739   0.0053569600   0.0031279995
       -0.0075481092  -0.0012353222   0.0027143842  -0.0054296174  -0.0016811620
        0.0003365463   0.0006343851   0.0011050854  -0.0003630087   0.0000036371
        0.0001624502  -0.0000794729  -0.0000239331   0.0000137265  -0.0000009798
        0.0000166157  -0.0000025402   0.0000107581  -0.0000062692  -0.0000111172
        0.0000092313   0.0000026721   0.0000003730   0.0000138211  -0.0000014945
        0.0000025317   0.0000042647   0.0000028802   0.0000157887   0.0000042507
       -0.0000157442   0.0000067225  -0.0000690163   0.0000118547  -0.0000081123
        0.0000157954   0.0000012147   0.0000111781  -0.0000085285  -0.0000047212
       -0.0000108042   0.0000042958  -0.0000058430  -0.0000012588   0.0000008883
       -0.0000009639  -0.0000010774  -0.0000046681   0.0000036343   0.0000005674
       -0.0000058937  -0.0000049211   0.0000013644  -0.0000055885  -0.0000003419
        0.0000000969  -0.0000048568   0.0000022674  -0.0000010309  -0.0000050704
        0.0000006771  -0.0000013486  -0.0000023599   0.0000017194  -0.0000013031
       -0.0000054394   0.0000009181  -0.0000009904  -0.0000040338   0.0000012490
       -0.0000017088  -0.0000016053   0.0000011638  -0.0000004875  -0.0000043930
        0.0000008242  -0.0000012448  -0.0000051598   0.0000009635  -0.0000011691
       -0.0000045937   0.0000014348  -0.0000011359  -0.0000019929   0.0000009867
       -0.0000018206  -0.0000031182  -0.0000008191  -0.0000002869  -0.0000032022
        0.0000018727  -0.0000010581  -0.0000035427   0.0000008902  -0.0000016863
       -0.0000008367   0.0000008208  -0.0000017078  -0.0000038522   0.0000010523
       -0.0000007288  -0.0000035704   0.0000010001  -0.0000007293  -0.0000032849
        0.0000010381  -0.0000006102  -0.0000005411  -0.0000000803  -0.0000021455
       -0.0000028379   0.0000010085  -0.0000012163   0.0000000226   0.0000002923
       -0.0000008191  -0.0000026727   0.0000010110  -0.0000013792  -0.0000019479
       -0.0000019100  -0.0000000809  -0.0000032646   0.0000003822  -0.0000000115
        0.0000016765  -0.0000017017   0.0000030684   0.0000048912   0.0000032574
        0.0000033828  -0.0000071197   0.0000000841   0.0000119681   0.0000160701
       -0.0000066831  -0.0000054027  -0.0003860981  -0.0000729534  -0.0001990517
        0.0005748697  -0.0003044777  -0.0014474358
       -0.0163520847  -0.0775267378  -0.0362210284   0.0066193120   0.4621333288
        0.0089107581  -0.0228408103  -0.1076365934   0.0544222453   0.0453255634
       -0.1582151940  -0.0197731607  -0.0103234295  -0.0577382158  -0.0025271118
       -0.0094724775  -0.0015564563  -0.0001123256  -0.0014383142   0.0049412753
       -0.0034685060  -0.0000406759   0.0003728529  -0.0004422641   0.0002128732
       -0.0016858228   0.0006461053  -0.0002158073   0.0000456876  -0.0000466693
       -0.0000882133   0.0000217240  -0.0000088929  -0.0000151625  -0.0000170564
        0.0000067981   0.0000285880  -0.0000061526   0.0000014039  -0.0000122752
        0.0000217678  -0.0000084744  -0.0000721997  -0.0000783830   0.0000366642
        0.0000041634  -0.0000028251   0.0000013143   0.0001125460  -0.0000927473
        0.0000503552   0.0000131659   0.0000505816  -0.0000216485  -0.0000125266
       -0.0000270786   0.0000118623  -0.0000085172   0.0000137260  -0.0000054127
        0.0000873409   0.0000033445   0.0000100214   0.0001212237   0.0002342036
       -0.0001375859  -0.0000062414  -0.0000060155   0.0000075316  -0.0000024774
       -0.0000018069   0.0000068954   0.0000064305  -0.0000015365   0.0000029948
       -0.0000035985  -0.0000017529  -0.0000014004   0.0000013074   0.0000004935
        0.0000028500   0.0000011867  -0.0000006127  -0.0000045929   0.0000168643
       -0.0000120600  -0.0000097775  -0.0000149630   0.0000059247  -0.0000024801
        0.0000106510  -0.0000024445  -0.0000004686  -0.0000123047   0.0000081035
       -0.0000021048   0.0000084291  -0.0000038168   0.0000004806  -0.0000068400
        0.0000029045   0.0000002310   0.0000028428   0.0000006673   0.0000005327
        0.0000091956   0.0000001551  -0.0000000231  -0.0000090613   0.0000015373
       -0.0000007522   0.0000021183   0.0000025106  -0.0000005582  -0.0000009578
       -0.0000012588   0.0000000746  -0.0000011551  -0.0000012423   0.0000001443
       -0.0000030066   0.0000002435  -0.0000001140  -0.0000005057  -0.0000000400
        0.0000001559  -0.0000002018   0.0000007872   0.0000000211  -0.0000000617
        0.0000006553   0.0000000478   0.0000036315   0.0000040227  -0.0000005199
       -0.0000012157  -0.0000044290   0.0000004056  -0.0000077069   0.0000067390
       -0.0000008158   0.0000011357  -0.0000043264   0.0000009796  -0.0000003366
        0.0000004550  -0.0000000577  -0.0000009712  -0.0000011920   0.0000004106
       -0.0000002721   0.0000007416   0.0000000176   0.0000000375  -0.0000001900
        0.0000002425   0.0000006521   0.0000004344   0.0000003742   0.0000003807
        0.0000004934  -0.0000000704  -0.0000019989   0.0000016283   0.0000000170
        0.0000035970   0.0000015916  -0.0000006664  -0.0000070772   0.0000017978
        0.0000004232   0.0000106720  -0.0000107390   0.0000017025  -0.0000107553
        0.0000146423   0.0000166005   0.0000012991  -0.0000051611  -0.0000085197
       -0.0000066101   0.0000021887   0.0000056925   0.0000004987  -0.0000029425
        0.0000006209  -0.0000029694  -0.0000063489  -0.0000005387   0.0000001123
       -0.0000096476   0.0000005659   0.0003275131   0.0059628540  -0.0033442403
        0.0060466666   0.0022557901  -0.0001473084  -0.0095785987  -0.0133999997
       -0.0242826154   0.0067070091   0.0050777735   0.0152261759  -0.0025146827
       -0.0011273918  -0.0023253854  -0.0059808032  -0.0223226464   0.0196670283
       -0.0039515122  -0.0035350584   0.0044542639   0.0025138441   0.0052036796
       -0.0054001389   0.0036692303  -0.0020004721  -0.0009341351   0.0034597785
       -0.0127941274  -0.0054563878   0.0075073073  -0.0222436126  -0.0001062646
        0.0000599056  -0.0020587051   0.0008638894  -0.0005035203  -0.0000010829
       -0.0000982906   0.0000529982   0.0000161818  -0.0000091633   0.0000050091
       -0.0000168315   0.0000109347   0.0000102106   0.0000014901  -0.0000016820
        0.0000072039  -0.0000042507   0.0000015149   0.0000045449  -0.0000095048
        0.0000040171  -0.0000033242  -0.0000053893   0.0000028504  -0.0000034001
       -0.0000283509   0.0000156576  -0.0000623845   0.0000162446  -0.0000193630
       -0.0000016205   0.0000049326  -0.0000000325  -0.0000021283  -0.0000003585
       -0.0000046466   0.0000026449  -0.0000008063  -0.0000029854   0.0000025075
        0.0000004763  -0.0000014738  -0.0000011139  -0.0000005390   0.0000000407
       -0.0000001009  -0.0000020896   0.0000003367  -0.0000003096  -0.0000011366
        0.0000002435  -0.0000008311   0.0000002046  -0.0000000342  -0.0000005173
       -0.0000001095  -0.0000002542   0.0000004927   0.0000003819   0.0000001031
       -0.0000005403   0.0000000733   0.0000001006  -0.0000005797  -0.0000002347
        0.0000000868   0.0000003495   0.0000003316   0.0000003490  -0.0000003666
        0.0000000597  -0.0000003917  -0.0000003409   0.0000001170   0.0000002146
       -0.0000004507  -0.0000002042   0.0000000724   0.0000004182   0.0000001544
       -0.0000000850   0.0000000175  -0.0000008104   0.0000003162  -0.0000004115
        0.0000000955   0.0000001896  -0.0000004222   0.0000000748  -0.0000000385
        0.0000004231   0.0000000742   0.0000001014  -0.0000002959   0.0000000974
        0.0000003689  -0.0000001075   0.0000001734   0.0000003486  -0.0000002998
       -0.0000000723   0.0000001968   0.0000005766  -0.0000001242  -0.0000000944
       -0.0000003198   0.0000000695   0.0000003040   0.0000006103   0.0000000275
        0.0000003555  -0.0000002784   0.0000001466  -0.0000001317   0.0000007523
       -0.0000010183   0.0000003187  -0.0000008466  -0.0000007831   0.0000003591
        0.0000025879   0.0000008605   0.0000004035   0.0000014880   0.0000013672
        0.0000004726   0.0000003053   0.0000014820  -0.0000008820   0.0000058695
        0.0000043844  -0.0000035281   0.0003942589  -0.0001506799  -0.0000323039
        0.0002135475  -0.0020795914   0.0005792425
       -0.0406936897  -0.0363717391  -0.1536138738   0.0140983816   0.0089107581
        0.4793328976   0.0242538667   0.0543093417  -0.1255342560   0.0070775247
       -0.0191244568  -0.0651316477  -0.0005436996  -0.0028795124  -0.0637140750
       -0.0211840187  -0.0011410786   0.0008242920  -0.0028312560  -0.0034971193
       -0.0026411303   0.0002629071  -0.0004827922  -0.0008285871   0.0000661905
        0.0006761785  -0.0001606269   0.0000435915  -0.0001626123   0.0000587204