      -----------------------------------------------------------      
     |                   =====================                   |     
     |                           x T B                           |     
     |                   =====================                   |     
     |                         S. Grimme                         |     
     |          Mulliken Center for Theoretical Chemistry        |     
     |                    University of Bonn                     |     
      -----------------------------------------------------------      

   * xtb version 6.7.1 (edcfbbe) compiled by 'albert@albert-system' on 2024-07-22

   xtb is free software: you can redistribute it and/or modify it under
   the terms of the GNU Lesser General Public License as published by
   the Free Software Foundation, either version 3 of the License, or
   (at your option) any later version.
   
   xtb is distributed in the hope that it will be useful,
   but WITHOUT ANY WARRANTY; without even the implied warranty of
   MERCHANTABILITY or FITNESS FOR A PARTICULAR PURPOSE.  See the
   GNU Lesser General Public License for more details.
   
   Cite this work as:
   * C. Bannwarth, E. Caldeweyher, S. Ehlert, A. Hansen, P. Pracht,
     J. Seibert, S. Spicher, S. Grimme, WIREs Comput. Mol. Sci., 2020, 11,
     e01493. DOI: 10.1002/wcms.1493
   
   for GFN2-xTB:
   * C. Bannwarth, S. Ehlert and S. Grimme., J. Chem. Theory Comput., 2019,
     15, 1652-1671. DOI: 10.1021/acs.jctc.8b01176
   for GFN1-xTB:
   * S. Grimme, C. Bannwarth, P. Shushkov, J. Chem. Theory Comput., 2017,
     13, 1989-2009. DOI: 10.1021/acs.jctc.7b00118
   for GFN0-xTB:
   * P. Pracht, E. Caldeweyher, S. Ehlert, S. Grimme, ChemRxiv, 2019, preprint.
     DOI: 10.26434/chemrxiv.8326202.v1
   for GFN-FF:
   * S. Spicher and S. Grimme, Angew. Chem. Int. Ed., 2020, 59, 15665-15673.
     DOI: 10.1002/anie.202004239
   
   for ALPB and GBSA implicit solvation:
   * S. Ehlert, M. Stahn, S. Spicher, S. Grimme, J. Chem. Theory Comput.,
     2021, 17, 4250-4261. DOI: 10.1021/acs.jctc.1c00471
   
   for ddCOSMO and CPCM-X implicit solvation:
   * M. Stahn, S. Ehlert, S. Grimme, J. Phys. Chem. A,
     2023, XX, XXXX-XXXX. DOI: 10.1021/acs.jpca.3c04382
   
   for DFT-D4:
   * E. Caldeweyher, C. Bannwarth and S. Grimme, J. Chem. Phys., 2017,
     147, 034112. DOI: 10.1063/1.4993215
   * E. Caldeweyher, S. Ehlert, A. Hansen, H. Neugebauer, S. Spicher,
     C. Bannwarth and S. Grimme, J. Chem. Phys., 2019, 150, 154122.
     DOI: 10.1063/1.5090222
   * E. Caldeweyher, J.-M. Mewes, S. Ehlert and S. Grimme, Phys. Chem. Chem. Phys.
     2020, 22, 8499-8512. DOI: 10.1039/D0CP00502A
   
   for sTDA-xTB:
   * S. Grimme and C. Bannwarth, J. Chem. Phys., 2016, 145, 054103.
     DOI: 10.1063/1.4959605
   
   in the mass-spec context:
   * V. Asgeirsson, C. Bauer and S. Grimme, Chem. Sci., 2017, 8, 4879.
     DOI: 10.1039/c7sc00601b
   * J. Koopman and S. Grimme, ACS Omega 2019, 4, 12, 15120-15133.
     DOI: 10.1021/acsomega.9b02011
   
   for metadynamics refer to:
   * S. Grimme, J. Chem. Theory Comput., 2019, 155, 2847-2862
     DOI: 10.1021/acs.jctc.9b00143
   
   for SPH calculations refer to:
   * S. Spicher and S. Grimme, J. Chem. Theory Comput., 2021, 17, 1701-1714
     DOI: 10.1021/acs.jctc.0c01306
   
   for ONIOM refer to:
   * C. Plett, A. Katbashev, S. Ehlert, S. Grimme, M. Bursch,
     Phys. Chem. Chem. Phys., 2023, 25, 17860-17868. DOI: 10.1039/D3CP02178E
   
   for DIPRO refer to:
   * J. Kohn, N. Gildemeister, S. Grimme, D. Fazzi, A. Hansen,
     J. Chem. Phys., 2023, just accepted.
   
   for PTB refer to:
   * S. Grimme, M. Mueller, A. Hansen, J. Chem. Phys., 2023, 158, 124111.
     DOI: 10.1063/5.0137838
   
   with help from (in alphabetical order)
   P. Atkinson, C. Bannwarth, F. Bohle, G. Brandenburg, E. Caldeweyher
   M. Checinski, S. Dohm, S. Ehlert, S. Ehrlich, I. Gerasimov, C. Hölzer
   A. Katbashev, J. Kohn, J. Koopman, C. Lavigne, S. Lehtola, F. März, M. Müller,
   F. Musil, H. Neugebauer, J. Pisarek, C. Plett, P. Pracht, F. Pultar,
   J. Seibert, P. Shushkov, S. Spicher, M. Stahn, M. Steiner, T. Strunk,
   J. Stückrath, T. Rose, and J. Unsleber
   
 * started run on 2025/08/22 at 23:35:10.767     
   ID    Z sym.   atoms
    1    6 C      1-8, 10-28, 30-35, 37-46, 48-57, 59-66
    2    7 N      9, 29
    3    8 O      36, 58
    4    5 B      47
    5    1 H      67-121

           -------------------------------------------------
          |                Calculation Setup                |
           -------------------------------------------------

          program call               : xtb data2507/gas/TDBA-SBA/TDBA-SBA.xyz --gfn 2 --ohess vtight --parallel 40 --molden --ceasefiles --namespace data2507/gas/TDBA-SBA/TDBA-SBA_gas_S0_preOpt
          calculation namespace      : data2507/gas/TDBA-SBA/TDBA-SBA_gas_S0_preOpt
          coordinate file            : data2507/gas/TDBA-SBA/TDBA-SBA.xyz
          omp threads                :                    40


           -------------------------------------------------
          |                 G F N 2 - x T B                 |
           -------------------------------------------------

        Reference                      10.1021/acs.jctc.8b01176
      * Hamiltonian:
        H0-scaling (s, p, d)           1.850000    2.230000    2.230000
        zeta-weighting                 0.500000
      * Dispersion:
        s8                             2.700000
        a1                             0.520000
        a2                             5.000000
        s9                             5.000000
      * Repulsion:
        kExp                           1.500000    1.000000
        rExp                           1.000000
      * Coulomb:
        alpha                          2.000000
        third order                    shell-resolved
        anisotropic                    true
        a3                             3.000000
        a5                             4.000000
        cn-shift                       1.200000
        cn-exp                         4.000000
        max-rad                        5.000000


          ...................................................
          :                      SETUP                      :
          :.................................................:
          :  # basis functions                 319          :
          :  # atomic orbitals                 319          :
          :  # shells                          187          :
          :  # electrons                       324          :
          :  max. iterations                   250          :
          :  Hamiltonian                  GFN2-xTB          :
          :  restarted?                      false          :
          :  GBSA solvation                  false          :
          :  PC potential                    false          :
          :  electronic temp.          300.0000000     K    :
          :  accuracy                    1.0000000          :
          :  -> integral cutoff          0.2500000E+02      :
          :  -> integral neglect         0.1000000E-07      :
          :  -> SCF convergence          0.1000000E-05 Eh   :
          :  -> wf. convergence          0.1000000E-03 e    :
          :  Broyden damping             0.4000000          :
          :  net charge                          0          :
          :  unpaired electrons                  0          :
          ...................................................

 iter      E             dE          RMSdq      gap      omega  full diag
   1   -176.7480048 -0.176748E+03  0.422E+00    2.13       0.0  T
   2   -176.9667435 -0.218739E+00  0.262E+00    1.80       1.0  T
   3   -176.9285300  0.382135E-01  0.118E+00    2.45       1.0  T
   4   -176.9898599 -0.613299E-01  0.359E-01    1.77       1.0  T
   5   -177.0059062 -0.160463E-01  0.174E-01    2.15       1.0  T
   6   -177.0091577 -0.325153E-02  0.718E-02    2.01       1.0  T
   7   -177.0092780 -0.120277E-03  0.298E-02    2.03       1.0  T
   8   -177.0093561 -0.780937E-04  0.114E-02    2.02       1.0  T
   9   -177.0093629 -0.684905E-05  0.432E-03    2.02       2.1  T
  10   -177.0093645 -0.158081E-05  0.177E-03    2.02       5.1  T
  11   -177.0093647 -0.235911E-06  0.719E-04    2.02      12.6  T
  12   -177.0093648 -0.193123E-07  0.291E-04    2.02      31.2  T

   *** convergence criteria satisfied after 12 iterations ***

         #    Occupation            Energy/Eh            Energy/eV
      -------------------------------------------------------------
         1        2.0000           -0.7174391             -19.5225
       ...           ...                  ...                  ...
       156        2.0000           -0.3834649             -10.4346
       157        2.0000           -0.3818293             -10.3901
       158        2.0000           -0.3809193             -10.3653
       159        2.0000           -0.3730777             -10.1520
       160        2.0000           -0.3655361              -9.9467
       161        2.0000           -0.3445445              -9.3755
       162        2.0000           -0.3434546              -9.3459 (HOMO)
       163                         -0.2691126              -7.3229 (LUMO)
       164                         -0.2311216              -6.2891
       165                         -0.2262998              -6.1579
       166                         -0.2246270              -6.1124
       167                         -0.2239884              -6.0950
       ...                                ...                  ...
       319                          0.8232440              22.4016
      -------------------------------------------------------------
                  HL-Gap            0.0743420 Eh            2.0229 eV
             Fermi-level           -0.3062836 Eh           -8.3344 eV

 SCC (total)                   0 d,  0 h,  0 min,  0.311 sec
 SCC setup                      ...        0 min,  0.001 sec (  0.379%)
 Dispersion                     ...        0 min,  0.011 sec (  3.497%)
 classical contributions        ...        0 min,  0.000 sec (  0.100%)
 integral evaluation            ...        0 min,  0.019 sec (  6.249%)
 iterations                     ...        0 min,  0.252 sec ( 80.961%)
 molecular gradient             ...        0 min,  0.025 sec (  7.926%)
 printout                       ...        0 min,  0.003 sec (  0.853%)

         :::::::::::::::::::::::::::::::::::::::::::::::::::::
         ::                     SUMMARY                     ::
         :::::::::::::::::::::::::::::::::::::::::::::::::::::
         :: total energy            -173.927940248644 Eh    ::
         :: gradient norm              0.229765959798 Eh/a0 ::
         :: HOMO-LUMO gap              2.022948693146 eV    ::
         ::.................................................::
         :: SCC energy              -177.007776668502 Eh    ::
         :: -> isotropic ES            0.064067163600 Eh    ::
         :: -> anisotropic ES          0.026769258796 Eh    ::
         :: -> anisotropic XC          0.083741254591 Eh    ::
         :: -> dispersion             -0.175573952576 Eh    ::
         :: repulsion energy           3.079836419858 Eh    ::
         :: add. restraining           0.000000000000 Eh    ::
         :: total charge              -0.000000000000 e     ::
         :::::::::::::::::::::::::::::::::::::::::::::::::::::

      ----------------------------------------------------------- 
     |                   =====================                   |
     |                        A N C O P T                        |
     |                   =====================                   |
     |               Approximate Normal Coordinate               |
     |                Rational Function Optimizer                |
      ----------------------------------------------------------- 

Optimization log is written to '/dev/null'
      ----------------------------------------------------------- 
     |                   =====================                   |
     |                        A N C O P T                        |
     |                   =====================                   |
     |               Approximate Normal Coordinate               |
     |                Rational Function Optimizer                |
      ----------------------------------------------------------- 

          ...................................................
          :                      SETUP                      :
          :.................................................:
          :   optimization level         verytight          :
          :   max. optcycles                  2420          :
          :   ANC micro-cycles                  20          :
          :   degrees of freedom               357          :
          :.................................................:
          :   RF solver                   davidson          :
          :   write xtbopt.log                true          :
          :   linear?                        false          :
          :   energy convergence         0.1000000E-06 Eh   :
          :   grad. convergence          0.2000000E-03 Eh/α :
          :   maxmium RF displ.          1.0000000          :
          :   Hlow (freq-cutoff)         0.1000000E-01      :
          :   Hmax (freq-cutoff)         5.0000000          :
          :   S6 in model hess.         20.0000000          :
          ...................................................

generating ANC from exact Hessian ...
Using Lindh-Hessian (1995)
 Shifting diagonal of input Hessian by   9.987191962929926E-003
 Lowest  eigenvalues of input Hessian
    0.000000    0.000000    0.000000    0.000000    0.000000    0.000000
    0.010000    0.010012    0.010015    0.010143    0.010244    0.010258
    0.010330    0.010432    0.010663    0.010779    0.010856    0.010893
 Highest eigenvalues
    2.170544    2.180117    2.189206    2.196490    2.221783    2.235389
 

........................................................................
.............................. CYCLE    1 ..............................
........................................................................

 iter      E             dE          RMSdq      gap      omega  full diag
   1   -177.0093648 -0.177009E+03  0.956E-05    2.02       0.0  T
   2   -177.0093648 -0.199407E-09  0.620E-05    2.02     146.6  T
   3   -177.0093648 -0.167432E-09  0.414E-05    2.02     219.4  T
     SCC iter.                  ...        0 min,  0.060 sec
     gradient                   ...        0 min,  0.023 sec
 * total energy  :  -173.9279403 Eh     change       -0.8886730E-08 Eh
   gradient norm :     0.2297681 Eh/α   predicted     0.0000000E+00 (-100.00%)
   displ. norm   :     0.5149725 α      lambda       -0.7344775E-01
   maximum displ.:     0.1538660 α      in ANC's #79, #50, #83, ...

........................................................................
.............................. CYCLE    2 ..............................
........................................................................

 iter      E             dE          RMSdq      gap      omega  full diag
   1   -177.0328160 -0.177033E+03  0.232E-01    1.96       0.0  T
   2   -177.0332938 -0.477847E-03  0.143E-01    2.01       1.0  T
   3   -177.0328248  0.469004E-03  0.750E-02    1.94       1.0  T
   4   -177.0334408 -0.615942E-03  0.199E-02    2.00       1.0  T
   5   -177.0334993 -0.585715E-04  0.579E-03    1.99       1.6  T
   6   -177.0335018 -0.243135E-05  0.284E-03    1.99       3.2  T
   7   -177.0335020 -0.268615E-06  0.110E-03    1.99       8.3  T
   8   -177.0335021 -0.827677E-07  0.447E-04    1.99      20.3  T
   9   -177.0335021 -0.129005E-07  0.203E-04    1.99      44.8  T
     SCC iter.                  ...        0 min,  0.161 sec
     gradient                   ...        0 min,  0.022 sec
 * total energy  :  -173.9822512 Eh     change       -0.5431091E-01 Eh
   gradient norm :     0.1018371 Eh/α   predicted    -0.4653056E-01 ( -14.33%)
   displ. norm   :     0.5510735 α      lambda       -0.3182915E-01
   maximum displ.:     0.2060959 α      in ANC's #50, #25, #83, ...

........................................................................
.............................. CYCLE    3 ..............................
........................................................................

 iter      E             dE          RMSdq      gap      omega  full diag
   1   -177.0340825 -0.177034E+03  0.190E-01    1.94       0.0  T
   2   -177.0343159 -0.233393E-03  0.118E-01    1.97       1.0  T
   3   -177.0339418  0.374104E-03  0.613E-02    1.93       1.0  T
   4   -177.0344137 -0.471845E-03  0.131E-02    1.96       1.0  T
   5   -177.0344371 -0.234674E-04  0.453E-03    1.96       2.0  T
   6   -177.0344387 -0.160035E-05  0.217E-03    1.96       4.2  T
   7   -177.0344389 -0.199126E-06  0.850E-04    1.96      10.7  T
   8   -177.0344390 -0.433874E-07  0.405E-04    1.96      22.4  T
     SCC iter.                  ...        0 min,  0.141 sec
     gradient                   ...        0 min,  0.023 sec
 * total energy  :  -174.0038369 Eh     change       -0.2158575E-01 Eh
   gradient norm :     0.0287729 Eh/α   predicted    -0.2074755E-01 (  -3.88%)
   displ. norm   :     0.6070868 α      lambda       -0.1183892E-01
   maximum displ.:     0.2523013 α      in ANC's #25, #50, #39, ...

........................................................................
.............................. CYCLE    4 ..............................
........................................................................

 iter      E             dE          RMSdq      gap      omega  full diag
   1   -177.0207634 -0.177021E+03  0.114E-01    1.93       0.0  T
   2   -177.0208009 -0.374708E-04  0.709E-02    1.94       1.0  T
   3   -177.0206472  0.153697E-03  0.339E-02    1.93       1.0  T
   4   -177.0208270 -0.179842E-03  0.512E-03    1.93       1.8  T
   5   -177.0208294 -0.238068E-05  0.246E-03    1.94       3.7  T
   6   -177.0208300 -0.524556E-06  0.109E-03    1.94       8.3  T
   7   -177.0208300 -0.876169E-07  0.398E-04    1.94      22.8  T
   8   -177.0208300 -0.783939E-08  0.212E-04    1.94      43.0  T
     SCC iter.                  ...        0 min,  0.140 sec
     gradient                   ...        0 min,  0.024 sec
 * total energy  :  -174.0128934 Eh     change       -0.9056510E-02 Eh
   gradient norm :     0.0169642 Eh/α   predicted    -0.8101106E-02 ( -10.55%)
   displ. norm   :     0.6417329 α      lambda       -0.7075213E-02
   maximum displ.:     0.2411931 α      in ANC's #39, #25, #11, ...

........................................................................
.............................. CYCLE    5 ..............................
........................................................................

 iter      E             dE          RMSdq      gap      omega  full diag
   1   -177.0132469 -0.177013E+03  0.950E-02    1.92       0.0  T
   2   -177.0132655 -0.186346E-04  0.580E-02    1.92       1.0  T
   3   -177.0131708  0.947787E-04  0.261E-02    1.92       1.0  T
   4   -177.0132795 -0.108790E-03  0.358E-03    1.92       2.5  T
   5   -177.0132808 -0.120893E-05  0.186E-03    1.92       4.9  T
   6   -177.0132811 -0.348810E-06  0.765E-04    1.92      11.9  T
   7   -177.0132811 -0.325255E-07  0.303E-04    1.92      30.0  T
     SCC iter.                  ...        0 min,  0.120 sec
     gradient                   ...        0 min,  0.023 sec
 * total energy  :  -174.0184464 Eh     change       -0.5552998E-02 Eh
   gradient norm :     0.0137054 Eh/α   predicted    -0.4994469E-02 ( -10.06%)
   displ. norm   :     0.6602875 α      lambda       -0.4719790E-02
   maximum displ.:     0.2953452 α      in ANC's #11, #39, #25, ...

........................................................................
.............................. CYCLE    6 ..............................
........................................................................

 iter      E             dE          RMSdq      gap      omega  full diag
   1   -177.0143615 -0.177014E+03  0.817E-02    1.91       0.0  T
   2   -177.0143711 -0.962277E-05  0.492E-02    1.91       1.0  T
   3   -177.0143142  0.569442E-04  0.198E-02    1.90       1.0  T
   4   -177.0143783 -0.641641E-04  0.266E-03    1.90       3.4  T
   5   -177.0143791 -0.755769E-06  0.139E-03    1.90       6.6  T
   6   -177.0143793 -0.191662E-06  0.560E-04    1.90      16.2  T
   7   -177.0143793 -0.123152E-07  0.234E-04    1.90      38.9  T
     SCC iter.                  ...        0 min,  0.120 sec
     gradient                   ...        0 min,  0.023 sec
 * total energy  :  -174.0222632 Eh     change       -0.3816735E-02 Eh
   gradient norm :     0.0128592 Eh/α   predicted    -0.3388763E-02 ( -11.21%)
   displ. norm   :     0.6737722 α      lambda       -0.3571037E-02
   maximum displ.:     0.3500103 α      in ANC's #11, #39, #31, ...

........................................................................
.............................. CYCLE    7 ..............................
........................................................................

 iter      E             dE          RMSdq      gap      omega  full diag
   1   -177.0201144 -0.177020E+03  0.756E-02    1.90       0.0  T
   2   -177.0201205 -0.611718E-05  0.451E-02    1.90       1.0  T
   3   -177.0200870  0.335152E-04  0.152E-02    1.89       1.0  T
   4   -177.0201244 -0.373352E-04  0.221E-03    1.89       4.1  T
   5   -177.0201249 -0.562280E-06  0.112E-03    1.89       8.1  T
   6   -177.0201250 -0.114729E-06  0.475E-04    1.89      19.1  T
   7   -177.0201250 -0.722471E-08  0.190E-04    1.89      47.8  T
     SCC iter.                  ...        0 min,  0.120 sec
     gradient                   ...        0 min,  0.023 sec
 * total energy  :  -174.0252181 Eh     change       -0.2954955E-02 Eh
   gradient norm :     0.0116610 Eh/α   predicted    -0.2596112E-02 ( -12.14%)
   displ. norm   :     0.6768443 α      lambda       -0.2890688E-02
   maximum displ.:     0.3857376 α      in ANC's #11, #39, #24, ...

........................................................................
.............................. CYCLE    8 ..............................
........................................................................

 iter      E             dE          RMSdq      gap      omega  full diag
   1   -177.0269792 -0.177027E+03  0.731E-02    1.89       0.0  T
   2   -177.0269838 -0.454004E-05  0.434E-02    1.89       1.0  T
   3   -177.0269671  0.166955E-04  0.113E-02    1.88       1.0  T
   4   -177.0269857 -0.186253E-04  0.193E-03    1.88       4.7  T
   5   -177.0269861 -0.399831E-06  0.989E-04    1.88       9.2  T
   6   -177.0269862 -0.870285E-07  0.440E-04    1.88      20.7  T
     SCC iter.                  ...        0 min,  0.103 sec
     gradient                   ...        0 min,  0.023 sec
 * total energy  :  -174.0276323 Eh     change       -0.2414233E-02 Eh
   gradient norm :     0.0108177 Eh/α   predicted    -0.2107503E-02 ( -12.71%)
   displ. norm   :     0.6714043 α      lambda       -0.2387462E-02
   maximum displ.:     0.4110687 α      in ANC's #11, #39, #24, ...

........................................................................
.............................. CYCLE    9 ..............................
........................................................................

 iter      E             dE          RMSdq      gap      omega  full diag
   1   -177.0327538 -0.177033E+03  0.717E-02    1.88       0.0  T
   2   -177.0327573 -0.350099E-05  0.424E-02    1.88       1.0  T
   3   -177.0327500  0.734185E-05  0.828E-03    1.87       1.1  T
   4   -177.0327585 -0.848930E-05  0.159E-03    1.87       5.7  T
   5   -177.0327587 -0.181014E-06  0.874E-04    1.88      10.4  T
   6   -177.0327587 -0.663896E-07  0.410E-04    1.88      22.1  T
     SCC iter.                  ...        0 min,  0.102 sec
     gradient                   ...        0 min,  0.023 sec
 * total energy  :  -174.0296213 Eh     change       -0.1988910E-02 Eh
   gradient norm :     0.0105728 Eh/α   predicted    -0.1731857E-02 ( -12.92%)
   displ. norm   :     0.6588352 α      lambda       -0.1956608E-02
   maximum displ.:     0.4234487 α      in ANC's #11, #39, #24, ...

........................................................................
.............................. CYCLE   10 ..............................
........................................................................

 iter      E             dE          RMSdq      gap      omega  full diag
   1   -177.0358795 -0.177036E+03  0.694E-02    1.88       0.0  T
   2   -177.0358821 -0.260735E-05  0.410E-02    1.87       1.0  T
   3   -177.0358780  0.408123E-05  0.651E-03    1.87       1.4  T
   4   -177.0358830 -0.500394E-05  0.131E-03    1.87       7.0  T
   5   -177.0358831 -0.574657E-07  0.687E-04    1.87      13.2  T
   6   -177.0358831 -0.245347E-07  0.347E-04    1.87      26.2  T
     SCC iter.                  ...        0 min,  0.104 sec
     gradient                   ...        0 min,  0.024 sec
 * total energy  :  -174.0312422 Eh     change       -0.1620965E-02 Eh
   gradient norm :     0.0098026 Eh/α   predicted    -0.1402952E-02 ( -13.45%)
   displ. norm   :     0.6440704 α      lambda       -0.1613186E-02
   maximum displ.:     0.4324819 α      in ANC's #11, #39, #7, ...

........................................................................
.............................. CYCLE   11 ..............................
........................................................................

 iter      E             dE          RMSdq      gap      omega  full diag
   1   -177.0382068 -0.177038E+03  0.665E-02    1.87       0.0  T
   2   -177.0382092 -0.236301E-05  0.394E-02    1.87       1.0  T
   3   -177.0382051  0.405574E-05  0.600E-03    1.87       1.5  T
   4   -177.0382101 -0.491139E-05  0.127E-03    1.87       7.2  T
   5   -177.0382101 -0.727309E-07  0.596E-04    1.87      15.3  T
   6   -177.0382101 -0.569281E-08  0.273E-04    1.87      33.3  T
     SCC iter.                  ...        0 min,  0.104 sec
     gradient                   ...        0 min,  0.023 sec
 * total energy  :  -174.0325595 Eh     change       -0.1317238E-02 Eh
   gradient norm :     0.0088124 Eh/α   predicted    -0.1141191E-02 ( -13.36%)
   displ. norm   :     0.6578735 α      lambda       -0.1381962E-02
   maximum displ.:     0.4316631 α      in ANC's #11, #39, #7, ...

........................................................................
.............................. CYCLE   12 ..............................
........................................................................

 iter      E             dE          RMSdq      gap      omega  full diag
   1   -177.0353767 -0.177035E+03  0.672E-02    1.87       0.0  T
   2   -177.0353804 -0.372412E-05  0.398E-02    1.87       1.0  T
   3   -177.0353759  0.449985E-05  0.619E-03    1.86       1.5  T
   4   -177.0353812 -0.536218E-05  0.174E-03    1.87       5.2  T
   5   -177.0353815 -0.238364E-06  0.718E-04    1.87      12.7  T
   6   -177.0353815 -0.241812E-09  0.350E-04    1.87      26.0  T
     SCC iter.                  ...        0 min,  0.103 sec
     gradient                   ...        0 min,  0.023 sec
 * total energy  :  -174.0335906 Eh     change       -0.1031176E-02 Eh
   gradient norm :     0.0097663 Eh/α   predicted    -0.9900382E-03 (  -3.99%)
   displ. norm   :     0.6189607 α      lambda       -0.1317421E-02
   maximum displ.:     0.4203419 α      in ANC's #11, #39, #7, ...

........................................................................
.............................. CYCLE   13 ..............................
........................................................................

 iter      E             dE          RMSdq      gap      omega  full diag
   1   -177.0416203 -0.177042E+03  0.677E-02    1.87       0.0  T
   2   -177.0416275 -0.720287E-05  0.399E-02    1.87       1.0  T
   3   -177.0416220  0.549534E-05  0.717E-03    1.87       1.3  T
   4   -177.0416283 -0.629674E-05  0.241E-03    1.87       3.8  T
   5   -177.0416289 -0.644256E-06  0.890E-04    1.87      10.2  T
   6   -177.0416289  0.134115E-07  0.465E-04    1.87      19.6  T
     SCC iter.                  ...        0 min,  0.101 sec
     gradient                   ...        0 min,  0.023 sec
 * total energy  :  -174.0344126 Eh     change       -0.8219231E-03 Eh
   gradient norm :     0.0110604 Eh/α   predicted    -0.9110721E-03 (  10.85%)
   displ. norm   :     0.5578341 α      lambda       -0.8346555E-03
   maximum displ.:     0.3398618 α      in ANC's #11, #39, #7, ...

........................................................................
.............................. CYCLE   14 ..............................
........................................................................

 iter      E             dE          RMSdq      gap      omega  full diag
   1   -177.0320899 -0.177032E+03  0.603E-02    1.87       0.0  T
   2   -177.0320993 -0.940205E-05  0.354E-02    1.87       1.0  T
   3   -177.0320968  0.257236E-05  0.618E-03    1.87       1.5  T
   4   -177.0320995 -0.271458E-05  0.268E-03    1.87       3.4  T
   5   -177.0321004 -0.937887E-06  0.881E-04    1.87      10.3  T
   6   -177.0321004  0.607724E-08  0.458E-04    1.87      19.9  T
     SCC iter.                  ...        0 min,  0.101 sec
     gradient                   ...        0 min,  0.023 sec
 * total energy  :  -174.0348605 Eh     change       -0.4479756E-03 Eh
   gradient norm :     0.0153297 Eh/α   predicted    -0.5471922E-03 (  22.15%)
   displ. norm   :     0.4263439 α      lambda       -0.1255944E-02
   maximum displ.:     0.2145537 α      in ANC's #11, #7, #30, ...

........................................................................
.............................. CYCLE   15 ..............................
........................................................................

 iter      E             dE          RMSdq      gap      omega  full diag
   1   -177.0414318 -0.177041E+03  0.660E-02    1.87       0.0  T
   2   -177.0414504 -0.185302E-04  0.379E-02    1.87       1.0  T
   3   -177.0414490  0.132217E-05  0.815E-03    1.87       1.1  T
   4   -177.0414510 -0.193893E-05  0.319E-03    1.87       2.9  T
   5   -177.0414522 -0.116742E-05  0.128E-03    1.87       7.1  T
   6   -177.0414521  0.100116E-07  0.555E-04    1.87      16.4  T
   7   -177.0414522 -0.447603E-07  0.128E-04    1.87      70.8  T
     SCC iter.                  ...        0 min,  0.119 sec
     gradient                   ...        0 min,  0.023 sec
 * total energy  :  -174.0352074 Eh     change       -0.3468685E-03 Eh
   gradient norm :     0.0140596 Eh/α   predicted    -0.7421183E-03 ( 113.95%)
   displ. norm   :     0.2551524 α      lambda       -0.7385931E-03
   maximum displ.:     0.1337493 α      in ANC's #11, #7, #39, ...

........................................................................
.............................. CYCLE   16 ..............................
........................................................................

 iter      E             dE          RMSdq      gap      omega  full diag
   1   -177.0412937 -0.177041E+03  0.364E-02    1.87       0.0  T
   2   -177.0413026 -0.890697E-05  0.205E-02    1.87       1.0  T
   3   -177.0413029 -0.318469E-06  0.533E-03    1.87       1.7  T
   4   -177.0413032 -0.237759E-06  0.141E-03    1.87       6.4  T
   5   -177.0413032 -0.905015E-07  0.807E-04    1.87      11.3  T
   6   -177.0413033 -0.177245E-07  0.231E-04    1.87      39.3  T
     SCC iter.                  ...        0 min,  0.101 sec
     gradient                   ...        0 min,  0.023 sec
 * total energy  :  -174.0356215 Eh     change       -0.4141259E-03 Eh
   gradient norm :     0.0105225 Eh/α   predicted    -0.3933427E-03 (  -5.02%)
   displ. norm   :     0.2717725 α      lambda       -0.8346222E-03
   maximum displ.:     0.0936526 α      in ANC's #7, #22, #35, ...

........................................................................
.............................. CYCLE   17 ..............................
........................................................................

 iter      E             dE          RMSdq      gap      omega  full diag
   1   -177.0429988 -0.177043E+03  0.550E-02    1.87       0.0  T
   2   -177.0430259 -0.271139E-04  0.306E-02    1.87       1.0  T
   3   -177.0430267 -0.753520E-06  0.913E-03    1.87       1.0  T
   4   -177.0430273 -0.589617E-06  0.257E-03    1.87       3.5  T
   5   -177.0430277 -0.423389E-06  0.136E-03    1.87       6.7  T
   6   -177.0430277 -0.265962E-07  0.526E-04    1.87      17.3  T
   7   -177.0430277 -0.275438E-07  0.168E-04    1.87      54.2  T
     SCC iter.                  ...        0 min,  0.123 sec
     gradient                   ...        0 min,  0.024 sec
 * total energy  :  -174.0353617 Eh     change        0.2598732E-03 Eh
   gradient norm :     0.0223479 Eh/α   predicted    -0.4481367E-03 (-272.44%)
   displ. norm   :     0.1236811 α      lambda       -0.1160998E-02
   maximum displ.:     0.0821338 α      in ANC's #40, #7, #38, ...

........................................................................
.............................. CYCLE   18 ..............................
........................................................................

 iter      E             dE          RMSdq      gap      omega  full diag
   1   -177.0419881 -0.177042E+03  0.334E-02    1.87       0.0  T
   2   -177.0420029 -0.147871E-04  0.180E-02    1.87       1.0  T
   3   -177.0420035 -0.599083E-06  0.658E-03    1.87       1.4  T
   4   -177.0420037 -0.162542E-06  0.161E-03    1.87       5.6  T
   5   -177.0420038 -0.104836E-06  0.965E-04    1.87       9.4  T
   6   -177.0420038 -0.299600E-07  0.270E-04    1.87      33.6  T
     SCC iter.                  ...        0 min,  0.103 sec
     gradient                   ...        0 min,  0.023 sec
 * total energy  :  -174.0359805 Eh     change       -0.6187976E-03 Eh
   gradient norm :     0.0090729 Eh/α   predicted    -0.5893823E-03 (  -4.75%)
   displ. norm   :     0.1825688 α      lambda       -0.5440032E-03
   maximum displ.:     0.0733926 α      in ANC's #7, #40, #38, ...

........................................................................
.............................. CYCLE   19 ..............................
........................................................................

 iter      E             dE          RMSdq      gap      omega  full diag
   1   -177.0477018 -0.177048E+03  0.438E-02    1.87       0.0  T
   2   -177.0477228 -0.209374E-04  0.241E-02    1.87       1.0  T
   3   -177.0477235 -0.706162E-06  0.783E-03    1.87       1.2  T
   4   -177.0477237 -0.213982E-06  0.223E-03    1.87       4.1  T
   5   -177.0477240 -0.350145E-06  0.122E-03    1.87       7.5  T
   6   -177.0477241 -0.388390E-07  0.428E-04    1.87      21.2  T
   7   -177.0477241 -0.182579E-07  0.163E-04    1.87      55.9  T
     SCC iter.                  ...        0 min,  0.118 sec
     gradient                   ...        0 min,  0.023 sec
 * total energy  :  -174.0357130 Eh     change        0.2674472E-03 Eh
   gradient norm :     0.0205067 Eh/α   predicted    -0.2810681E-03 (-205.09%)
   displ. norm   :     0.1345312 α      lambda       -0.9608316E-03
   maximum displ.:     0.0747092 α      in ANC's #39, #7, #22, ...

........................................................................
.............................. CYCLE   20 ..............................
........................................................................

 iter      E             dE          RMSdq      gap      omega  full diag
   1   -177.0443932 -0.177044E+03  0.310E-02    1.87       0.0  T
   2   -177.0444047 -0.114308E-04  0.169E-02    1.87       1.0  T
   3   -177.0444051 -0.394673E-06  0.590E-03    1.86       1.5  T
   4   -177.0444052 -0.119976E-06  0.166E-03    1.86       5.5  T
   5   -177.0444054 -0.199630E-06  0.903E-04    1.86      10.1  T
   6   -177.0444054 -0.235223E-07  0.312E-04    1.86      29.2  T
     SCC iter.                  ...        0 min,  0.102 sec
     gradient                   ...        0 min,  0.023 sec
 * total energy  :  -174.0362387 Eh     change       -0.5257108E-03 Eh
   gradient norm :     0.0072366 Eh/α   predicted    -0.4891140E-03 (  -6.96%)
   displ. norm   :     0.2100830 α      lambda       -0.3795727E-03
   maximum displ.:     0.0923396 α      in ANC's #7, #45, #8, ...
 * RMSD in coord.:     0.6727771 α      energy gain  -0.1082985E+00 Eh

generating ANC from exact Hessian ...
Using Lindh-Hessian (1995)
 Shifting diagonal of input Hessian by   9.976244756146269E-003
 Lowest  eigenvalues of input Hessian
    0.000000    0.000000    0.000000    0.000000    0.000000    0.000000
    0.010000    0.010005    0.010008    0.010126    0.010221    0.010236
    0.010355    0.010363    0.010538    0.010639    0.010697    0.010805
 Highest eigenvalues
    2.119733    2.151319    2.163261    2.171752    2.174647    2.190116
 

........................................................................
.............................. CYCLE   21 ..............................
........................................................................

 iter      E             dE          RMSdq      gap      omega  full diag
   1   -177.0396986 -0.177040E+03  0.360E-02    1.86       0.0  T
   2   -177.0397080 -0.937834E-05  0.202E-02    1.86       1.0  T
   3   -177.0397082 -0.229964E-06  0.548E-03    1.86       1.7  T
   4   -177.0397084 -0.194756E-06  0.168E-03    1.86       5.4  T
   5   -177.0397087 -0.244946E-06  0.905E-04    1.86      10.1  T
   6   -177.0397087 -0.302328E-07  0.317E-04    1.86      28.7  T
     SCC iter.                  ...        0 min,  0.102 sec
     gradient                   ...        0 min,  0.022 sec
 * total energy  :  -174.0362193 Eh     change        0.1943493E-04 Eh
   gradient norm :     0.0132205 Eh/α   predicted     0.0000000E+00 (-100.00%)
   displ. norm   :     0.0911835 α      lambda       -0.4962872E-03
   maximum displ.:     0.0472482 α      in ANC's #39, #36, #9, ...

........................................................................
.............................. CYCLE   22 ..............................
........................................................................

 iter      E             dE          RMSdq      gap      omega  full diag
   1   -177.0433735 -0.177043E+03  0.211E-02    1.86       0.0  T
   2   -177.0433775 -0.398802E-05  0.118E-02    1.86       1.0  T
   3   -177.0433775 -0.647403E-07  0.370E-03    1.86       2.5  T
   4   -177.0433776 -0.997930E-07  0.122E-03    1.86       7.4  T
   5   -177.0433778 -0.157753E-06  0.594E-04    1.86      15.3  T
   6   -177.0433778 -0.624956E-08  0.243E-04    1.86      37.5  T
     SCC iter.                  ...        0 min,  0.102 sec
     gradient                   ...        0 min,  0.023 sec
 * total energy  :  -174.0365545 Eh     change       -0.3352226E-03 Eh
   gradient norm :     0.0034005 Eh/α   predicted    -0.2530286E-03 ( -24.52%)
   displ. norm   :     0.1369954 α      lambda       -0.2140040E-03
   maximum displ.:     0.0775639 α      in ANC's #39, #36, #8, ...

........................................................................
.............................. CYCLE   23 ..............................
........................................................................

 iter      E             dE          RMSdq      gap      omega  full diag
   1   -177.0449774 -0.177045E+03  0.157E-02    1.86       0.0  T
   2   -177.0449783 -0.886782E-06  0.916E-03    1.86       1.0  T
   3   -177.0449780  0.268915E-06  0.213E-03    1.86       4.3  T
   4   -177.0449783 -0.258796E-06  0.889E-04    1.86      10.2  T
   5   -177.0449784 -0.120793E-06  0.301E-04    1.86      30.2  T
     SCC iter.                  ...        0 min,  0.084 sec
     gradient                   ...        0 min,  0.023 sec
 * total energy  :  -174.0367173 Eh     change       -0.1627516E-03 Eh
   gradient norm :     0.0033222 Eh/α   predicted    -0.1090962E-03 ( -32.97%)
   displ. norm   :     0.2717944 α      lambda       -0.2813644E-03
   maximum displ.:     0.1534348 α      in ANC's #39, #36, #8, ...

........................................................................
.............................. CYCLE   24 ..............................
........................................................................

 iter      E             dE          RMSdq      gap      omega  full diag
   1   -177.0448671 -0.177045E+03  0.277E-02    1.86       0.0  T
   2   -177.0448682 -0.109096E-05  0.165E-02    1.86       1.0  T
   3   -177.0448673  0.875920E-06  0.289E-03    1.86       3.1  T
   4   -177.0448682 -0.924526E-06  0.102E-03    1.86       8.9  T
   5   -177.0448684 -0.150845E-06  0.376E-04    1.86      24.2  T
   6   -177.0448684 -0.395806E-08  0.217E-04    1.86      41.9  T
     SCC iter.                  ...        0 min,  0.100 sec
     gradient                   ...        0 min,  0.023 sec
 * total energy  :  -174.0369238 Eh     change       -0.2065194E-03 Eh
   gradient norm :     0.0073895 Eh/α   predicted    -0.1511597E-03 ( -26.81%)
   displ. norm   :     0.2953719 α      lambda       -0.2438832E-03
   maximum displ.:     0.1588241 α      in ANC's #39, #36, #8, ...

........................................................................
.............................. CYCLE   25 ..............................
........................................................................

 iter      E             dE          RMSdq      gap      omega  full diag
   1   -177.0432355 -0.177043E+03  0.292E-02    1.86       0.0  T
   2   -177.0432365 -0.974867E-06  0.174E-02    1.86       1.0  T
   3   -177.0432354  0.108215E-05  0.295E-03    1.86       3.1  T
   4   -177.0432366 -0.112332E-05  0.105E-03    1.85       8.6  T
   5   -177.0432367 -0.171709E-06  0.379E-04    1.86      24.0  T
   6   -177.0432367 -0.351432E-08  0.209E-04    1.85      43.4  T
     SCC iter.                  ...        0 min,  0.102 sec
     gradient                   ...        0 min,  0.022 sec
 * total energy  :  -174.0370863 Eh     change       -0.1625589E-03 Eh
   gradient norm :     0.0082022 Eh/α   predicted    -0.1325819E-03 ( -18.44%)
   displ. norm   :     0.1866529 α      lambda       -0.1999931E-03
   maximum displ.:     0.0806514 α      in ANC's #39, #8, #9, ...

........................................................................
.............................. CYCLE   26 ..............................
........................................................................

 iter      E             dE          RMSdq      gap      omega  full diag
   1   -177.0433872 -0.177043E+03  0.201E-02    1.85       0.0  T
   2   -177.0433882 -0.105789E-05  0.118E-02    1.85       1.0  T
   3   -177.0433879  0.330791E-06  0.220E-03    1.85       4.1  T
   4   -177.0433882 -0.322522E-06  0.980E-04    1.85       9.3  T
   5   -177.0433884 -0.145509E-06  0.347E-04    1.85      26.2  T
     SCC iter.                  ...        0 min,  0.084 sec
     gradient                   ...        0 min,  0.022 sec
 * total energy  :  -174.0372239 Eh     change       -0.1375550E-03 Eh
   gradient norm :     0.0033609 Eh/α   predicted    -0.1034924E-03 ( -24.76%)
   displ. norm   :     0.1769133 α      lambda       -0.8426009E-04
   maximum displ.:     0.0725118 α      in ANC's #8, #39, #7, ...

........................................................................
.............................. CYCLE   27 ..............................
........................................................................

 iter      E             dE          RMSdq      gap      omega  full diag
   1   -177.0437692 -0.177044E+03  0.184E-02    1.85       0.0  T
   2   -177.0437695 -0.310088E-06  0.109E-02    1.85       1.0  T
   3   -177.0437692  0.279228E-06  0.161E-03    1.85       5.6  T
   4   -177.0437696 -0.325546E-06  0.494E-04    1.85      18.4  T
   5   -177.0437696 -0.255826E-07  0.210E-04    1.85      43.3  T
     SCC iter.                  ...        0 min,  0.085 sec
     gradient                   ...        0 min,  0.023 sec
 * total energy  :  -174.0372842 Eh     change       -0.6033457E-04 Eh
   gradient norm :     0.0020887 Eh/α   predicted    -0.4344916E-04 ( -27.99%)
   displ. norm   :     0.1664756 α      lambda       -0.5569576E-04
   maximum displ.:     0.0750689 α      in ANC's #8, #7, #5, ...

........................................................................
.............................. CYCLE   28 ..............................
........................................................................

 iter      E             dE          RMSdq      gap      omega  full diag
   1   -177.0446081 -0.177045E+03  0.183E-02    1.85       0.0  T
   2   -177.0446083 -0.169251E-06  0.108E-02    1.85       1.0  T
   3   -177.0446081  0.148854E-06  0.120E-03    1.85       7.6  T
   4   -177.0446083 -0.188942E-06  0.345E-04    1.85      26.3  T
   5   -177.0446083 -0.924356E-08  0.168E-04    1.85      54.1  T
     SCC iter.                  ...        0 min,  0.086 sec
     gradient                   ...        0 min,  0.022 sec
 * total energy  :  -174.0373266 Eh     change       -0.4242306E-04 Eh
   gradient norm :     0.0022084 Eh/α   predicted    -0.2862017E-04 ( -32.54%)
   displ. norm   :     0.2137532 α      lambda       -0.5457867E-04
   maximum displ.:     0.0970683 α      in ANC's #8, #7, #5, ...

........................................................................
.............................. CYCLE   29 ..............................
........................................................................

 iter      E             dE          RMSdq      gap      omega  full diag
   1   -177.0449320 -0.177045E+03  0.240E-02    1.85       0.0  T
   2   -177.0449322 -0.144114E-06  0.142E-02    1.85       1.0  T
   3   -177.0449321  0.111174E-06  0.115E-03    1.85       7.9  T
   4   -177.0449322 -0.168515E-06  0.350E-04    1.85      26.0  T
   5   -177.0449322 -0.400877E-08  0.194E-04    1.85      46.8  T
     SCC iter.                  ...        0 min,  0.086 sec
     gradient                   ...        0 min,  0.023 sec
 * total energy  :  -174.0373679 Eh     change       -0.4129139E-04 Eh
   gradient norm :     0.0020682 Eh/α   predicted    -0.2853927E-04 ( -30.88%)
   displ. norm   :     0.2233630 α      lambda       -0.6354789E-04
   maximum displ.:     0.1076235 α      in ANC's #8, #7, #5, ...

........................................................................
.............................. CYCLE   30 ..............................
........................................................................

 iter      E             dE          RMSdq      gap      omega  full diag
   1   -177.0468340 -0.177047E+03  0.281E-02    1.85       0.0  T
   2   -177.0468345 -0.531017E-06  0.165E-02    1.85       1.0  T
   3   -177.0468345  0.340228E-07  0.117E-03    1.85       7.7  T
   4   -177.0468346 -0.103287E-06  0.493E-04    1.85      18.4  T
   5   -177.0468346 -0.188200E-07  0.238E-04    1.85      38.2  T
     SCC iter.                  ...        0 min,  0.085 sec
     gradient                   ...        0 min,  0.023 sec
 * total energy  :  -174.0374052 Eh     change       -0.3730848E-04 Eh
   gradient norm :     0.0036230 Eh/α   predicted    -0.3336398E-04 ( -10.57%)
   displ. norm   :     0.2458318 α      lambda       -0.5713575E-04
   maximum displ.:     0.1140277 α      in ANC's #8, #7, #5, ...

........................................................................
.............................. CYCLE   31 ..............................
........................................................................

 iter      E             dE          RMSdq      gap      omega  full diag
   1   -177.0458239 -0.177046E+03  0.287E-02    1.85       0.0  T
   2   -177.0458243 -0.446905E-06  0.169E-02    1.85       1.0  T
   3   -177.0458242  0.983931E-07  0.128E-03    1.85       7.1  T
   4   -177.0458244 -0.153987E-06  0.592E-04    1.85      15.3  T
   5   -177.0458244 -0.384587E-07  0.263E-04    1.85      34.6  T
     SCC iter.                  ...        0 min,  0.087 sec
     gradient                   ...        0 min,  0.023 sec
 * total energy  :  -174.0374442 Eh     change       -0.3899739E-04 Eh
   gradient norm :     0.0019924 Eh/α   predicted    -0.3029631E-04 ( -22.31%)
   displ. norm   :     0.2758920 α      lambda       -0.4830399E-04
   maximum displ.:     0.1277066 α      in ANC's #8, #7, #6, ...

........................................................................
.............................. CYCLE   32 ..............................
........................................................................

 iter      E             dE          RMSdq      gap      omega  full diag
   1   -177.0456711 -0.177046E+03  0.326E-02    1.85       0.0  T
   2   -177.0456714 -0.297388E-06  0.192E-02    1.85       1.0  T
   3   -177.0456712  0.233091E-06  0.162E-03    1.84       5.6  T
   4   -177.0456715 -0.346046E-06  0.432E-04    1.84      21.1  T
   5   -177.0456715 -0.719245E-08  0.221E-04    1.84      41.1  T
     SCC iter.                  ...        0 min,  0.086 sec
     gradient                   ...        0 min,  0.023 sec
 * total energy  :  -174.0375022 Eh     change       -0.5792373E-04 Eh
   gradient norm :     0.0021312 Eh/α   predicted    -0.2499845E-04 ( -56.84%)
   displ. norm   :     0.2268789 α      lambda       -0.7431018E-04
   maximum displ.:     0.0945207 α      in ANC's #8, #7, #6, ...

........................................................................
.............................. CYCLE   33 ..............................
........................................................................

 iter      E             dE          RMSdq      gap      omega  full diag
   1   -177.0458210 -0.177046E+03  0.255E-02    1.85       0.0  T
   2   -177.0458212 -0.225349E-06  0.150E-02    1.84       1.0  T
   3   -177.0458210  0.209613E-06  0.150E-03    1.84       6.1  T
   4   -177.0458213 -0.290133E-06  0.411E-04    1.84      22.1  T
   5   -177.0458213 -0.732328E-08  0.223E-04    1.84      40.7  T
     SCC iter.                  ...        0 min,  0.089 sec
     gradient                   ...        0 min,  0.023 sec
 * total energy  :  -174.0375598 Eh     change       -0.5767889E-04 Eh
   gradient norm :     0.0021836 Eh/α   predicted    -0.3907156E-04 ( -32.26%)
   displ. norm   :     0.3013838 α      lambda       -0.6622606E-04
   maximum displ.:     0.1326873 α      in ANC's #8, #7, #6, ...

........................................................................
.............................. CYCLE   34 ..............................
........................................................................

 iter      E             dE          RMSdq      gap      omega  full diag
   1   -177.0447840 -0.177045E+03  0.333E-02    1.84       0.0  T
   2   -177.0447843 -0.338248E-06  0.196E-02    1.84       1.0  T
   3   -177.0447840  0.299881E-06  0.180E-03    1.84       5.1  T
   4   -177.0447845 -0.424707E-06  0.548E-04    1.84      16.6  T
   5   -177.0447845 -0.139578E-07  0.309E-04    1.84      29.4  T
     SCC iter.                  ...        0 min,  0.089 sec
     gradient                   ...        0 min,  0.023 sec
 * total energy  :  -174.0376067 Eh     change       -0.4685517E-04 Eh
   gradient norm :     0.0024296 Eh/α   predicted    -0.3612377E-04 ( -22.90%)
   displ. norm   :     0.2181915 α      lambda       -0.3865954E-04
   maximum displ.:     0.0996057 α      in ANC's #8, #7, #6, ...

........................................................................
.............................. CYCLE   35 ..............................
........................................................................

 iter      E             dE          RMSdq      gap      omega  full diag
   1   -177.0446814 -0.177045E+03  0.242E-02    1.84       0.0  T
   2   -177.0446816 -0.207063E-06  0.142E-02    1.84       1.0  T
   3   -177.0446814  0.212450E-06  0.140E-03    1.84       6.5  T
   4   -177.0446817 -0.276300E-06  0.451E-04    1.84      20.1  T
   5   -177.0446817 -0.165894E-07  0.243E-04    1.84      37.3  T
     SCC iter.                  ...        0 min,  0.090 sec
     gradient                   ...        0 min,  0.023 sec
 * total energy  :  -174.0376378 Eh     change       -0.3109993E-04 Eh
   gradient norm :     0.0017979 Eh/α   predicted    -0.2025077E-04 ( -34.88%)
   displ. norm   :     0.3977537 α      lambda       -0.4731043E-04
   maximum displ.:     0.1858773 α      in ANC's #8, #7, #6, ...

........................................................................
.............................. CYCLE   36 ..............................
........................................................................

 iter      E             dE          RMSdq      gap      omega  full diag
   1   -177.0452250 -0.177045E+03  0.448E-02    1.84       0.0  T
   2   -177.0452259 -0.847521E-06  0.263E-02    1.83       1.0  T
   3   -177.0452244  0.146173E-05  0.324E-03    1.83       2.8  T
   4   -177.0452261 -0.170822E-05  0.943E-04    1.83       9.6  T
   5   -177.0452262 -0.975376E-07  0.472E-04    1.83      19.3  T
   6   -177.0452262 -0.774307E-08  0.232E-04    1.83      39.2  T
     SCC iter.                  ...        0 min,  0.106 sec
     gradient                   ...        0 min,  0.023 sec
 * total energy  :  -174.0376851 Eh     change       -0.4729736E-04 Eh
   gradient norm :     0.0017514 Eh/α   predicted    -0.2531989E-04 ( -46.47%)
   displ. norm   :     0.3079679 α      lambda       -0.2689926E-04
   maximum displ.:     0.1470070 α      in ANC's #8, #7, #6, ...

........................................................................
.............................. CYCLE   37 ..............................
........................................................................

 iter      E             dE          RMSdq      gap      omega  full diag
   1   -177.0451388 -0.177045E+03  0.347E-02    1.83       0.0  T
   2   -177.0451392 -0.392165E-06  0.204E-02    1.83       1.0  T
   3   -177.0451382  0.999905E-06  0.259E-03    1.83       3.5  T
   4   -177.0451393 -0.117262E-05  0.630E-04    1.83      14.4  T
   5   -177.0451394 -0.333704E-07  0.341E-04    1.83      26.7  T
   6   -177.0451394 -0.449509E-08  0.153E-04    1.83      59.5  T
     SCC iter.                  ...        0 min,  0.106 sec
     gradient                   ...        0 min,  0.023 sec
 * total energy  :  -174.0377179 Eh     change       -0.3275478E-04 Eh
   gradient norm :     0.0017704 Eh/α   predicted    -0.1402102E-04 ( -57.19%)
   displ. norm   :     0.4075040 α      lambda       -0.4493356E-04
   maximum displ.:     0.1905535 α      in ANC's #7, #8, #6, ...

........................................................................
.............................. CYCLE   38 ..............................
........................................................................

 iter      E             dE          RMSdq      gap      omega  full diag
   1   -177.0470994 -0.177047E+03  0.460E-02    1.83       0.0  T
   2   -177.0471001 -0.703422E-06  0.271E-02    1.82       1.0  T
   3   -177.0470977  0.232466E-05  0.387E-03    1.82       2.4  T
   4   -177.0471004 -0.268778E-05  0.853E-04    1.82      10.7  T
   5   -177.0471005 -0.511505E-07  0.482E-04    1.82      18.9  T
   6   -177.0471005 -0.995203E-08  0.214E-04    1.82      42.5  T
     SCC iter.                  ...        0 min,  0.106 sec
     gradient                   ...        0 min,  0.022 sec
 * total energy  :  -174.0377668 Eh     change       -0.4895450E-04 Eh
   gradient norm :     0.0022368 Eh/α   predicted    -0.2412985E-04 ( -50.71%)
   displ. norm   :     0.3610821 α      lambda       -0.4450940E-04
   maximum displ.:     0.1719709 α      in ANC's #8, #7, #6, ...

........................................................................
.............................. CYCLE   39 ..............................
........................................................................

 iter      E             dE          RMSdq      gap      omega  full diag
   1   -177.0455083 -0.177046E+03  0.403E-02    1.82       0.0  T
   2   -177.0455088 -0.565177E-06  0.237E-02    1.82       1.0  T
   3   -177.0455076  0.125152E-05  0.300E-03    1.82       3.0  T
   4   -177.0455090 -0.146681E-05  0.758E-04    1.82      12.0  T
   5   -177.0455091 -0.564773E-07  0.394E-04    1.82      23.0  T
   6   -177.0455091 -0.498082E-08  0.192E-04    1.82      47.2  T
     SCC iter.                  ...        0 min,  0.106 sec
     gradient                   ...        0 min,  0.023 sec
 * total energy  :  -174.0378014 Eh     change       -0.3459455E-04 Eh
   gradient norm :     0.0016546 Eh/α   predicted    -0.2515749E-04 ( -27.28%)
   displ. norm   :     0.4713038 α      lambda       -0.4155779E-04
   maximum displ.:     0.2253172 α      in ANC's #7, #6, #8, ...

........................................................................
.............................. CYCLE   40 ..............................
........................................................................

 iter      E             dE          RMSdq      gap      omega  full diag
   1   -177.0457185 -0.177046E+03  0.517E-02    1.82       0.0  T
   2   -177.0457195 -0.974966E-06  0.304E-02    1.81       1.0  T
   3   -177.0457176  0.192962E-05  0.359E-03    1.81       2.5  T
   4   -177.0457198 -0.225166E-05  0.102E-03    1.81       8.9  T
   5   -177.0457199 -0.114367E-06  0.491E-04    1.81      18.5  T
   6   -177.0457199 -0.408025E-08  0.247E-04    1.81      36.9  T
     SCC iter.                  ...        0 min,  0.104 sec
     gradient                   ...        0 min,  0.023 sec
 * total energy  :  -174.0378397 Eh     change       -0.3830834E-04 Eh
   gradient norm :     0.0025392 Eh/α   predicted    -0.2283142E-04 ( -40.40%)
   displ. norm   :     0.1576005 α      lambda       -0.2145624E-04
   maximum displ.:     0.0776665 α      in ANC's #6, #7, #8, ...

........................................................................
.............................. CYCLE   41 ..............................
........................................................................

 iter      E             dE          RMSdq      gap      omega  full diag
   1   -177.0457168 -0.177046E+03  0.172E-02    1.81       0.0  T
   2   -177.0457169 -0.865208E-07  0.101E-02    1.81       1.0  T
   3   -177.0457168  0.135240E-06  0.102E-03    1.81       8.9  T
   4   -177.0457169 -0.170438E-06  0.296E-04    1.81      30.7  T
   5   -177.0457170 -0.678696E-08  0.157E-04    1.81      57.8  T
     SCC iter.                  ...        0 min,  0.090 sec
     gradient                   ...        0 min,  0.023 sec
 * total energy  :  -174.0378579 Eh     change       -0.1815638E-04 Eh
   gradient norm :     0.0018144 Eh/α   predicted    -0.1099802E-04 ( -39.43%)
   displ. norm   :     0.3509600 α      lambda       -0.4311098E-04
   maximum displ.:     0.1823259 α      in ANC's #6, #7, #8, ...

........................................................................
.............................. CYCLE   42 ..............................
........................................................................

 iter      E             dE          RMSdq      gap      omega  full diag
   1   -177.0484169 -0.177048E+03  0.382E-02    1.81       0.0  T
   2   -177.0484174 -0.471131E-06  0.225E-02    1.81       1.0  T
   3   -177.0484162  0.110896E-05  0.283E-03    1.81       3.2  T
   4   -177.0484176 -0.132421E-05  0.662E-04    1.81      13.7  T
   5   -177.0484176 -0.298479E-07  0.368E-04    1.81      24.7  T
   6   -177.0484176 -0.453565E-08  0.163E-04    1.81      55.9  T
     SCC iter.                  ...        0 min,  0.108 sec
     gradient                   ...        0 min,  0.023 sec
 * total energy  :  -174.0378923 Eh     change       -0.3442569E-04 Eh
   gradient norm :     0.0020575 Eh/α   predicted    -0.2273953E-04 ( -33.95%)
   displ. norm   :     0.2071647 α      lambda       -0.2090489E-04
   maximum displ.:     0.1046454 α      in ANC's #6, #7, #8, ...
 * RMSD in coord.:     0.4382931 α      energy gain  -0.1653577E-02 Eh

generating ANC from exact Hessian ...
Using Lindh-Hessian (1995)
 Shifting diagonal of input Hessian by   9.980942004136349E-003
 Lowest  eigenvalues of input Hessian
    0.000000    0.000000    0.000000    0.000000    0.000000    0.000000
    0.010000    0.010010    0.010013    0.010126    0.010215    0.010225
    0.010364    0.010369    0.010591    0.010684    0.010724    0.010818
 Highest eigenvalues
    2.121218    2.157587    2.164771    2.171932    2.172346    2.188741
 

........................................................................
.............................. CYCLE   43 ..............................
........................................................................

 iter      E             dE          RMSdq      gap      omega  full diag
   1   -177.0464000 -0.177046E+03  0.227E-02    1.81       0.0  T
   2   -177.0464001 -0.137705E-06  0.134E-02    1.81       1.0  T
   3   -177.0463999  0.243374E-06  0.164E-03    1.81       5.5  T
   4   -177.0464002 -0.310846E-06  0.324E-04    1.81      28.0  T
   5   -177.0464002 -0.393806E-08  0.202E-04    1.81      45.0  T
     SCC iter.                  ...        0 min,  0.082 sec
     gradient                   ...        0 min,  0.023 sec
 * total energy  :  -174.0379077 Eh     change       -0.1542613E-04 Eh
   gradient norm :     0.0015537 Eh/α   predicted     0.0000000E+00 (-100.00%)
   displ. norm   :     0.0342229 α      lambda       -0.2502547E-05
   maximum displ.:     0.0112208 α      in ANC's #9, #6, #39, ...

........................................................................
.............................. CYCLE   44 ..............................
........................................................................

 iter      E             dE          RMSdq      gap      omega  full diag
   1   -177.0470111 -0.177047E+03  0.525E-03    1.81       0.0  T
   2   -177.0470112 -0.619967E-07  0.306E-03    1.81       3.0  T
   3   -177.0470111  0.111240E-06  0.974E-04    1.81       9.3  T
   4   -177.0470112 -0.128838E-06  0.215E-04    1.81      42.2  T
     SCC iter.                  ...        0 min,  0.065 sec
     gradient                   ...        0 min,  0.023 sec
 * total energy  :  -174.0379206 Eh     change       -0.1292510E-04 Eh
   gradient norm :     0.0005139 Eh/α   predicted    -0.6138105E-05 ( -52.51%)
   displ. norm   :     0.0643646 α      lambda       -0.1097565E-04
   maximum displ.:     0.0244463 α      in ANC's #9, #6, #12, ...

........................................................................
.............................. CYCLE   45 ..............................
........................................................................

 iter      E             dE          RMSdq      gap      omega  full diag
   1   -177.0472017 -0.177047E+03  0.737E-03    1.81       0.0  T
   2   -177.0472018 -0.383418E-07  0.434E-03    1.81       2.1  T
   3   -177.0472016  0.203841E-06  0.117E-03    1.81       7.8  T
   4   -177.0472018 -0.230681E-06  0.172E-04    1.81      52.9  T
   5   -177.0472018 -0.238404E-08  0.944E-05    1.81      96.3  T
     SCC iter.                  ...        0 min,  0.081 sec
     gradient                   ...        0 min,  0.023 sec
 * total energy  :  -174.0379322 Eh     change       -0.1158364E-04 Eh
   gradient norm :     0.0008021 Eh/α   predicted    -0.5498623E-05 ( -52.53%)
   displ. norm   :     0.0877362 α      lambda       -0.9481491E-05
   maximum displ.:     0.0358606 α      in ANC's #9, #6, #12, ...

........................................................................
.............................. CYCLE   46 ..............................
........................................................................

 iter      E             dE          RMSdq      gap      omega  full diag
   1   -177.0471916 -0.177047E+03  0.897E-03    1.81       0.0  T
   2   -177.0471916 -0.314535E-07  0.530E-03    1.81       1.7  T
   3   -177.0471915  0.102559E-06  0.842E-04    1.81      10.8  T
   4   -177.0471917 -0.118780E-06  0.173E-04    1.81      52.4  T
     SCC iter.                  ...        0 min,  0.065 sec
     gradient                   ...        0 min,  0.023 sec
 * total energy  :  -174.0379432 Eh     change       -0.1098271E-04 Eh
   gradient norm :     0.0009792 Eh/α   predicted    -0.4785815E-05 ( -56.42%)
   displ. norm   :     0.1429109 α      lambda       -0.1323648E-04
   maximum displ.:     0.0594597 α      in ANC's #9, #6, #12, ...

........................................................................
.............................. CYCLE   47 ..............................
........................................................................

 iter      E             dE          RMSdq      gap      omega  full diag
   1   -177.0469336 -0.177047E+03  0.136E-02    1.81       0.0  T
   2   -177.0469337 -0.494375E-07  0.807E-03    1.81       1.1  T
   3   -177.0469335  0.119203E-06  0.899E-04    1.81      10.1  T
   4   -177.0469337 -0.143048E-06  0.247E-04    1.81      36.8  T
     SCC iter.                  ...        0 min,  0.066 sec
     gradient                   ...        0 min,  0.023 sec
 * total energy  :  -174.0379580 Eh     change       -0.1479629E-04 Eh
   gradient norm :     0.0008790 Eh/α   predicted    -0.6678548E-05 ( -54.86%)
   displ. norm   :     0.1572751 α      lambda       -0.1245668E-04
   maximum displ.:     0.0673161 α      in ANC's #9, #6, #12, ...

........................................................................
.............................. CYCLE   48 ..............................
........................................................................

 iter      E             dE          RMSdq      gap      omega  full diag
   1   -177.0467502 -0.177047E+03  0.141E-02    1.81       0.0  T
   2   -177.0467502 -0.586506E-07  0.834E-03    1.81       1.1  T
   3   -177.0467501  0.113016E-06  0.941E-04    1.81       9.7  T
   4   -177.0467502 -0.137935E-06  0.260E-04    1.81      35.0  T
     SCC iter.                  ...        0 min,  0.066 sec
     gradient                   ...        0 min,  0.023 sec
 * total energy  :  -174.0379713 Eh     change       -0.1327755E-04 Eh
   gradient norm :     0.0006706 Eh/α   predicted    -0.6297431E-05 ( -52.57%)
   displ. norm   :     0.1241507 α      lambda       -0.8603603E-05
   maximum displ.:     0.0546161 α      in ANC's #9, #6, #12, ...

........................................................................
.............................. CYCLE   49 ..............................
........................................................................

 iter      E             dE          RMSdq      gap      omega  full diag
   1   -177.0467460 -0.177047E+03  0.103E-02    1.81       0.0  T
   2   -177.0467461 -0.303431E-07  0.610E-03    1.81       1.5  T
   3   -177.0467460  0.106156E-06  0.874E-04    1.81      10.4  T
   4   -177.0467461 -0.124743E-06  0.184E-04    1.81      49.5  T
     SCC iter.                  ...        0 min,  0.067 sec
     gradient                   ...        0 min,  0.023 sec
 * total energy  :  -174.0379807 Eh     change       -0.9438089E-05 Eh
   gradient norm :     0.0004785 Eh/α   predicted    -0.4331584E-05 ( -54.11%)
   displ. norm   :     0.1146861 α      lambda       -0.7429877E-05
   maximum displ.:     0.0505736 α      in ANC's #9, #6, #12, ...

........................................................................
.............................. CYCLE   50 ..............................
........................................................................

 iter      E             dE          RMSdq      gap      omega  full diag
   1   -177.0468323 -0.177047E+03  0.910E-03    1.81       0.0  T
   2   -177.0468323 -0.226378E-07  0.538E-03    1.81       1.7  T
   3   -177.0468322  0.869805E-07  0.769E-04    1.81      11.8  T
   4   -177.0468323 -0.100959E-06  0.157E-04    1.81      57.7  T
     SCC iter.                  ...        0 min,  0.067 sec
     gradient                   ...        0 min,  0.023 sec
 * total energy  :  -174.0379891 Eh     change       -0.8423007E-05 Eh
   gradient norm :     0.0005412 Eh/α   predicted    -0.3745114E-05 ( -55.54%)
   displ. norm   :     0.1314190 α      lambda       -0.7827225E-05
   maximum displ.:     0.0569014 α      in ANC's #9, #6, #12, ...

........................................................................
.............................. CYCLE   51 ..............................
........................................................................

 iter      E             dE          RMSdq      gap      omega  full diag
   1   -177.0468577 -0.177047E+03  0.105E-02    1.81       0.0  T
   2   -177.0468577 -0.242795E-07  0.621E-03    1.81       1.5  T
   3   -177.0468577  0.435703E-07  0.580E-04    1.81      15.7  T
   4   -177.0468577 -0.551280E-07  0.169E-04    1.81      53.8  T
     SCC iter.                  ...        0 min,  0.065 sec
     gradient                   ...        0 min,  0.023 sec
 * total energy  :  -174.0379980 Eh     change       -0.8814951E-05 Eh
   gradient norm :     0.0006333 Eh/α   predicted    -0.3944471E-05 ( -55.25%)
   displ. norm   :     0.1411251 α      lambda       -0.7599268E-05
   maximum displ.:     0.0594468 α      in ANC's #9, #6, #12, ...

........................................................................
.............................. CYCLE   52 ..............................
........................................................................

 iter      E             dE          RMSdq      gap      omega  full diag
   1   -177.0469007 -0.177047E+03  0.116E-02    1.81       0.0  T
   2   -177.0469007 -0.294582E-07  0.686E-03    1.81       1.3  T
   3   -177.0469007  0.509597E-07  0.635E-04    1.81      14.3  T
   4   -177.0469007 -0.647035E-07  0.176E-04    1.81      51.6  T
     SCC iter.                  ...        0 min,  0.066 sec
     gradient                   ...        0 min,  0.023 sec
 * total energy  :  -174.0380063 Eh     change       -0.8342240E-05 Eh
   gradient norm :     0.0005456 Eh/α   predicted    -0.3835958E-05 ( -54.02%)
   displ. norm   :     0.1292417 α      lambda       -0.6033293E-05
   maximum displ.:     0.0543154 α      in ANC's #6, #9, #12, ...

........................................................................
.............................. CYCLE   53 ..............................
........................................................................

 iter      E             dE          RMSdq      gap      omega  full diag
   1   -177.0469873 -0.177047E+03  0.107E-02    1.81       0.0  T
   2   -177.0469873 -0.287497E-07  0.634E-03    1.81       1.4  T
   3   -177.0469872  0.100484E-06  0.827E-04    1.81      11.0  T
   4   -177.0469873 -0.116723E-06  0.166E-04    1.81      54.8  T
     SCC iter.                  ...        0 min,  0.067 sec
     gradient                   ...        0 min,  0.023 sec
 * total energy  :  -174.0380128 Eh     change       -0.6529243E-05 Eh
   gradient norm :     0.0003548 Eh/α   predicted    -0.3043504E-05 ( -53.39%)
   displ. norm   :     0.0963809 α      lambda       -0.4377226E-05
   maximum displ.:     0.0413792 α      in ANC's #6, #12, #9, ...

........................................................................
.............................. CYCLE   54 ..............................
........................................................................

 iter      E             dE          RMSdq      gap      omega  full diag
   1   -177.0470882 -0.177047E+03  0.847E-03    1.81       0.0  T
   2   -177.0470882 -0.173245E-07  0.501E-03    1.81       1.8  T
   3   -177.0470881  0.978399E-07  0.787E-04    1.81      11.6  T
   4   -177.0470882 -0.110640E-06  0.133E-04    1.81      68.1  T
     SCC iter.                  ...        0 min,  0.064 sec
     gradient                   ...        0 min,  0.023 sec
 * total energy  :  -174.0380174 Eh     change       -0.4612086E-05 Eh
   gradient norm :     0.0003206 Eh/α   predicted    -0.2201078E-05 ( -52.28%)
   displ. norm   :     0.0742622 α      lambda       -0.3064508E-05
   maximum displ.:     0.0328763 α      in ANC's #6, #8, #12, ...

........................................................................
.............................. CYCLE   55 ..............................
........................................................................

 iter      E             dE          RMSdq      gap      omega  full diag
   1   -177.0471241 -0.177047E+03  0.709E-03    1.81       0.0  T
   2   -177.0471242 -0.104464E-07  0.420E-03    1.81       2.2  T
   3   -177.0471241  0.309376E-07  0.463E-04    1.81      19.6  T
   4   -177.0471242 -0.363657E-07  0.112E-04    1.81      81.3  T
     SCC iter.                  ...        0 min,  0.066 sec
     gradient                   ...        0 min,  0.023 sec
 * total energy  :  -174.0380206 Eh     change       -0.3197013E-05 Eh
   gradient norm :     0.0003615 Eh/α   predicted    -0.1537323E-05 ( -51.91%)
   displ. norm   :     0.0534573 α      lambda       -0.2128044E-05
   maximum displ.:     0.0239057 α      in ANC's #6, #8, #7, ...

........................................................................
.............................. CYCLE   56 ..............................
........................................................................

 iter      E             dE          RMSdq      gap      omega  full diag
   1   -177.0470960 -0.177047E+03  0.595E-03    1.81       0.0  T
   2   -177.0470960 -0.567647E-08  0.352E-03    1.81       2.6  T
   3   -177.0470960  0.763089E-08  0.268E-04    1.81      34.0  T
   4   -177.0470960 -0.105231E-07  0.853E-05    1.81     106.6  T
     SCC iter.                  ...        0 min,  0.065 sec
     gradient                   ...        0 min,  0.023 sec
 * total energy  :  -174.0380229 Eh     change       -0.2280563E-05 Eh
   gradient norm :     0.0002678 Eh/α   predicted    -0.1067113E-05 ( -53.21%)
   displ. norm   :     0.0475169 α      lambda       -0.1618254E-05
   maximum displ.:     0.0216088 α      in ANC's #6, #8, #5, ...

........................................................................
.............................. CYCLE   57 ..............................
........................................................................

 iter      E             dE          RMSdq      gap      omega  full diag
   1   -177.0470689 -0.177047E+03  0.552E-03    1.81       0.0  T
   2   -177.0470689 -0.598737E-08  0.325E-03    1.81       2.8  T
   3   -177.0470689  0.164368E-07  0.347E-04    1.81      26.2  T
   4   -177.0470689 -0.199382E-07  0.764E-05    1.81     119.0  T
     SCC iter.                  ...        0 min,  0.066 sec
     gradient                   ...        0 min,  0.022 sec
 * total energy  :  -174.0380247 Eh     change       -0.1814490E-05 Eh
   gradient norm :     0.0001763 Eh/α   predicted    -0.8148745E-06 ( -55.09%)
   displ. norm   :     0.0479649 α      lambda       -0.1462372E-05
   maximum displ.:     0.0216572 α      in ANC's #6, #8, #5, ...

........................................................................
.............................. CYCLE   58 ..............................
........................................................................

 iter      E             dE          RMSdq      gap      omega  full diag
   1   -177.0470321 -0.177047E+03  0.543E-03    1.81       0.0  T
   2   -177.0470321 -0.640932E-08  0.320E-03    1.81       2.8  T
   3   -177.0470320  0.284952E-07  0.429E-04    1.81      21.2  T
   4   -177.0470321 -0.329844E-07  0.717E-05    1.81     126.7  T
     SCC iter.                  ...        0 min,  0.066 sec
     gradient                   ...        0 min,  0.023 sec
 * total energy  :  -174.0380265 Eh     change       -0.1719663E-05 Eh
   gradient norm :     0.0002062 Eh/α   predicted    -0.7346295E-06 ( -57.28%)
   displ. norm   :     0.0602133 α      lambda       -0.1700728E-05
   maximum displ.:     0.0270013 α      in ANC's #8, #6, #5, ...

........................................................................
.............................. CYCLE   59 ..............................
........................................................................

 iter      E             dE          RMSdq      gap      omega  full diag
   1   -177.0470300 -0.177047E+03  0.654E-03    1.81       0.0  T
   2   -177.0470300 -0.833532E-08  0.384E-03    1.81       2.4  T
   3   -177.0470300  0.235522E-07  0.400E-04    1.81      22.7  T
   4   -177.0470300 -0.285376E-07  0.826E-05    1.81     110.1  T
     SCC iter.                  ...        0 min,  0.066 sec
     gradient                   ...        0 min,  0.022 sec
 * total energy  :  -174.0380285 Eh     change       -0.2040367E-05 Eh
   gradient norm :     0.0002783 Eh/α   predicted    -0.8541086E-06 ( -58.14%)
   displ. norm   :     0.0812172 α      lambda       -0.2136852E-05
   maximum displ.:     0.0366739 α      in ANC's #8, #6, #5, ...

........................................................................
.............................. CYCLE   60 ..............................
........................................................................

 iter      E             dE          RMSdq      gap      omega  full diag
   1   -177.0470242 -0.177047E+03  0.858E-03    1.81       0.0  T
   2   -177.0470242 -0.140962E-07  0.505E-03    1.81       1.8  T
   3   -177.0470242  0.251149E-07  0.435E-04    1.81      20.9  T
   4   -177.0470242 -0.324210E-07  0.114E-04    1.81      79.7  T
     SCC iter.                  ...        0 min,  0.066 sec
     gradient                   ...        0 min,  0.023 sec
 * total energy  :  -174.0380310 Eh     change       -0.2540480E-05 Eh
   gradient norm :     0.0002818 Eh/α   predicted    -0.1075190E-05 ( -57.68%)
   displ. norm   :     0.1077480 α      lambda       -0.2581077E-05
   maximum displ.:     0.0490219 α      in ANC's #8, #6, #5, ...

........................................................................
.............................. CYCLE   61 ..............................
........................................................................

 iter      E             dE          RMSdq      gap      omega  full diag
   1   -177.0470400 -0.177047E+03  0.112E-02    1.81       0.0  T
   2   -177.0470400 -0.259208E-07  0.661E-03    1.81       1.4  T
   3   -177.0470400  0.625261E-07  0.664E-04    1.81      13.7  T
   4   -177.0470400 -0.770231E-07  0.162E-04    1.81      56.1  T
     SCC iter.                  ...        0 min,  0.066 sec
     gradient                   ...        0 min,  0.023 sec
 * total energy  :  -174.0380341 Eh     change       -0.3032147E-05 Eh
   gradient norm :     0.0002450 Eh/α   predicted    -0.1297874E-05 ( -57.20%)
   displ. norm   :     0.1340867 α      lambda       -0.2950400E-05
   maximum displ.:     0.0612061 α      in ANC's #8, #6, #5, ...

........................................................................
.............................. CYCLE   62 ..............................
........................................................................

 iter      E             dE          RMSdq      gap      omega  full diag
   1   -177.0470754 -0.177047E+03  0.140E-02    1.81       0.0  T
   2   -177.0470754 -0.449606E-07  0.823E-03    1.81       1.1  T
[...]
  25: 11.05  26: 11.06  27:  9.86  28:  9.90  29: 11.14  30: 10.55  31:  9.75  32:  9.55
  33: 10.40  34: 10.54  35: 10.33  36:  2.66  37: 10.53  38:  3.29  39:  2.31  40:  8.10
  41:  6.67  42:  7.04  43:  8.74  44:  2.33  45:  7.51  46:  6.59  47:  7.93  48: 10.28
  49: 10.23  50:  9.54  51: 11.46  52: 10.47  53: 10.11  54: 10.43  55: 10.27  56: 10.08
  57: 10.07  58: 10.16  59:  9.12  60:  1.91  61:  9.05  62:  2.98  63:  2.16  64:  9.73
  65: 10.77  66: 10.58  67:  8.60  68:  8.41  69:  8.63  70: 11.10  71:  8.62  72: 10.87
  73:  9.72  74: 10.45  75: 10.38  76: 10.39  77: 10.51  78: 10.84  79:  9.35  80:  9.63
  81: 10.50  82: 10.19  83: 10.23  84: 10.10  85: 10.01  86: 10.36  87:  9.57  88:  9.68
  89:  9.98  90:  9.42  91: 10.22  92: 10.16  93: 10.17  94: 10.78  95: 10.82  96: 10.14
  97: 10.58  98: 11.00  99: 10.12 100:  9.57 101: 11.43 102: 10.22 103: 10.43 104: 11.48
 105: 10.94 106: 11.30 107: 11.14 108: 11.20 109: 10.37 110: 11.44 111: 10.76 112: 11.31
 113: 11.30 114: 11.28 115: 11.24 116: 11.08 117: 11.54 118: 11.48 119: 11.54 120: 11.55
 121: 11.23 122: 12.94 123: 11.53 124: 11.61 125: 11.22 126: 11.28 127: 11.62 128: 11.35
 129: 10.93 130:  3.56 131:  3.56 132:  3.28 133:  3.68 134: 11.68 135:  5.52 136:  4.89
 137:  5.16 138:  6.96 139:  8.62 140: 11.00 141:  3.84 142:  3.51 143:  3.50 144:  3.51
 145:  3.55 146:  3.32 147:  3.66 148:  9.02 149:  8.85 150:  3.67 151: 10.07 152:  9.86
 153:  9.89 154: 11.28 155:  3.93 156:  4.00 157:  5.35 158:  5.42 159:  3.08 160:  3.61
 161:  3.14 162:  3.16 163:  3.11 164:  3.13 165:  3.46 166: 11.18 167:  4.02 168:  9.31
 169: 11.23 170: 11.20 171:  5.29 172:  4.93 173:  5.22 174:  6.06 175:  4.26 176:  5.09
 177:  4.14 178:  3.06 179:  3.03 180:  8.29 181:  9.28 182:  9.98 183:  4.13 184:  4.20
 185:  4.10 186:  4.02 187:  4.03 188:  4.15 189: 12.77 190:  9.82 191:  8.31 192:  6.54
 193:  6.84 194:  6.05 195:  5.94 196:  6.98 197:  6.99 198:  5.60 199:  6.61 200:  5.48
 201:  6.88 202:  6.13 203:  3.53 204:  5.15 205:  4.08 206:  4.33 207:  3.29 208:  1.44
 209:  1.42 210:  2.31 211:  3.39 212:  5.42 213:  6.52 214:  9.44 215:  9.13 216:  9.18
 217:  9.19 218:  9.16 219:  8.06 220:  6.52 221:  6.22 222:  8.21 223:  8.57 224:  8.40
 225:  4.51 226:  9.38 227:  8.79 228:  5.13 229:  4.17 230:  5.86 231:  5.94 232:  3.50
 233:  6.95 234:  9.53 235:  9.10 236:  7.66 237:  9.54 238: 11.44 239: 11.86 240: 11.85
 241: 11.89 242: 11.28 243: 11.93 244: 11.73 245: 11.64 246: 11.78 247: 10.20 248:  9.81
 249: 11.80 250:  7.66 251:  8.31 252:  5.67 253:  9.10 254:  3.08 255:  3.05 256:  3.04
 257:  5.52 258:  7.59 259:  8.69 260:  2.96 261:  2.99 262:  2.96 263:  9.47 264:  9.47
 265:  9.93 266:  9.97 267: 10.20 268:  9.72 269:  9.72 270: 10.09 271: 10.14 272:  8.38
 273:  1.61 274:  1.61 275:  1.61 276:  9.47 277:  1.60 278:  1.59 279:  1.58 280:  7.78
 281:  1.74 282:  1.78 283:  3.01 284:  1.71 285:  1.69 286:  3.89 287:  1.58 288:  1.58
 289:  1.59 290:  1.65 291:  1.67 292:  1.72 293: 11.51 294: 11.47 295: 11.68 296: 11.59
 297: 11.61 298: 11.62 299: 11.71 300: 11.67 301: 11.48 302: 11.51 303: 11.69 304: 11.56
 305: 11.54 306: 11.53 307: 11.56 308: 11.56 309:  1.93 310:  1.92 311:  1.93 312:  1.91
 313:  1.91 314:  1.90 315:  1.95 316:  1.87 317:  1.84 318:  1.77 319:  1.82 320:  1.81
 321:  1.81 322:  1.65 323:  1.72 324:  1.81 325:  1.84 326:  1.85 327:  1.37 328:  1.30
 329:  1.30 330:  1.46 331:  1.47 332:  1.48 333:  1.54 334:  1.54 335:  1.55 336:  1.76
 337:  1.76 338:  1.75 339:  1.75 340:  1.80 341:  1.80 342:  1.81 343:  1.81 344:  1.78
 345:  1.81 346:  1.78 347:  1.84 348:  1.84 349:  1.81 350:  1.86 351:  1.87 352:  1.86
 353:  1.90 354:  1.90 355:  1.88 356:  1.89 357:  1.88 358:  1.83 359:  1.84 360:  1.81
 361:  1.84 362:  1.84 363:  1.80
 IR intensities (km·mol⁻¹)
   1:  0.01   2:  0.01   3:  0.01   4:  0.01   5:  0.00   6:  0.00   7:  0.11   8:  0.15
   9:  0.08  10:  0.01  11:  0.02  12:  0.04  13:  0.01  14:  0.01  15:  0.03  16:  0.04
  17:  0.03  18:  0.03  19:  0.03  20:  0.10  21:  0.15  22:  0.03  23:  0.03  24:  0.10
  25:  0.03  26:  0.43  27:  0.04  28:  0.01  29:  0.03  30:  0.17  31:  0.20  32:  0.12
  33:  0.16  34:  0.31  35:  0.08  36:  0.15  37:  0.02  38:  0.09  39:  0.02  40:  0.19
  41:  0.06  42:  0.07  43:  1.25  44:  0.15  45:  0.41  46:  0.27  47:  0.27  48:  0.25
  49:  0.68  50:  0.46  51:  2.34  52:  0.37  53:  0.11  54:  0.10  55:  0.52  56:  0.50
  57:  0.10  58:  0.18  59:  0.27  60:  0.01  61:  0.29  62:  0.11  63:  0.05  64:  0.27
  65:  1.01  66:  0.89  67:  0.48  68:  0.13  69:  1.08  70:  2.82  71:  0.04  72:  0.61
  73:  0.50  74:  2.65  75:  0.42  76:  0.24  77:  0.19  78:  0.33  79:  0.03  80:  0.82
  81:  0.13  82:  0.12  83:  0.12  84:  0.05  85:  3.24  86:  0.41  87:  0.05  88:  3.81
  89:  0.62  90:  0.44  91:  0.51  92:  0.80  93:  0.40  94:  1.88  95:  4.17  96:  2.04
  97:  1.84  98:  1.46  99:  0.00 100:  3.24 101:  2.22 102:  2.87 103:  0.07 104:  9.01
 105:  3.35 106:  0.05 107:  0.99 108:  1.39 109:  1.18 110:  0.40 111:  2.07 112:  3.34
 113:  0.38 114:  0.23 115: 13.32 116:  0.14 117:  0.32 118: 11.97 119:  4.45 120:  0.27
 121:  0.38 122:  9.44 123:  1.69 124:  0.10 125: 17.02 126:  0.06 127: 33.79 128:  1.94
 129:  0.48 130: 34.81 131: 34.48 132:  2.92 133:  0.02 134:  2.13 135:  4.43 136:  1.91
 137: 24.29 138:  5.42 139: 16.33 140: 35.15 141:  0.12 142:  0.04 143:  0.04 144:  0.00
 145:  0.42 146:  0.05 147:  0.79 148:  5.57 149:  3.12 150:  0.88 151:  0.29 152:  6.08
 153:  5.22 154:  1.90 155:  0.09 156:  0.18 157:  1.22 158:  1.59 159:  0.01 160:  0.24
 161:  0.09 162:  0.12 163:  0.04 164:  0.29 165:  0.08 166:  2.26 167:  0.02 168:  1.65
 169:  3.95 170:  4.33 171:  1.80 172:  0.96 173:  1.35 174:  1.23 175:  1.27 176:  2.49
 177:  1.22 178:  0.14 179:  0.02 180:  2.18 181:  9.47 182: 10.04 183:  0.73 184:  0.93
 185:  1.07 186:  0.10 187:  0.05 188:  0.64 189:153.91 190: 45.89 191: 18.67 192:  1.16
 193:  3.15 194:  1.27 195:  1.07 196:  7.58 197:  7.63 198:  2.68 199:  6.83 200: 93.71
 201:  0.71 202:  2.24 203:  2.57 204: 24.67 205: 16.30 206:  7.36 207:  1.69 208:  1.44
 209:  1.44 210:  6.40 211:  0.04 212: 27.55 213: 63.88 214: 11.94 215: 32.68 216: 13.19
 217:  9.63 218: 10.32 219:  6.83 220:  0.97 221:  1.98 222:  3.70 223:  6.19 224: 22.69
 225: 13.08 226:111.95 227: 15.84 228: 88.45 229:  1.32 230:  3.98 231:  9.31 232:  0.97
 233:108.89 234:409.33 235: 10.86 236:  7.22 237: 38.04 238:  6.14 239: 38.76 240:  7.05
 241:  2.92 242: 92.51 243:  8.73 244:161.23 245: 52.37 246:  9.70 247:253.82 248:265.89
 249:  6.55 250:  2.53 251:  8.91 252: 43.22 253:268.95 254:  4.96 255:  2.12 256:  3.40
 257:  3.52 258: 16.52 259:122.91 260:  0.68 261:  4.62 262:  2.18 263: 45.17 264:  4.84
 265:119.67 266:134.97 267: 33.78 268: 51.83 269: 84.78 270:310.67 271:330.05 272:  1.52
 273:  0.02 274:  0.09 275:  0.05 276:194.15 277:  0.83 278:  0.06 279:  0.23 280:  9.53
 281:  0.73 282:  2.62 283: 24.29 284:  2.92 285:  4.65 286: 33.94 287:  2.58 288:  3.22
 289:  2.66 290: 10.81 291: 12.55 292:  4.47 293: 37.52 294: 52.69 295:257.25 296:  2.99
 297:  6.00 298:  6.55 299:590.53 300:  0.31 301: 99.16 302: 95.15 303: 22.35 304: 15.33
 305:  4.06 306: 53.27 307: 26.31 308: 14.51 309: 10.63 310:  3.78 311:  5.58 312:  3.17
 313:  5.14 314:  0.96 315:  6.25 316:  0.98 317:  0.03 318: 91.53 319: 81.93 320: 80.55
 321: 30.42 322: 19.87 323:105.61 324: 72.50 325: 64.08 326: 67.35 327: 78.89 328: 55.77
 329: 55.08 330: 14.62 331:  8.58 332:  9.39 333: 51.07 334: 37.28 335: 17.25 336:  9.21
 337:  6.00 338:  4.06 339:  5.56 340: 28.34 341: 26.27 342: 16.71 343: 57.89 344: 18.11
 345: 37.99 346: 25.72 347: 40.38 348: 85.97 349: 13.07 350: 57.91 351: 45.41 352:128.96
 353:107.72 354: 20.92 355: 57.33 356: 63.43 357: 36.98 358: 11.16 359:  4.57 360: 29.96
 361: 21.57 362: 23.67 363:  8.65
 Raman intensities (Ä⁴*amu⁻¹)
   1:  0.00   2:  0.00   3:  0.00   4:  0.00   5:  0.00   6:  0.00   7:  0.00   8:  0.00
   9:  0.00  10:  0.00  11:  0.00  12:  0.00  13:  0.00  14:  0.00  15:  0.00  16:  0.00
  17:  0.00  18:  0.00  19:  0.00  20:  0.00  21:  0.00  22:  0.00  23:  0.00  24:  0.00
  25:  0.00  26:  0.00  27:  0.00  28:  0.00  29:  0.00  30:  0.00  31:  0.00  32:  0.00
  33:  0.00  34:  0.00  35:  0.00  36:  0.00  37:  0.00  38:  0.00  39:  0.00  40:  0.00
  41:  0.00  42:  0.00  43:  0.00  44:  0.00  45:  0.00  46:  0.00  47:  0.00  48:  0.00
  49:  0.00  50:  0.00  51:  0.00  52:  0.00  53:  0.00  54:  0.00  55:  0.00  56:  0.00
  57:  0.00  58:  0.00  59:  0.00  60:  0.00  61:  0.00  62:  0.00  63:  0.00  64:  0.00
  65:  0.00  66:  0.00  67:  0.00  68:  0.00  69:  0.00  70:  0.00  71:  0.00  72:  0.00
  73:  0.00  74:  0.00  75:  0.00  76:  0.00  77:  0.00  78:  0.00  79:  0.00  80:  0.00
  81:  0.00  82:  0.00  83:  0.00  84:  0.00  85:  0.00  86:  0.00  87:  0.00  88:  0.00
  89:  0.00  90:  0.00  91:  0.00  92:  0.00  93:  0.00  94:  0.00  95:  0.00  96:  0.00
  97:  0.00  98:  0.00  99:  0.00 100:  0.00 101:  0.00 102:  0.00 103:  0.00 104:  0.00
 105:  0.00 106:  0.00 107:  0.00 108:  0.00 109:  0.00 110:  0.00 111:  0.00 112:  0.00
 113:  0.00 114:  0.00 115:  0.00 116:  0.00 117:  0.00 118:  0.00 119:  0.00 120:  0.00
 121:  0.00 122:  0.00 123:  0.00 124:  0.00 125:  0.00 126:  0.00 127:  0.00 128:  0.00
 129:  0.00 130:  0.00 131:  0.00 132:  0.00 133:  0.00 134:  0.00 135:  0.00 136:  0.00
 137:  0.00 138:  0.00 139:  0.00 140:  0.00 141:  0.00 142:  0.00 143:  0.00 144:  0.00
 145:  0.00 146:  0.00 147:  0.00 148:  0.00 149:  0.00 150:  0.00 151:  0.00 152:  0.00
 153:  0.00 154:  0.00 155:  0.00 156:  0.00 157:  0.00 158:  0.00 159:  0.00 160:  0.00
 161:  0.00 162:  0.00 163:  0.00 164:  0.00 165:  0.00 166:  0.00 167:  0.00 168:  0.00
 169:  0.00 170:  0.00 171:  0.00 172:  0.00 173:  0.00 174:  0.00 175:  0.00 176:  0.00
 177:  0.00 178:  0.00 179:  0.00 180:  0.00 181:  0.00 182:  0.00 183:  0.00 184:  0.00
 185:  0.00 186:  0.00 187:  0.00 188:  0.00 189:  0.00 190:  0.00 191:  0.00 192:  0.00
 193:  0.00 194:  0.00 195:  0.00 196:  0.00 197:  0.00 198:  0.00 199:  0.00 200:  0.00
 201:  0.00 202:  0.00 203:  0.00 204:  0.00 205:  0.00 206:  0.00 207:  0.00 208:  0.00
 209:  0.00 210:  0.00 211:  0.00 212:  0.00 213:  0.00 214:  0.00 215:  0.00 216:  0.00
 217:  0.00 218:  0.00 219:  0.00 220:  0.00 221:  0.00 222:  0.00 223:  0.00 224:  0.00
 225:  0.00 226:  0.00 227:  0.00 228:  0.00 229:  0.00 230:  0.00 231:  0.00 232:  0.00
 233:  0.00 234:  0.00 235:  0.00 236:  0.00 237:  0.00 238:  0.00 239:  0.00 240:  0.00
 241:  0.00 242:  0.00 243:  0.00 244:  0.00 245:  0.00 246:  0.00 247:  0.00 248:  0.00
 249:  0.00 250:  0.00 251:  0.00 252:  0.00 253:  0.00 254:  0.00 255:  0.00 256:  0.00
 257:  0.00 258:  0.00 259:  0.00 260:  0.00 261:  0.00 262:  0.00 263:  0.00 264:  0.00
 265:  0.00 266:  0.00 267:  0.00 268:  0.00 269:  0.00 270:  0.00 271:  0.00 272:  0.00
 273:  0.00 274:  0.00 275:  0.00 276:  0.00 277:  0.00 278:  0.00 279:  0.00 280:  0.00
 281:  0.00 282:  0.00 283:  0.00 284:  0.00 285:  0.00 286:  0.00 287:  0.00 288:  0.00
 289:  0.00 290:  0.00 291:  0.00 292:  0.00 293:  0.00 294:  0.00 295:  0.00 296:  0.00
 297:  0.00 298:  0.00 299:  0.00 300:  0.00 301:  0.00 302:  0.00 303:  0.00 304:  0.00
 305:  0.00 306:  0.00 307:  0.00 308:  0.00 309:  0.00 310:  0.00 311:  0.00 312:  0.00
 313:  0.00 314:  0.00 315:  0.00 316:  0.00 317:  0.00 318:  0.00 319:  0.00 320:  0.00
 321:  0.00 322:  0.00 323:  0.00 324:  0.00 325:  0.00 326:  0.00 327:  0.00 328:  0.00
 329:  0.00 330:  0.00 331:  0.00 332:  0.00 333:  0.00 334:  0.00 335:  0.00 336:  0.00
 337:  0.00 338:  0.00 339:  0.00 340:  0.00 341:  0.00 342:  0.00 343:  0.00 344:  0.00
 345:  0.00 346:  0.00 347:  0.00 348:  0.00 349:  0.00 350:  0.00 351:  0.00 352:  0.00
 353:  0.00 354:  0.00 355:  0.00 356:  0.00 357:  0.00 358:  0.00 359:  0.00 360:  0.00
 361:  0.00 362:  0.00 363:  0.00
 output can be read by thermo (or use thermo option).
 writing <g98.out> molden fake output.
 recommended (thermochemical) frequency scaling factor: 1.0
           -------------------------------------------------
          |             Thermodynamic Functions             |
           -------------------------------------------------

Molecule has no symmetry elements
It seems to be the C1 point group
c1  symmetry found (for desy threshold:  0.10E+00) used in thermo

          ...................................................
          :                      SETUP                      :
          :.................................................:
          :  # frequencies                         357      :
          :  # imaginary freq.                       0      :
          :  linear?                             false      :
          :  only rotor calc.                    false      :
          :  symmetry                               c1      :
          :  rotational number                       1      :
          :  scaling factor                  1.0000000      :
          :  rotor cutoff                   50.0000000 cm⁻¹ :
          :  imag. cutoff                  -20.0000000 cm⁻¹ :
          :.................................................:

    mode    ω/cm⁻¹     T·S(HO)/kcal·mol⁻¹    T·S(FR)/kcal·mol⁻¹   T·S(vib)
   ------------------------------------------------------------------------
       1      2.95    -3.11209 (  0.00%)    -1.89510 (100.00%)    -1.89511
       2      4.16    -2.90741 (  0.00%)    -1.79278 (100.00%)    -1.79283
       3      4.80    -2.82366 (  0.01%)    -1.75090 ( 99.99%)    -1.75099
       4      6.76    -2.62073 (  0.03%)    -1.64944 ( 99.97%)    -1.64977
       5     15.43    -2.13155 (  0.90%)    -1.40481 ( 99.10%)    -1.41135
       6     20.04    -1.97687 (  2.51%)    -1.32743 ( 97.49%)    -1.34376
       7     24.46    -1.85879 (  5.42%)    -1.26833 ( 94.58%)    -1.30033
       8     28.55    -1.76727 (  9.61%)    -1.22251 ( 90.39%)    -1.27488
       9     29.89    -1.74015 ( 11.33%)    -1.20893 ( 88.67%)    -1.26911
      10     36.31    -1.62515 ( 21.76%)    -1.15131 ( 78.24%)    -1.25443
      11     36.67    -1.61940 ( 22.43%)    -1.14843 ( 77.57%)    -1.25408
      12     45.89    -1.48691 ( 41.50%)    -1.08196 ( 58.50%)    -1.25003
      13     49.12    -1.44674 ( 48.23%)    -1.06179 ( 51.77%)    -1.24745
      14     51.62    -1.41752 ( 53.18%)    -1.04711 ( 46.82%)    -1.24410
      15     60.86    -1.32049 ( 68.71%)    -0.99830 ( 31.29%)    -1.21967
      16     67.46    -1.26001 ( 76.82%)    -0.96781 ( 23.18%)    -1.19228
      17     69.29    -1.24428 ( 78.67%)    -0.95988 ( 21.33%)    -1.18362
      18     75.87    -1.19110 ( 84.13%)    -0.93301 ( 15.87%)    -1.15014
      19     86.12    -1.11698 ( 89.80%)    -0.89548 ( 10.20%)    -1.09438
      20     93.68    -1.06790 ( 92.49%)    -0.87056 (  7.51%)    -1.05309
      21    106.23    -0.99484 ( 95.32%)    -0.83331 (  4.68%)    -0.98728
      22    106.98    -0.99075 ( 95.45%)    -0.83123 (  4.55%)    -0.98349
      23    108.51    -0.98252 ( 95.69%)    -0.82701 (  4.31%)    -0.97581
      24    115.99    -0.94400 ( 96.66%)    -0.80728 (  3.34%)    -0.93943
      25    124.93    -0.90118 ( 97.50%)    -0.78526 (  2.50%)    -0.89828
      26    129.98    -0.87844 ( 97.86%)    -0.77352 (  2.14%)    -0.87619
      27    136.75    -0.84939 ( 98.24%)    -0.75849 (  1.76%)    -0.84779
      28    149.13    -0.80001 ( 98.75%)    -0.73281 (  1.25%)    -0.79917
      29    152.32    -0.78802 ( 98.85%)    -0.72654 (  1.15%)    -0.78731
      30    171.13    -0.72242 ( 99.28%)    -0.69205 (  0.72%)    -0.72220
      31    173.18    -0.71576 ( 99.31%)    -0.68853 (  0.69%)    -0.71558
      32    174.80    -0.71056 ( 99.33%)    -0.68577 (  0.67%)    -0.71040
      33    175.35    -0.70881 ( 99.34%)    -0.68484 (  0.66%)    -0.70865
      34    206.60    -0.61822 ( 99.66%)    -0.63625 (  0.34%)    -0.61828
      35    211.92    -0.60437 ( 99.69%)    -0.62872 (  0.31%)    -0.60444
      36    212.93    -0.60179 ( 99.70%)    -0.62731 (  0.30%)    -0.60187
      37    217.02    -0.59147 ( 99.72%)    -0.62168 (  0.28%)    -0.59156
      38    219.23    -0.58598 ( 99.73%)    -0.61867 (  0.27%)    -0.58607
      39    223.48    -0.57564 ( 99.75%)    -0.61298 (  0.25%)    -0.57573
      40    226.34    -0.56880 ( 99.76%)    -0.60922 (  0.24%)    -0.56889
      41    232.18    -0.55517 ( 99.79%)    -0.60168 (  0.21%)    -0.55527
      42    235.28    -0.54810 ( 99.80%)    -0.59775 (  0.20%)    -0.54820
      43    242.83    -0.53131 ( 99.82%)    -0.58838 (  0.18%)    -0.53141
      44    255.81    -0.50393 ( 99.85%)    -0.57296 (  0.15%)    -0.50403
      45    259.87    -0.49572 ( 99.86%)    -0.56830 (  0.14%)    -0.49582
      46    268.45    -0.47888 ( 99.88%)    -0.55867 (  0.12%)    -0.47898
      47    270.48    -0.47499 ( 99.88%)    -0.55644 (  0.12%)    -0.47508
      48    273.26    -0.46973 ( 99.89%)    -0.55341 (  0.11%)    -0.46982
      49    281.00    -0.45545 ( 99.90%)    -0.54514 (  0.10%)    -0.45554
      50    289.73    -0.43994 ( 99.91%)    -0.53608 (  0.09%)    -0.44002
      51    294.47    -0.43176 ( 99.92%)    -0.53127 (  0.08%)    -0.43184
      52    299.22    -0.42375 ( 99.92%)    -0.52653 (  0.08%)    -0.42383
   ------------------------------------------------------------------------

   temp. (K)  partition function   enthalpy   heat capacity  entropy
                                   cal/mol     cal/K/mol   cal/K/mol   J/K/mol
 298.15  VIB  0.154E+30            35051.282    217.073    221.148
         ROT  0.236E+09              888.752      2.981     41.295
         INT  0.363E+38            35940.034    220.054    262.442
         TR   0.244E+29             1481.254      4.968     46.107
         TOT                       37421.2882   225.0225   308.5495  1290.9712

       T/K    H(0)-H(T)+PV         H(T)/Eh          T*S/Eh         G(T)/Eh
   ------------------------------------------------------------------------
    298.15    0.596346E-01    0.103746E+01    0.146602E+00    0.890860E+00
   ------------------------------------------------------------------------

         :::::::::::::::::::::::::::::::::::::::::::::::::::::
         ::                  THERMODYNAMIC                  ::
         :::::::::::::::::::::::::::::::::::::::::::::::::::::
         :: total free energy        -173.147226147976 Eh   ::
         ::.................................................::
         :: total energy             -174.038085839831 Eh   ::
         :: zero point energy           0.977826904707 Eh   ::
         :: G(RRHO) w/o ZPVE           -0.086967212853 Eh   ::
         :: G(RRHO) contrib.            0.890859691855 Eh   ::
         :::::::::::::::::::::::::::::::::::::::::::::::::::::

optimized geometry written to: xtbopt.xyz


           -------------------------------------------------
          | TOTAL ENERGY             -174.038085839831 Eh   |
          | TOTAL ENTHALPY           -173.000624316413 Eh   |
          | TOTAL FREE ENERGY        -173.147226147976 Eh   |
          | GRADIENT NORM               0.000039980160 Eh/α |
          | HOMO-LUMO GAP               1.793820016861 eV   |
           -------------------------------------------------

------------------------------------------------------------------------
 * finished run on 2025/08/22 at 23:35:36.665     
------------------------------------------------------------------------
 total:
 * wall-time:     0 d,  0 h,  0 min, 25.897 sec
 *  cpu-time:     0 d,  0 h, 16 min,  7.377 sec
 * ratio c/w:    37.355 speedup
 SCF:
 * wall-time:     0 d,  0 h,  0 min,  0.312 sec
 *  cpu-time:     0 d,  0 h,  0 min, 11.609 sec
 * ratio c/w:    37.176 speedup
 ANC optimizer:
 * wall-time:     0 d,  0 h,  0 min, 14.853 sec
 *  cpu-time:     0 d,  0 h,  9 min, 54.067 sec
 * ratio c/w:    39.995 speedup
 analytical hessian:
 * wall-time:     0 d,  0 h,  0 min, 10.393 sec
 *  cpu-time:     0 d,  0 h,  5 min, 52.632 sec
 * ratio c/w:    33.929 speedup

