$hessian                                                                        
        0.6770232744   0.0085096333  -0.0111799545  -0.0950183614  -0.0271422367
        0.0026460186   0.0323577703  -0.0219613179   0.0008069475  -0.0156679520
        0.0311741339  -0.0018847417  -0.0660841652  -0.0343827747   0.0034248737
       -0.2953731943   0.1391582600  -0.0039078308  -0.0001491986  -0.0028308020
        0.0001835627  -0.0028622219  -0.0000115275   0.0000914817   0.0002363867
       -0.0001416561   0.0000121491  -0.0003900225  -0.0001489793  -0.0000391194
       -0.0000161908   0.0003555784   0.0000000502  -0.0001589249  -0.0000919612
       -0.0000053450   0.0001080744   0.0000368880  -0.0000075427  -0.0000648320
       -0.0000221867  -0.0000058532   0.0000345484  -0.0000203272  -0.0000151131
       -0.0000244389  -0.0000245299  -0.0000079540  -0.0000039229  -0.0000176104
       -0.0000056793  -0.0000120654   0.0000277908   0.0000067938  -0.0000040913
        0.0000214989   0.0000087183  -0.0000170871   0.0000082035   0.0000164067
        0.0000242310   0.0000169735  -0.0000169828   0.0003634858  -0.0000790720
       -0.0000018279   0.0002453227   0.0004040816  -0.0000523736  -0.0004502604
       -0.0012607673   0.0003114609  -0.0000921782   0.0002045393   0.0000791492
        0.0000401348  -0.0001445935   0.0000503323   0.0000135406   0.0000362326
        0.0000032763  -0.0000133700   0.0000050193   0.0000008415   0.0000014544
       -0.0000018329   0.0000443608   0.0000049977   0.0000443301  -0.0000849070
        0.0000021496   0.0000362204   0.0001125766   0.0000117667  -0.0000084504
       -0.0000429341  -0.0000103822  -0.0000127019  -0.0000134234   0.0000195355
        0.0000534852  -0.0000057324   0.0000504156  -0.0001434710  -0.0000024580
       -0.0001059149   0.0001034618  -0.0002176448  -0.2240357290  -0.1184812189
        0.0109627464  -0.0035627846   0.0271107278  -0.0016177496  -0.0037736199
       -0.0035248307   0.0004543533  -0.0025548625   0.0030688891  -0.0001067818
       -0.0000574589   0.0000036500   0.0000002076  -0.0000593349  -0.0000078572
        0.0000121714  -0.0000038921   0.0000210078   0.0000042150   0.0000025472
        0.0000200885   0.0000079057   0.0000018407   0.0000135305   0.0000036130
        0.0000070421   0.0000021315  -0.0000002045   0.0000037200  -0.0000046911
       -0.0000039176  -0.0000030832  -0.0000024294   0.0000014523   0.0000183506
        0.0000690624  -0.0000069590  -0.0000199211   0.0000285310   0.0000381672
        0.0000085518  -0.0000122069  -0.0000366597   0.0000033450  -0.0000252197
       -0.0000252704   0.0000069523  -0.0000063219   0.0000025270   0.0000113930
       -0.0000132361   0.0000072099   0.0000040728  -0.0000221219   0.0000255072
        0.0000068344  -0.0000022053   0.0000344225  -0.0000222775   0.0000151883
       -0.0000585382
        0.0085096333   0.6559229946  -0.0336654792   0.0520382662  -0.3266422878
        0.0162179926  -0.0812424178  -0.0420227994   0.0042759994   0.0328356767
       -0.0444390058   0.0019355463   0.0232661880   0.0598067264  -0.0044008163
        0.0631846704  -0.1450206963   0.0051950397  -0.0042528901  -0.0027018140
        0.0007283135  -0.0012821888  -0.0002453633   0.0000794273  -0.0003005429
       -0.0001941257  -0.0000149881   0.0000710879   0.0000923438  -0.0000207449
        0.0003926239  -0.0002405878   0.0000389834  -0.0000726501  -0.0000204975
        0.0000056295  -0.0000168960   0.0000401836   0.0000063332  -0.0000096600
        0.0000004312   0.0000025765   0.0000078352   0.0000006574   0.0000006577
       -0.0000129601   0.0000008157   0.0000009016  -0.0000023559  -0.0000119638
       -0.0000031491  -0.0000067174   0.0000042585   0.0000037401   0.0000074122
        0.0000021622   0.0000003253  -0.0000241812  -0.0000171197  -0.0000010235
        0.0000733827  -0.0000401522  -0.0000185322  -0.0006911341  -0.0000334901
        0.0000190773   0.0002762422  -0.0000689459   0.0000467963  -0.0003906647
        0.0004653729  -0.0001820819  -0.0001566549  -0.0001063574   0.0000248011
       -0.0000389670   0.0000835669   0.0001575086   0.0000300107  -0.0000979877
       -0.0000351370   0.0000030028   0.0000127387  -0.0000744092   0.0000166872
        0.0000864344   0.0000479095  -0.0000549829   0.0001382926   0.0000004643
       -0.0000567529   0.0001267016  -0.0000654334   0.0000176199   0.0000895784
       -0.0000696070   0.0000027121   0.0000418467   0.0000775482   0.0000335787
       -0.0001143901   0.0000839729  -0.0000458944   0.0000553954  -0.0001793529
       -0.0001638064  -0.0000239310   0.0000472262  -0.1183299231  -0.1218974934
        0.0076841090   0.0031944228  -0.0159203946   0.0009078326  -0.0030553609
       -0.0011365478   0.0006411754   0.0263196883  -0.0159411238   0.0004942301
        0.0000571349  -0.0000833913   0.0000128466   0.0000027005   0.0000087048
        0.0000020930   0.0000102365  -0.0000129530  -0.0000022340  -0.0000009564
       -0.0000080155  -0.0000000569  -0.0000008687  -0.0000006869  -0.0000000245
        0.0000021579   0.0000011441  -0.0000003991   0.0000037373  -0.0000037555
       -0.0000017397  -0.0000009986  -0.0000054897  -0.0000023425   0.0000300077
       -0.0000150566  -0.0000020096  -0.0000524161  -0.0000394709  -0.0000574903
       -0.0000081949   0.0000093473   0.0000290211  -0.0000134246   0.0000268012
        0.0000010486  -0.0000111173   0.0000302999  -0.0000115270  -0.0000154006
        0.0000353029  -0.0000023904  -0.0000165867   0.0000287292  -0.0000059475
       -0.0000037910   0.0000074263  -0.0000356385  -0.0000553594  -0.0000123627
        0.0000834277
       -0.0111799545  -0.0336654792   0.1176131580  -0.0024011093   0.0176679831
       -0.0484762506   0.0045966700   0.0031572906   0.0012054343  -0.0018683449
        0.0019793163  -0.0044118679  -0.0001993520  -0.0033490093  -0.0019465596
        0.0009170471   0.0037391712  -0.0436379007   0.0001503966   0.0006979688
        0.0055615561   0.0002463042   0.0000634578   0.0014138888   0.0000212344
        0.0000297665  -0.0001042031   0.0000231827  -0.0000228770  -0.0001986519
       -0.0000165504  -0.0000026158  -0.0000002487   0.0000131855   0.0000122092
        0.0000472266  -0.0000000201  -0.0000021245  -0.0000005438   0.0000038429
        0.0000015121  -0.0000019134  -0.0000033906   0.0000008132   0.0000012573
        0.0000017732   0.0000009566   0.0000010880   0.0000001374   0.0000006679
        0.0000004239   0.0000003165  -0.0000013672   0.0000004654  -0.0000013185
       -0.0000013653  -0.0000002640   0.0000041378   0.0000024703  -0.0000043413
       -0.0000141180  -0.0000045482   0.0000018637   0.0000251975   0.0000027727
       -0.0001158929  -0.0000422006  -0.0000094890   0.0000172371   0.0000312633
       -0.0000250945  -0.0000659629  -0.0000227383   0.0000483403   0.0000044726
        0.0000121653   0.0000434982  -0.0000499764   0.0000106752   0.0000103599
        0.0000067322   0.0000005739  -0.0000107223   0.0000112219   0.0000114150
       -0.0000104994  -0.0000108902   0.0000261195   0.0000053674   0.0000345923
       -0.0000185452  -0.0000236811   0.0000301467  -0.0000137226   0.0000073975
       -0.0000044025  -0.0000005725   0.0000111516  -0.0000092313  -0.0000134816
       -0.0000050683   0.0000042708  -0.0000027799  -0.0000501128  -0.0000117393
        0.0000565179  -0.0000539820   0.0000146196   0.0109537496   0.0076816044
       -0.0348742210  -0.0001289007   0.0004789890   0.0001281455   0.0004114540
        0.0006343554   0.0077100413  -0.0015999050   0.0009381718   0.0000044944
       -0.0000010420   0.0000052498   0.0000243296   0.0000065366   0.0000061278
        0.0000248516  -0.0000007845   0.0000007472   0.0000000072  -0.0000003707
       -0.0000000335   0.0000000961  -0.0000001110  -0.0000001565   0.0000000416
       -0.0000007426   0.0000000856   0.0000000560  -0.0000008478   0.0000006513
        0.0000003489  -0.0000001175   0.0000007417  -0.0000002529   0.0000001472
       -0.0000004578  -0.0000039995   0.0000110967  -0.0000054887   0.0000264154
        0.0000019106   0.0000019994   0.0000049874  -0.0000012304  -0.0000040080
        0.0000015015  -0.0000011255  -0.0000020927   0.0000037934   0.0000018353
       -0.0000006539   0.0000024601   0.0000026297   0.0000026332   0.0000023687
       -0.0000015492   0.0000016384   0.0000077633  -0.0000065898   0.0000154610
        0.0000179566
       -0.0950183614   0.0520382662  -0.0024011093   0.6758455011  -0.0103053183
       -0.0104001995  -0.2662705291  -0.1506296001   0.0139244346  -0.0676329357
        0.0226851591  -0.0000638833  -0.0085900812  -0.0293236367   0.0018955099
        0.0195441628   0.0290422759  -0.0022003614  -0.0015437189   0.0021932449
       -0.0000370182   0.0000471291  -0.0002019423  -0.0000238377   0.0002813330
       -0.0000583098   0.0000005160  -0.0001204506  -0.0002904522   0.0000200571
       -0.0001456593   0.0001644330  -0.0000231986   0.0000337104   0.0000620003
        0.0000183858  -0.0000279207  -0.0000024691   0.0000020762   0.0000138597
       -0.0000116685  -0.0000077944  -0.0000206252  -0.0000002875   0.0000055433
        0.0000061298  -0.0000022071  -0.0000026362  -0.0000151873  -0.0000062262
        0.0000004739  -0.0000097986   0.0000019217   0.0000041396  -0.0000006209
       -0.0000036589  -0.0000008253   0.0000005729  -0.0000109351  -0.0000047944
       -0.0000181443  -0.0000162602  -0.0000112427  -0.0000890592   0.0001888273
       -0.0000398644  -0.0013771193   0.0000831359   0.0000042131  -0.0023735980
        0.0026321746   0.0000265282   0.0004153471  -0.0000014923   0.0000384002
        0.0001446384   0.0000037128  -0.0000957230  -0.0000319748   0.0000177612
       -0.0000686370   0.0000065257  -0.0000252487   0.0000481213  -0.0000469033
       -0.0000096171   0.0000084462   0.0000549184  -0.0000575138   0.0000648800
        0.0000631616  -0.0000872167  -0.0000222220  -0.0000471434  -0.0000134062
        0.0000042503   0.0000051686  -0.0000527487  -0.0000493129  -0.0000332197
        0.0000314598   0.0000629863   0.0001421415   0.0000509048   0.0001072208
        0.0003620556  -0.0001549789  -0.0000051893  -0.0003544311  -0.0253617406
        0.0016015729  -0.2488009640   0.1052704460  -0.0023988094   0.0002663604
       -0.0010904675   0.0000140998  -0.0045161531   0.0031193478   0.0000475701
        0.0000100970  -0.0000348802  -0.0000043937  -0.0000124762   0.0000154479
        0.0000070964   0.0000035610   0.0000059638   0.0000033882  -0.0000063332
       -0.0000091412  -0.0000003454  -0.0000035935  -0.0000018119  -0.0000003636
       -0.0000004990  -0.0000011170  -0.0000005546  -0.0000031579  -0.0000057324
       -0.0000004113  -0.0000006237  -0.0000058381  -0.0000016281  -0.0000005716
        0.0000461030  -0.0000010453  -0.0000550366   0.0000455157   0.0000378687
       -0.0000125055   0.0000028843   0.0000100378   0.0000059781   0.0000207403
       -0.0000008777  -0.0000083595   0.0000081882  -0.0000095477  -0.0000072109
        0.0000040505   0.0000067538   0.0000043178   0.0000170414  -0.0000031252
       -0.0000166063   0.0000023273  -0.0000140569  -0.0000450973   0.0000225897
       -0.0000715620
       -0.0271422367  -0.3266422878   0.0176679831  -0.0103053183   0.6533192971
       -0.0334633224  -0.0718435349  -0.1662277493   0.0092254405  -0.0361978929
        0.0577115139  -0.0030905931  -0.0287429553  -0.0522597083   0.0035222680
        0.0870583569  -0.0307617212   0.0003827481   0.0014104591   0.0013711898
       -0.0002031258  -0.0006583160  -0.0000281011   0.0000265270   0.0005109977
       -0.0000218450   0.0000118583  -0.0003023255  -0.0002862864  -0.0000062327
       -0.0001969142   0.0003900587  -0.0000302955  -0.0000022246   0.0000036082
        0.0000050807   0.0000266719  -0.0000104716  -0.0000047046   0.0000082125
        0.0000019309  -0.0000044737  -0.0000076959  -0.0000029465   0.0000005632
        0.0000052080  -0.0000009397   0.0000001085  -0.0000022200   0.0000010099
        0.0000003605  -0.0000004565   0.0000025623   0.0000012220  -0.0000013225
        0.0000022803   0.0000006292   0.0000023308   0.0000046885   0.0000015096
       -0.0000271650   0.0000141758   0.0000070114   0.0007246838  -0.0000037375
       -0.0000207774   0.0003962798   0.0008158348  -0.0000816580   0.0036559569
       -0.0007520178   0.0005075226   0.0001056575  -0.0003164361  -0.0001137240
        0.0000577969  -0.0000655082   0.0000707784  -0.0000250880   0.0000367710
       -0.0000068600   0.0000039072   0.0000282073   0.0000280151  -0.0000466517
        0.0000457393   0.0000804331   0.0000774379   0.0000143878   0.0000021606
        0.0000997605  -0.0000194076  -0.0000046428  -0.0000377780  -0.0000174436
       -0.0000770781   0.0000041550  -0.0000054978  -0.0000345143  -0.0000236327
        0.0000654626  -0.0000072559   0.0000690050  -0.0000872495  -0.0000047116
        0.0000722074  -0.0004658415   0.0001338815  -0.0015453591  -0.0186509445
        0.0012116142   0.1052431829  -0.0977328049   0.0020216936  -0.0249269045
       -0.0196365915   0.0017875883   0.0025505167   0.0000716711   0.0004707675
       -0.0000922986   0.0000802730  -0.0000109294  -0.0000119054   0.0000086586
       -0.0000019055  -0.0000066095   0.0000093523   0.0000075277   0.0000019839
        0.0000044084   0.0000023214   0.0000018853   0.0000025364   0.0000008549
        0.0000010044   0.0000014071   0.0000005714   0.0000009184   0.0000003053
        0.0000008941  -0.0000000287   0.0000001380   0.0000004386   0.0000012838
        0.0000155181  -0.0000005149   0.0000288820   0.0000630549   0.0000095574
       -0.0000067375  -0.0000258870  -0.0000519649   0.0000071632  -0.0000187757
       -0.0000223560  -0.0000037177  -0.0000410356  -0.0000237559  -0.0000015071
       -0.0000365668   0.0000334206   0.0000064898  -0.0000123808   0.0000289062
       -0.0000131721  -0.0000140463   0.0000598989   0.0000395736   0.0000581884
       -0.0000467602
        0.0026460186   0.0162179926  -0.0484762506  -0.0104001995  -0.0334633224
        0.1154938129   0.0087373277   0.0106420107  -0.0466496380   0.0037000052
       -0.0040765707   0.0007827813   0.0018328928   0.0035499696  -0.0058729662
       -0.0058289095   0.0014760530   0.0017246094  -0.0000224009  -0.0001419097
       -0.0000763234   0.0000221903   0.0000019687  -0.0000401171  -0.0000370343
        0.0000053737   0.0000006351   0.0000186651   0.0000271499   0.0000030990
        0.0000366410  -0.0000320030  -0.0000207536  -0.0000052228  -0.0000053244
        0.0000161283   0.0000026834   0.0000030232   0.0000008077  -0.0000003385
       -0.0000006372  -0.0000004942   0.0000005801   0.0000005870   0.0000001250
       -0.0000009849  -0.0000005842   0.0000009367   0.0000003165  -0.0000009017
       -0.0000000894  -0.0000004845   0.0000000089   0.0000008591   0.0000003999
        0.0000003321   0.0000002888  -0.0000016087   0.0000010656  -0.0000041843
        0.0000036250  -0.0000023203   0.0000028450  -0.0000265967  -0.0000297016
       -0.0000928726   0.0001264392   0.0000028081   0.0001212561  -0.0000356530
        0.0004053912   0.0065888854   0.0005456406   0.0005282115  -0.0001059915
       -0.0000584306   0.0000764907   0.0000531817  -0.0000376266  -0.0000300647
       -0.0000037093   0.0000029917   0.0000194838  -0.0000097790  -0.0000406233
        0.0000389871  -0.0000152849  -0.0000774469   0.0001382613   0.0000671350
        0.0000532111  -0.0001212506   0.0001227873   0.0000627098  -0.0000419444
       -0.0000080816  -0.0000040848  -0.0000323078   0.0000123465   0.0000554144
        0.0000281297  -0.0000075894   0.0000307802  -0.0000579664   0.0000665340
       -0.0007108832  -0.0005669950   0.0000050334   0.0001152294   0.0016747753
        0.0005944545  -0.0023959693   0.0019968320  -0.0330979632   0.0016221060
        0.0013348068   0.0007653144   0.0000735421   0.0004320070   0.0079575214
        0.0000050899  -0.0000035466  -0.0000029260   0.0000010596   0.0000003617
        0.0000034109  -0.0000006565  -0.0000002489  -0.0000008957   0.0000000152
        0.0000006583   0.0000000598   0.0000001287   0.0000005970  -0.0000000372
        0.0000000476   0.0000002656  -0.0000001290  -0.0000000204   0.0000001790
       -0.0000000566  -0.0000002355   0.0000002462  -0.0000003757  -0.0000009481
       -0.0000025783   0.0000041030   0.0000276594  -0.0000374872   0.0000213151
        0.0000124663   0.0000007371   0.0000173889   0.0000091646  -0.0000000191
        0.0000050368  -0.0000040896   0.0000090784   0.0000092903   0.0000041578
       -0.0000086265   0.0000102762  -0.0000133959   0.0000023439   0.0000030127
       -0.0000105523   0.0000036079   0.0000102998  -0.0000348029   0.0000365159
        0.0000209369
        0.0323577703  -0.0812424178   0.0045966700  -0.2662705291  -0.0718435349
        0.0087373277   0.6582714031   0.0137470864  -0.0117282469  -0.2711765917
        0.0561931274   0.0010932186   0.0180906805   0.0859158944  -0.0057892645
       -0.0622353578  -0.0019522965   0.0013021752   0.0022139250  -0.0044087674
        0.0003476505   0.0000492808   0.0001590723   0.0000207523  -0.0007873848
        0.0001957919  -0.0000335506   0.0003814002   0.0005312120  -0.0000400508
       -0.0000027233  -0.0006487763  -0.0000266627  -0.0001101630  -0.0000045968
       -0.0000398787   0.0000423971   0.0000138734   0.0000021278  -0.0000211718
        0.0000026210   0.0000074752   0.0000147221  -0.0000007938  -0.0000027237
       -0.0000063276  -0.0000158385  -0.0000023454  -0.0000053958  -0.0000024776
       -0.0000000311   0.0000017782   0.0000118390   0.0000020396   0.0000057611
        0.0000108453   0.0000037427  -0.0000013940   0.0000131613   0.0000212177
        0.0000326640   0.0000046872   0.0000027675  -0.0018603040   0.0006532880
       -0.0000661813  -0.0029580484  -0.0042053615   0.0005134726  -0.0325498956
        0.0029501117   0.0005860517  -0.0011724974   0.0013928883   0.0008686806
       -0.0001922857  -0.0000567744   0.0002890412   0.0000541445  -0.0001371498
       -0.0000798972  -0.0000036975   0.0001266803  -0.0000771293   0.0000289076
        0.0001674388   0.0001334931  -0.0001765151   0.0002550199  -0.0000125675
       -0.0001351740   0.0002223242  -0.0001218962   0.0000554740   0.0000867093
       -0.0001649897  -0.0000049632   0.0001520072   0.0000697346   0.0000833976
       -0.0001243804   0.0001074988  -0.0001522139  -0.0001516397  -0.0001969733
       -0.0010585860   0.0012950951  -0.0013301982   0.0010493138   0.0004717998
        0.0000934582  -0.0265634541  -0.0132595968   0.0013747376  -0.0448648051
        0.0132634100  -0.0004704701  -0.0005788672  -0.0002121616  -0.0000108465
        0.0000509686  -0.0000480074   0.0000155662   0.0000550261  -0.0000331730
        0.0000036018  -0.0000094374   0.0000132041   0.0000100179   0.0000074883
        0.0000140326   0.0000061098   0.0000051001   0.0000082200   0.0000036971
        0.0000121317   0.0000050065   0.0000017572   0.0000096796  -0.0000005986
       -0.0000011930   0.0000013544   0.0000000679  -0.0000020426   0.0000945132
        0.0001011686   0.0000008734  -0.0000532957   0.0000150271  -0.0002674622
        0.0000359875   0.0000054683   0.0000364257  -0.0000069161   0.0000705754
        0.0000320123   0.0000024655   0.0000463543  -0.0000398483  -0.0000057554
        0.0000676666   0.0000219801  -0.0000142214   0.0000689172  -0.0000416085
        0.0000395579  -0.0000095503  -0.0000204597  -0.0000693203   0.0001062005
        0.0002611434
       -0.0219613179  -0.0420227994   0.0031572906  -0.1506296001  -0.1662277493
        0.0106420107   0.0137470864   0.6682405522  -0.0355766204   0.1293939384
       -0.1377923334   0.0032317691   0.0288521446  -0.0265237068   0.0010200459
       -0.0047437204   0.0029412599  -0.0003622037   0.0001233429  -0.0076238251
        0.0009254448   0.0003205130   0.0004390086  -0.0000111664  -0.0000615290
       -0.0001190091  -0.0000286097   0.0000992185   0.0000234486   0.0000152277
       -0.0002990173  -0.0000934655  -0.0000550443   0.0001230537   0.0001575243
        0.0000205628  -0.0000853227  -0.0000581956  -0.0000106834   0.0000623214
        0.0000254763   0.0000051769  -0.0000392879   0.0000183236   0.0000102443
        0.0000251045   0.0000280539   0.0000064806   0.0000101739   0.0000240025
        0.0000061671   0.0000065018  -0.0000244649  -0.0000095797  -0.0000100921
       -0.0000271780  -0.0000090598   0.0000141852  -0.0000086860  -0.0000097897
       -0.0000766419  -0.0000114858   0.0000126770  -0.0006157129   0.0005067995
       -0.0001233036  -0.0026821462  -0.0017706950   0.0003089732  -0.0123108142
        0.0071068784  -0.0001493454  -0.0014450095   0.0004456688   0.0000478040
       -0.0001890759  -0.0000555758  -0.0003355918   0.0001340687   0.0000496221
        0.0000591428   0.0000391847  -0.0001324596   0.0000126763   0.0001682254
       -0.0000709500  -0.0000840937  -0.0001969694  -0.0002448790   0.0000097879
       -0.0001286925  -0.0002445753   0.0000582728   0.0001560364  -0.0000344673
        0.0001174776   0.0000312320  -0.0001322339   0.0000039981   0.0001163313
        0.0000639717  -0.0000840622  -0.0001586831   0.0000139013   0.0003453453
       -0.0011966413   0.0004418204  -0.0000915011   0.0000377901  -0.0060764753
        0.0008326451   0.0106336491   0.0064925181  -0.0006123838   0.0130023353
       -0.2984167612   0.0167278313  -0.0000069391   0.0008903740  -0.0000670224
       -0.0000463587   0.0000667488  -0.0000089560   0.0000018567   0.0000130757
        0.0000004530   0.0000137487   0.0000184541   0.0000035287  -0.0000097072
       -0.0000126199  -0.0000094041  -0.0000041314  -0.0000118066  -0.0000047992
       -0.0000142351  -0.0000037191   0.0000001135  -0.0000122957   0.0000074422
        0.0000036457   0.0000031839   0.0000047629   0.0000013291   0.0000023925
        0.0000711698   0.0000073785  -0.0000056969  -0.0000702327   0.0001902606
       -0.0000092981   0.0000040032   0.0000170033  -0.0000374643  -0.0000233775
        0.0000064258  -0.0000596085  -0.0000306993   0.0000318430  -0.0000543151
       -0.0000467647  -0.0000215514  -0.0000289758  -0.0000305685  -0.0000041103
        0.0000018899  -0.0000055229  -0.0000168678  -0.0000002090  -0.0001475786
       -0.0001532828
        0.0008069475   0.0042759994   0.0012054343   0.0139244346   0.0092254405
       -0.0466496380  -0.0117282469  -0.0355766204   0.1179082198  -0.0037141830
        0.0045981454  -0.0468195129  -0.0022122856  -0.0000158487  -0.0020645721
        0.0014051416  -0.0004280196  -0.0040079854  -0.0000475459   0.0009700746
        0.0072393591   0.0001103169  -0.0000247167   0.0001292471  -0.0000019494
        0.0000042482  -0.0002132147   0.0000138931   0.0000242209  -0.0001128467
        0.0001153473  -0.0000354156  -0.0000761731  -0.0000639247  -0.0000215493
        0.0001820805   0.0000274644   0.0000183732  -0.0000028361  -0.0000186196
        0.0000025043  -0.0000067721   0.0000099035  -0.0000053849  -0.0000028791
       -0.0000071941  -0.0000044038   0.0000050578   0.0000017198  -0.0000048432
       -0.0000019141   0.0000012053   0.0000036637   0.0000057741  -0.0000027702
        0.0000027076  -0.0000005319  -0.0000075317   0.0000170904  -0.0000282081
       -0.0000033146  -0.0000277474   0.0000028994   0.0000207607  -0.0000919914
       -0.0005573199   0.0002216184   0.0003327695   0.0009608254   0.0016131016
       -0.0006474050   0.0000962165  -0.0007034005  -0.0002685919   0.0003353869
       -0.0001023062  -0.0000640113   0.0000710317   0.0000026252   0.0000987429
        0.0001443963  -0.0000067226   0.0000154351   0.0000758023  -0.0000022610
        0.0000165647  -0.0000019977  -0.0000969011   0.0000730208  -0.0002956222
        0.0001077397  -0.0001013365  -0.0002201726  -0.0000281442  -0.0000277952
        0.0000268959   0.0000037705   0.0000295672   0.0000680024  -0.0000369389
       -0.0000501813   0.0001415477   0.0001224420   0.0000741317   0.0000182669
        0.0008564675   0.0002575673   0.0003654457   0.0001217403   0.0008299631
        0.0073486369  -0.0001660427  -0.0001518668   0.0001508777  -0.0005564661
        0.0167453226  -0.0352766843   0.0000072542  -0.0000652713  -0.0002250955
        0.0000017004  -0.0000046028  -0.0000311729   0.0000050430   0.0000058213
        0.0000498661   0.0000009723   0.0000010631   0.0000009438   0.0000024369
        0.0000026597   0.0000024546   0.0000007415   0.0000016994  -0.0000000510
        0.0000009888   0.0000007631  -0.0000013345   0.0000007480  -0.0000005778
        0.0000000655  -0.0000005301   0.0000004971  -0.0000011482  -0.0000051002
       -0.0000053931  -0.0000014840   0.0000001336   0.0000029171   0.0000272565
       -0.0000175693  -0.0000004900   0.0000059257   0.0000025846  -0.0000086344
        0.0000087045   0.0000232564  -0.0000247926  -0.0000063424  -0.0000149636
        0.0000213343  -0.0000150308   0.0000036781   0.0000073626   0.0000022149
        0.0000115643  -0.0000010200   0.0000057698  -0.0000028298  -0.0000011597
        0.0000359344
       -0.0156679520   0.0328356767  -0.0018683449  -0.0676329357  -0.0361978929
        0.0037000052  -0.2711765917   0.1293939384  -0.0037141830   0.6196847149
       -0.0279791163  -0.0099700152  -0.0818949128  -0.0374656154   0.0029870976
        0.0286182033  -0.0206294413   0.0006706288  -0.0194146474   0.0435727492
       -0.0022970289   0.0069584933  -0.0001145698   0.0000460516  -0.0009454634
       -0.0005519086  -0.0000365740   0.0003119766  -0.0001231252   0.0000560961
       -0.0014729726  -0.0005228627  -0.0002032673   0.0000529058   0.0002364025
       -0.0000087163  -0.0000926832  -0.0000453347   0.0000222424   0.0000489174
        0.0000088886   0.0000035674  -0.0000429582   0.0000018874   0.0000073704
        0.0000267646   0.0000081722   0.0000013492  -0.0000084725   0.0000145455
        0.0000067481  -0.0000026977  -0.0000175232  -0.0000046271  -0.0000116852
       -0.0000024605   0.0000019953   0.0000105469   0.0000033637  -0.0000037621
       -0.0001434304  -0.0000176718   0.0000240023  -0.0028481788   0.0026466291
       -0.0002531843  -0.0310092268  -0.0072213697   0.0007707507  -0.1476166035
       -0.0565412661   0.0064958482  -0.0019826633  -0.0116781333  -0.0059006775
        0.0001500611   0.0007356215   0.0011664107  -0.0000099232  -0.0004037662
        0.0000415756   0.0000095982   0.0001399226  -0.0001051378  -0.0001047263
       -0.0001185007  -0.0000092503  -0.0008872914   0.0006529566  -0.0002860406
       -0.0007203998   0.0006781141   0.0000609687  -0.0000806848  -0.0001376897
        0.0000808118   0.0000094365   0.0001567954   0.0000596003  -0.0000005734
       -0.0003957976   0.0000853024   0.0002233836   0.0003712528  -0.0013405414
       -0.0027973444  -0.0106969678   0.0093132098   0.0003944317   0.0008452238
       -0.0000557321  -0.0035027127  -0.0028366879   0.0003856000  -0.0030954233
        0.0042460754  -0.0002865417  -0.0039061706  -0.0031492369   0.0004148876
        0.0003221976  -0.0003387355   0.0000103451  -0.0000112014  -0.0000407978
        0.0000099625  -0.0000061289   0.0000065187  -0.0000047477  -0.0000139809
       -0.0000156511  -0.0000096232  -0.0000064976  -0.0000096619  -0.0000029093
       -0.0000082318  -0.0000013665  -0.0000004777  -0.0000051770   0.0000048072
        0.0000004470   0.0000071095  -0.0000019446  -0.0000035104   0.0000793646
       -0.0000459278   0.0000466070   0.0000739508   0.0001154820  -0.0000208565
        0.0000001916   0.0000948515   0.0001299255   0.0000290203   0.0000623059
        0.0000509326   0.0000103567   0.0001077892   0.0000204805   0.0000089014
        0.0001046557  -0.0000516787   0.0000315008   0.0000517614  -0.0000649868
       -0.0000044344   0.0000593419  -0.0001470158   0.0000629503   0.0001452945
       -0.0000213896
        0.0311741339  -0.0444390058   0.0019793163   0.0226851591   0.0577115139
       -0.0040765707   0.0561931274  -0.1377923334   0.0045981454  -0.0279791163
        0.6390964246  -0.0327394580   0.0391551526  -0.3009256137   0.0153597596
       -0.0727209452  -0.0372838387   0.0038179374   0.0169148123  -0.0326856767
        0.0018533838  -0.0012745102   0.0017648297  -0.0002291384  -0.0004078859
        0.0005941918   0.0000594763  -0.0002112966  -0.0000222618  -0.0000114679
       -0.0002468615   0.0007505224   0.0000567970   0.0002290105  -0.0002210476
       -0.0000221235   0.0001080920   0.0000155626   0.0000378904  -0.0000596094
       -0.0000314560  -0.0000132540   0.0000172301  -0.0000443113  -0.0000142507
        0.0000021820  -0.0000451249  -0.0000117385  -0.0000253241  -0.0000179734
       -0.0000020813   0.0000045132   0.0000330967   0.0000137108   0.0000107342
        0.0000523508   0.0000186485   0.0000525500   0.0000714937  -0.0000012181
       -0.0000070932   0.0000959096   0.0000125307   0.0044423585  -0.0016779689
        0.0003973658   0.0072430499   0.0085487021  -0.0008914376  -0.0679921616
       -0.0955439606   0.0036917887  -0.0175464391  -0.0201925633  -0.0053806613
       -0.0000593827   0.0003466266   0.0007343864   0.0008765296  -0.0002424518
        0.0000089198  -0.0000291040   0.0000004443   0.0002259541   0.0009273517
       -0.0007620242  -0.0002048568  -0.0001251705  -0.0015327554  -0.0010664109
       -0.0001867684  -0.0008645384   0.0006902133   0.0006834212  -0.0005538290
        0.0004023472  -0.0000133570  -0.0000176861  -0.0001830048   0.0006399713
       -0.0002865988   0.0001147438  -0.0000918929   0.0004022893  -0.0008324663
       -0.0137147047  -0.0148717545   0.0100183569   0.0005733529  -0.0002181131
       -0.0000063839  -0.0032661129  -0.0008869365   0.0006039125   0.0271889620
       -0.0178626409   0.0006802005  -0.0024570828  -0.0011005930   0.0005587136
       -0.0000680449   0.0001466276  -0.0000234693   0.0000200395  -0.0000494657
       -0.0000052000  -0.0000143546  -0.0000532462  -0.0000214749   0.0000225267