$hessian                                                                        
        0.5022042354  -0.0311343971  -0.0044507793  -0.1214592095  -0.0668414930
       -0.0196711757  -0.0277785124  -0.0229413295  -0.0064742933  -0.0028451242
        0.0022110238   0.0005208343  -0.0018086775  -0.0009631801  -0.0005535881
        0.0003389290  -0.0002688607  -0.0004857919   0.0000695510   0.0000859505
        0.0001584062   0.0001024136  -0.0000406795  -0.0000953548  -0.0000531851
       -0.0000005290  -0.0000231208   0.0000268609   0.0000214392   0.0000393502
       -0.0001269162  -0.0000075235  -0.0000882258  -0.0002532130   0.0000794856
        0.0000117979   0.0000391214   0.0000108797  -0.0000113260  -0.0000411223
        0.0000187246   0.0000352080   0.0000836454   0.0000207664   0.0000559007
       -0.0000314193  -0.0000332723  -0.0001650139   0.0001530171   0.0000572429
        0.0006226847  -0.0008797461  -0.0006042233  -0.0002354704   0.0004278922
        0.0029004984   0.0004810812   0.0057902652   0.0015405964   0.0000700448
       -0.0000354317   0.0011679033   0.0005609993   0.0000904621   0.0004009866
        0.0001001087   0.0001077734   0.0000034376  -0.0001298555   0.0000955386
       -0.0000526848   0.0000273456  -0.0000811878   0.0000842323  -0.0000185527
        0.0000618415  -0.0001247643   0.0000315640  -0.0000149027   0.0000142684
       -0.0000016827   0.0000165746  -0.0000111761   0.0000014299   0.0000003638
        0.0000073860  -0.0000009320   0.0000177266  -0.0000162376   0.0000024743
       -0.0000507751   0.0000109232   0.0000048872  -0.0000055314   0.0000126415
       -0.0000007379  -0.0000060913   0.0000156628  -0.0000088267  -0.0000780123
       -0.0000294156   0.0000205968   0.0001080486   0.0000604801  -0.0000236275
       -0.0000314077  -0.0000311487   0.0000208149  -0.0000444378   0.0000026964
       -0.0000071373   0.0000102600  -0.0000130137   0.0000106627  -0.0000157654
       -0.0000050464   0.0000063718   0.0000459852  -0.0000124126   0.0000122594
       -0.0000424975   0.0000127205  -0.0000112313   0.0000148101   0.0000123074
       -0.0000066092   0.0000019172  -0.0000030706   0.0000016462  -0.0000003429
        0.0000023836   0.0000005010   0.0000028554  -0.0000044039   0.0000022891
        0.0000033372   0.0000060994   0.0000016297   0.0000000607  -0.0000140982
        0.0000026570  -0.0000132050   0.0000035940  -0.0000021019   0.0000073223
        0.0000105287   0.0000004189  -0.0000008802  -0.0000060384   0.0000011647
        0.0000053390   0.0000024323   0.0000021284  -0.0000023833  -0.0000019217
        0.0000006536   0.0000044664   0.0000023696   0.0000023078   0.0000012200
       -0.0000175041   0.0000121456  -0.0000077055   0.0000133259  -0.0000087278
        0.0000171529   0.0000107289  -0.0000116758   0.0000627284   0.0000205071
       -0.0000022034   0.0000783653  -0.0000604052   0.0000133385   0.0000060695
        0.0000205355  -0.0000189970   0.0000707130  -0.0000553389   0.0000244751
        0.0000684069   0.0002928174   0.0003634323  -0.0001652186  -0.0000976836
        0.0000250280  -0.1651759458   0.0554801149  -0.1074281739  -0.1075559604
        0.0929555897   0.0521497262  -0.0826793911  -0.0330079949   0.0848913660
        0.0009787019  -0.0016964083  -0.0003253260  -0.0001149227  -0.0000473152
       -0.0001049535  -0.0000266175   0.0000160986   0.0000451322  -0.0000493624
        0.0000128367   0.0000301056  -0.0000532897   0.0000082489   0.0000011565
       -0.0000596059   0.0000045618  -0.0000100675  -0.0000395224  -0.0000082029
       -0.0000341191  -0.0000149354  -0.0000145205  -0.0000418879  -0.0000295024
        0.0000088772   0.0000584999   0.0001218588  -0.0000631497   0.0000500569
        0.0002813403   0.0005186659   0.0002401246  -0.0000436620   0.0000358756
       -0.0000775948   0.0000248345  -0.0000287969  -0.0000245621   0.0000022147
        0.0000041712  -0.0000000397  -0.0000036573   0.0000168857  -0.0000031127
       -0.0000070235   0.0000111528  -0.0000011786  -0.0000104394   0.0000046983
       -0.0000001102  -0.0000165821   0.0000073892   0.0000028850  -0.0000003306
       -0.0000001597   0.0000049801  -0.0000019413   0.0000012138  -0.0000017133
       -0.0000002594   0.0000013885   0.0000001459   0.0000008168  -0.0000006745
        0.0000006845  -0.0000012846  -0.0000011299   0.0000005717  -0.0000016723
       -0.0000000036   0.0000003046  -0.0000017405   0.0000002550   0.0000005863
       -0.0000012465   0.0000017430   0.0000003014   0.0000005187   0.0000000977
        0.0000005577  -0.0000016304  -0.0000014452  -0.0000003035  -0.0000049492
       -0.0000002457   0.0000023246   0.0000003955  -0.0000031998   0.0000016204
        0.0000033695   0.0000021132  -0.0000047059  -0.0000198887   0.0000009479
       -0.0000125572   0.0000173558  -0.0000206960  -0.0000151260   0.0000662232
       -0.0000055822  -0.0000644560   0.0000277506   0.0000002468  -0.0000176815
        0.0001276150   0.0000606294  -0.0000550606
       -0.0311343971   0.4933257735   0.0058797357  -0.0715879348  -0.1521356803
       -0.0268759615  -0.0044714736   0.0000123343  -0.0011344507   0.0013834826
        0.0011725443  -0.0023010024  -0.0001386346   0.0001104946   0.0001771222
        0.0001140980  -0.0000945643  -0.0001473213   0.0000261800  -0.0000161352
        0.0000779950   0.0000245056  -0.0000203383  -0.0000406056  -0.0000247819
        0.0000018952  -0.0000218720   0.0000123420   0.0000087776   0.0000160516
       -0.0000439385  -0.0000043163  -0.0000226124  -0.0000307512   0.0000127248
        0.0000350660   0.0000123768  -0.0000103692  -0.0000229400  -0.0000098701
        0.0000100775   0.0000200382   0.0000167594   0.0000068863   0.0000268451
        0.0000404405  -0.0000050485  -0.0000845629   0.0001534581   0.0000388822
        0.0001497395  -0.0007986106  -0.0001684703  -0.0000876242   0.0034208516
       -0.0027377665  -0.0024786122  -0.0146763672  -0.0286689971  -0.0084644238
       -0.0009765257  -0.0002129293   0.0005677100  -0.0003391735  -0.0002490349
        0.0000405708  -0.0001407710  -0.0000759817  -0.0000128229  -0.0001449300
       -0.0000011568   0.0000291905   0.0002591074   0.0000748626   0.0000015927
       -0.0000096320   0.0000600556  -0.0000500618  -0.0000229726  -0.0000244344
        0.0000154251  -0.0000239283   0.0000259495   0.0000013652   0.0000127607
        0.0000119289  -0.0000014592   0.0000018209  -0.0000060334   0.0000079159
        0.0000118400   0.0000161327  -0.0000034687   0.0000830188  -0.0000164682
       -0.0000074255  -0.0000262247  -0.0000287337   0.0000145370   0.0000644117
        0.0000486470  -0.0000139494  -0.0000353603  -0.0001028048   0.0000486741
       -0.0000122831   0.0000810526  -0.0000363571   0.0000026042   0.0000005292
       -0.0000009539   0.0000061055   0.0000044375  -0.0000045614  -0.0000022605
        0.0000005457   0.0000001132   0.0000016742  -0.0000007169   0.0000000365
       -0.0000017059   0.0000131423   0.0000007146  -0.0000037056  -0.0000025674
       -0.0000019541   0.0000023292  -0.0000004039   0.0000019757   0.0000010822
       -0.0000011440   0.0000011721  -0.0000005981  -0.0000003530   0.0000007138
       -0.0000004666   0.0000007449  -0.0000003952   0.0000037649  -0.0000065112
        0.0000026366   0.0000018656   0.0000104100  -0.0000017149  -0.0000053333
       -0.0000017864  -0.0000004234  -0.0000012592  -0.0000018165   0.0000011966
        0.0000003335   0.0000014557   0.0000005131  -0.0000011284  -0.0000005545
        0.0000005540   0.0000019717   0.0000016766   0.0000019011   0.0000037857
       -0.0000130686   0.0000027961  -0.0000013708   0.0000007156   0.0000009840
       -0.0000012970  -0.0000028993   0.0000059866  -0.0000495350  -0.0000138932
        0.0000051263   0.0000507217   0.0000485145   0.0000098626  -0.0001567348
       -0.0001698559   0.0000678197  -0.0000468554  -0.0000606986  -0.0000111223
       -0.0001260736  -0.0000540681  -0.0001328941  -0.0000600558   0.0002824315
       -0.0001423551   0.0572376888  -0.0657307494   0.0453471477   0.0935318908
       -0.1765237061  -0.0773299160  -0.0322383155  -0.0676461496   0.0654547894
        0.0014848668   0.0009025978   0.0012964221  -0.0000253816   0.0000351000
       -0.0000370042  -0.0000039781   0.0000071859   0.0000166809  -0.0000182602
        0.0000090640   0.0000147064  -0.0000211415   0.0000058629   0.0000038854
       -0.0000245442   0.0000036505   0.0000013763  -0.0000235906   0.0000016949
       -0.0000142087  -0.0000079324  -0.0000046652  -0.0000120543  -0.0000182072
       -0.0000112072   0.0000454826   0.0000154440   0.0000042329   0.0005188720
       -0.0008384601  -0.0011584592  -0.0003088348   0.0000609020  -0.0000727878
       -0.0000010699   0.0000364087  -0.0000405569  -0.0000296544   0.0000058190
        0.0000019256  -0.0000051752   0.0000017670  -0.0000011681   0.0000001968
        0.0000090371  -0.0000038940  -0.0000004392   0.0000133106  -0.0000025404
       -0.0000003473   0.0000037833   0.0000038257  -0.0000029733   0.0000005050
       -0.0000029016   0.0000002709   0.0000017955  -0.0000007887  -0.0000005186
        0.0000003280  -0.0000000298  -0.0000009131   0.0000011430   0.0000005953
       -0.0000008039  -0.0000003990   0.0000000742  -0.0000006584  -0.0000008271
        0.0000005788  -0.0000004502   0.0000000841   0.0000005558   0.0000004609
        0.0000000098   0.0000013755   0.0000008216   0.0000006224   0.0000009317
        0.0000009122  -0.0000001389  -0.0000010182   0.0000001776  -0.0000002164
       -0.0000008111   0.0000000676   0.0000010717  -0.0000006535  -0.0000016001
        0.0000172474   0.0000135452  -0.0000078227  -0.0000065997  -0.0000179024
       -0.0000229666   0.0000549007  -0.0000464326  -0.0000125021   0.0000435168
        0.0000554898  -0.0000286251   0.0000163463  -0.0000522551   0.0000197129
        0.0000827526  -0.0002036311  -0.0000132145
       -0.0044507793   0.0058797357   0.4907591998  -0.0236534399  -0.0293191612
       -0.0682996155  -0.0014136632  -0.0016469004   0.0017908216  -0.0006547426
       -0.0018947973   0.0071808241   0.0004161403  -0.0000072570  -0.0000515097
        0.0000446460   0.0000786500  -0.0000225021  -0.0000785636  -0.0000229999
       -0.0000594187  -0.0000268009   0.0000230478   0.0000326343   0.0000209273
       -0.0000030699   0.0000131550   0.0000165183  -0.0000258329  -0.0000392221
       -0.0000187370   0.0000313708   0.0000557616   0.0000570123  -0.0000293083
       -0.0000475680  -0.0000276855   0.0000064689   0.0000073753   0.0000105250
       -0.0000049358  -0.0000017302  -0.0000136504   0.0000162410  -0.0000033976
        0.0000585860  -0.0000167534  -0.0000163887  -0.0000948130  -0.0000330789
       -0.0000836593   0.0000401341  -0.0000606421  -0.0001741082   0.0006673011
       -0.0028847153   0.0056690675  -0.0040864066  -0.0085096991  -0.0014042318
       -0.0003396137   0.0005846782  -0.0020019011   0.0004273134  -0.0000416123
       -0.0000856571  -0.0000874665  -0.0000940828  -0.0000560928  -0.0000505150
        0.0000264364  -0.0000671154   0.0000555920  -0.0000377237   0.0000031212
       -0.0000170711   0.0000474171  -0.0000026175   0.0000025510  -0.0000108531
       -0.0000006005  -0.0000012823   0.0000041134  -0.0000017025   0.0000050888
        0.0000020967  -0.0000027594  -0.0000038442   0.0000007818  -0.0000049371
        0.0000176679  -0.0000002761  -0.0000014058   0.0000059309  -0.0000043615
        0.0000026642   0.0000006492  -0.0000012514  -0.0000001859   0.0000253614
        0.0000116760  -0.0000036814  -0.0000278984  -0.0000070889  -0.0000017788
        0.0000076278   0.0000028678   0.0000102245   0.0000130711  -0.0000006741
        0.0000022544   0.0000014457   0.0000048018  -0.0000081849   0.0000027980
        0.0000035042  -0.0000009601  -0.0000084386   0.0000025264  -0.0000044551
        0.0000089580  -0.0000028065   0.0000015303  -0.0000032884  -0.0000021421
        0.0000012538  -0.0000000007   0.0000006500  -0.0000009878   0.0000013821
        0.0000000099  -0.0000023606   0.0000001671   0.0000009575  -0.0000014315
       -0.0000007023   0.0000001308   0.0000012124   0.0000004705   0.0000015556
       -0.0000036277   0.0000001476  -0.0000010648   0.0000032361   0.0000004645
       -0.0000026969  -0.0000018408   0.0000004825   0.0000032501  -0.0000019079
       -0.0000009993   0.0000001026  -0.0000005730   0.0000005901   0.0000005386
        0.0000005373  -0.0000000903  -0.0000012413  -0.0000002528   0.0000005919
        0.0000037676  -0.0000041819   0.0000017141  -0.0000005333   0.0000013009
       -0.0000059568  -0.0000013787   0.0000020067  -0.0000197136  -0.0000050745
        0.0000005490  -0.0000190515   0.0000263743  -0.0000245652  -0.0000247349
       -0.0000168840   0.0000292649  -0.0001174579   0.0000943335  -0.0000547943
       -0.0004078995   0.0000367325  -0.0003244685   0.0000521020  -0.0002660142
       -0.0000611079  -0.1076898605   0.0450092046  -0.1333030659   0.0528513521
       -0.0767064317  -0.0887360050   0.0880845163   0.0685672153  -0.2072594711
        0.0006570084   0.0009051529  -0.0021326688  -0.0000070855  -0.0000006167
        0.0000404459  -0.0000015273   0.0000074840   0.0000205565   0.0000202629
       -0.0000059845   0.0000080030   0.0000131425   0.0000010843   0.0000138199
       -0.0000029068   0.0000017838   0.0000036873  -0.0000077721   0.0000010929
        0.0000078796  -0.0000038767   0.0000037234   0.0000098591  -0.0000359584
        0.0000079357   0.0000074962   0.0000378040   0.0004428015  -0.0013977985
       -0.0002574321  -0.0003011903  -0.0002464282   0.0000826308  -0.0000912243
        0.0001069172   0.0000576473  -0.0000067011   0.0000143379  -0.0000018754
        0.0000042982  -0.0000011033   0.0000005814  -0.0000036171  -0.0000016572
        0.0000015768  -0.0000032073  -0.0000007785   0.0000036027  -0.0000023204
        0.0000000257   0.0000032506  -0.0000018650   0.0000008034  -0.0000003257
       -0.0000002259   0.0000010699   0.0000010658  -0.0000006536   0.0000009275
        0.0000000376  -0.0000003157  -0.0000001618  -0.0000000648   0.0000003116
        0.0000006999   0.0000001097   0.0000003236   0.0000006249  -0.0000001161
       -0.0000000353  -0.0000005026   0.0000000635  -0.0000003926  -0.0000018552
        0.0000000270  -0.0000007863  -0.0000028001   0.0000000932   0.0000001974
       -0.0000023030   0.0000011693  -0.0000000405  -0.0000020024   0.0000002253
        0.0000000406   0.0000019187  -0.0000000373   0.0000007437   0.0000016096
        0.0000075334  -0.0000007074   0.0000010486   0.0000104782  -0.0000233274
        0.0000186652  -0.0000172613   0.0000026350   0.0000266194  -0.0000534686
        0.0000230580   0.0000153077  -0.0000256960   0.0000417794   0.0000704170
       -0.0000375656   0.0001908726   0.0000773538
       -0.1214592095  -0.0715879348  -0.0236534399   0.6487252248  -0.0107354917
        0.0077590547  -0.3190344426   0.0692153672   0.0136718555  -0.0510708710
       -0.0684302229  -0.0195932379   0.0023604459  -0.0015883246  -0.0021316196
       -0.0005177637   0.0008068395   0.0005721246   0.0003500776  -0.0002433112
       -0.0004312223  -0.0001331257   0.0001793122   0.0001766289   0.0002210028
        0.0000188259   0.0001916471  -0.0000682737  -0.0001173343  -0.0002516222
        0.0001569074   0.0002005837   0.0002472220   0.0001906603  -0.0001175752
       -0.0004717020  -0.0001322374   0.0001266769   0.0000614457   0.0000181995
       -0.0000484648  -0.0000492263  -0.0000869350   0.0001553071  -0.0001664899
       -0.0000425832   0.0000539982   0.0003184816  -0.0017827976  -0.0010182454
       -0.0007088981  -0.0374590680   0.0324307312   0.0084207091   0.0550640144
        0.0092913919   0.0034884866  -0.1122490280   0.0351712080   0.0092641584
       -0.0194279181   0.0266287092   0.0073973278  -0.0012061085   0.0009085751
       -0.0014876275  -0.0008255594  -0.0012173434  -0.0000822244   0.0005870557
       -0.0001585025  -0.0000509420  -0.0003227648   0.0003137629   0.0001328544
        0.0000579412  -0.0001454772   0.0001116862  -0.0000136028   0.0000376843
       -0.0000069570   0.0000152337  -0.0000250791  -0.0000026855  -0.0000106476
       -0.0000168905   0.0000063691   0.0000226184  -0.0000044260  -0.0000083108
       -0.0000604211  -0.0000222256   0.0000022982  -0.0000625543   0.0000399223
       -0.0000054204   0.0000290227   0.0000100407  -0.0000099483  -0.0000640185
       -0.0000440600   0.0000140002   0.0000561230   0.0000813728  -0.0000325178
        0.0000035057  -0.0000536447   0.0000220783  -0.0000153210   0.0000022539
       -0.0000038518  -0.0000030493  -0.0000106308   0.0000076251  -0.0000033615
       -0.0000031442   0.0000004868   0.0000140820  -0.0000021853   0.0000047627
       -0.0000072287   0.0000037435  -0.0000066747   0.0000004990   0.0000008065
       -0.0000022066   0.0000001073  -0.0000003358  -0.0000027014   0.0000000143
        0.0000004015  -0.0000024846   0.0000020260  -0.0000023963  -0.0000011859
        0.0000004259   0.0000005533  -0.0000013054   0.0000008455  -0.0000041460
        0.0000006999   0.0000000288   0.0000035663  -0.0000012165  -0.0000007728
        0.0000026141   0.0000001420   0.0000006767  -0.0000019252   0.0000005221
        0.0000011701   0.0000006538   0.0000010383  -0.0000001596  -0.0000004054
        0.0000005954  -0.0000014244  -0.0000009325  -0.0000007386  -0.0000004214
       -0.0000035599   0.0000044558  -0.0000014050   0.0000019637  -0.0000041978
        0.0000078228   0.0000040563  -0.0000102232   0.0000705302   0.0000133437
       -0.0000084213  -0.0000481417  -0.0000745838  -0.0000006362   0.0002087928
        0.0001629692  -0.0000865238  -0.0009347397  -0.0010327705  -0.0009134091
       -0.0018662249   0.0000176524   0.0015465295   0.0000831877   0.0002506383
        0.0003026272  -0.0201037023  -0.0172031496  -0.0069155060   0.0086233124
        0.0091773907   0.0030705719  -0.0128298937  -0.0145179630   0.0000066029
       -0.0133277748   0.0050320750   0.0009829691  -0.0002900451   0.0000792954
        0.0005849944   0.0000204738  -0.0000092959  -0.0000667971   0.0000620962
       -0.0000442085  -0.0000401118   0.0000861127  -0.0000193798   0.0000085459
        0.0000590239  -0.0000041202  -0.0000249820   0.0000404609  -0.0000363329
        0.0000558651  -0.0000053833   0.0000236545   0.0000427006  -0.0001021105
       -0.0000583107   0.0000787968  -0.0000495262   0.0007417939   0.0000656301
       -0.0016701020  -0.0033413074  -0.0013226540   0.0002538750   0.0004092128
        0.0003381408  -0.0001666518   0.0000445875   0.0000344920   0.0000062781
       -0.0000133638   0.0000094274   0.0000024370   0.0000072486   0.0000017939
       -0.0000025595   0.0000080543   0.0000030249  -0.0000117850   0.0000041816
        0.0000014541  -0.0000055672   0.0000060315   0.0000027196  -0.0000003439
        0.0000034345  -0.0000003218  -0.0000018083   0.0000020576  -0.0000005552
       -0.0000005830   0.0000012100  -0.0000011602  -0.0000011228   0.0000003377
       -0.0000022671  -0.0000004717   0.0000009546  -0.0000020690   0.0000000995
        0.0000008191  -0.0000009049   0.0000008980   0.0000010856   0.0000011006
        0.0000009635   0.0000002351   0.0000019674   0.0000006446   0.0000005782
        0.0000014914   0.0000005055   0.0000015984   0.0000006422  -0.0000012780
       -0.0000001283  -0.0000009583  -0.0000015158  -0.0000016869   0.0000006974
       -0.0000158426  -0.0000037118   0.0000019377  -0.0000268715   0.0000301897
        0.0000093230  -0.0002065152   0.0000928766   0.0000145871   0.0001343715
       -0.0000450801  -0.0000993032   0.0000382769  -0.0000278254   0.0000370483
        0.0001555632   0.0002330052  -0.0004169786
       -0.0668414930  -0.1521356803  -0.0293191612  -0.0107354917   0.5808416066
        0.1226268265  -0.0051811486  -0.0921846816  -0.0134581428  -0.0119832834
        0.0403061658   0.0118032048  -0.0030157812  -0.0036120450  -0.0033587445
       -0.0002281121   0.0003962673   0.0006614034  -0.0000786557   0.0000032266
       -0.0002586683  -0.0001532214  -0.0000373868   0.0001380450   0.0000290862
       -0.0000197628  -0.0000259963  -0.0000295926   0.0000321674   0.0000768790
        0.0002418382  -0.0001036795   0.0000255060  -0.0001058864  -0.0000196882
       -0.0003350249  -0.0000773820   0.0000796738   0.0000548101   0.0001359462
       -0.0000213644  -0.0000373890  -0.0001618709  -0.0000570634  -0.0000597289
        0.0002325649   0.0000650867   0.0002018523  -0.0014390637  -0.0002313987
       -0.0001871966   0.0338241162  -0.0213590655  -0.0042419628  -0.0455224776
       -0.0585708768  -0.0180395345   0.1007306093  -0.2483550757  -0.0544058070
        0.0140584260  -0.0060292075  -0.0023218480  -0.0020284615  -0.0013647965
        0.0007832775   0.0001977576   0.0000318859   0.0000258475   0.0000473984
        0.0000511971  -0.0000124657  -0.0004146486   0.0000096322  -0.0000095400
        0.0000851454  -0.0001680114   0.0000976468  -0.0000338622   0.0000241723
       -0.0000075023   0.0000374653  -0.0000308358  -0.0000040453  -0.0000374513
       -0.0000101249   0.0000019380   0.0000153471  -0.0000115707  -0.0000069918
       -0.0000605097  -0.0000350882   0.0000125340  -0.0000983479   0.0000340511
        0.0000098721   0.0000251840   0.0000379154  -0.0000179148  -0.0000944645
       -0.0000752902   0.0000251006   0.0000612611   0.0000857254  -0.0000299923
        0.0000093848  -0.0000541857   0.0000300916  -0.0000156809   0.0000085235
       -0.0000015649  -0.0000037988  -0.0000111907   0.0000092541  -0.0000023173
       -0.0000035416   0.0000007899   0.0000135391   0.0000005994   0.0000056607
       -0.0000062113   0.0000057294  -0.0000071716   0.0000000415   0.0000012019
        0.0000001256  -0.0000000117   0.0000011977   0.0000002987   0.0000001118
        0.0000001364   0.0000018137   0.0000023783  -0.0000035306   0.0000028807
        0.0000002733   0.0000005359   0.0000001024   0.0000009962  -0.0000042753
        0.0000024779   0.0000013376   0.0000038096  -0.0000018543  -0.0000028631
        0.0000014148  -0.0000010823   0.0000001754  -0.0000043471  -0.0000020367
        0.0000004964   0.0000001813  -0.0000030839   0.0000001299  -0.0000006564
       -0.0000028354  -0.0000033844  -0.0000019886  -0.0000031146  -0.0000004189
       -0.0000074043   0.0000048016  -0.0000009700   0.0000029002  -0.0000022535
        0.0000068873   0.0000053290  -0.0000072955   0.0001123166   0.0000077017
       -0.0000044505  -0.0000581173  -0.0000655956  -0.0000095999   0.0001609869
        0.0001967977  -0.0001049437   0.0001742722   0.0000842782  -0.0000018156
       -0.0011803513   0.0001411859  -0.0007995793  -0.0001515345  -0.0001633890
       -0.0002186929   0.0000559087   0.0062541253   0.0006787561  -0.0120908297
       -0.0236704202  -0.0065983153  -0.0129008217  -0.0118903579   0.0006763489
        0.0263258882  -0.0069660066  -0.0014904127   0.0001714964   0.0001184882
        0.0000107733   0.0000201108  -0.0000132643  -0.0000471526   0.0000406694
        0.0000027542  -0.0000209107   0.0000569694  -0.0000016880   0.0000016813
        0.0000207847  -0.0000069241  -0.0000143756   0.0000286350   0.0000266686
        0.0000165594   0.0000025865   0.0000106120   0.0000456488  -0.0000546319
       -0.0000107859  -0.0001483356   0.0005972765   0.0002838588   0.0000499244
       -0.0027345585  -0.0023394824  -0.0029193610   0.0001087579   0.0000865060
        0.0000032624  -0.0000862328   0.0001177544   0.0001450392   0.0000395330
       -0.0000009338   0.0000019449   0.0000086248   0.0000105853  -0.0000033549
       -0.0000012924   0.0000078649  -0.0000027083  -0.0000139593   0.0000061229
        0.0000000405  -0.0000085706   0.0000067331   0.0000024786  -0.0000027781
        0.0000045898   0.0000009246  -0.0000023560   0.0000015616   0.0000001303
       -0.0000002640   0.0000020706   0.0000029428  -0.0000017026   0.0000006317
        0.0000029995  -0.0000013154   0.0000010918   0.0000019264  -0.0000006105
        0.0000004820   0.0000004128   0.0000005483   0.0000003223  -0.0000020734
        0.0000010532  -0.0000001926  -0.0000027217   0.0000007253   0.0000017158
       -0.0000022365   0.0000011422   0.0000029574   0.0000001507  -0.0000020527
        0.0000029042   0.0000015425  -0.0000025879   0.0000019926   0.0000053609
       -0.0000230499  -0.0000040466   0.0000091640  -0.0000328271   0.0000229695
        0.0000282762  -0.0001061266   0.0000908782  -0.0000666515  -0.0000723194
       -0.0003355554   0.0000116536  -0.0002202988   0.0001092415  -0.0001808714
        0.0004198681   0.0003566777   0.0005075299
       -0.0196711757  -0.0268759615  -0.0682996155   0.0077590547   0.1226268265
        0.1801923352  -0.0079981714  -0.0110251695  -0.0495227553  -0.0036423482
        0.0100595372  -0.0004173653  -0.0028752114  -0.0024180208   0.0065785145
       -0.0008263070  -0.0005270069  -0.0001630217   0.0002333816   0.0000318655
       -0.0000553055   0.0000328747   0.0000470358  -0.0000443229   0.0000074558
       -0.0000146852  -0.0000017057  -0.0000321900   0.0000529179  -0.0000484164
       -0.0002799622   0.0001682134  -0.0000207063   0.0000663072   0.0002461017
        0.0002835320   0.0000823200   0.0000278340  -0.0000897650  -0.0000312302
        0.0000035214   0.0000083291   0.0000269745   0.0000352086   0.0000097108
        0.0000783916  -0.0000458857  -0.0000956575   0.0009252081  -0.0005422515
        0.0003475144   0.0085525337  -0.0040062753  -0.0051758151  -0.0119205564
       -0.0169650597  -0.0038561467   0.0280128264  -0.0561344651  -0.0660111249
        0.0031494262  -0.0017464791   0.0012236665   0.0004415256   0.0004086100
        0.0002558354  -0.0001525796   0.0001757373  -0.0000325575   0.0000918799
       -0.0000595193   0.0000798449  -0.0001171651   0.0000212166  -0.0000194240
        0.0000234461  -0.0000479793   0.0000299678  -0.0000137500   0.0000066847
       -0.0000001851   0.0000092603  -0.0000079273   0.0000001584  -0.0000098747
       -0.0000022354   0.0000006256   0.0000048539  -0.0000043084  -0.0000023355
       -0.0000176182  -0.0000067517   0.0000047113  -0.0000174698   0.0000077752
        0.0000029782   0.0000040731   0.0000055420  -0.0000031935  -0.0000215594
       -0.0000158459   0.0000057530   0.0000166828   0.0000144680  -0.0000024027
        0.0000009006  -0.0000095053   0.0000025781  -0.0000052594   0.0000017231
       -0.0000013811  -0.0000003118  -0.0000035299   0.0000023243  -0.0000018896
       -0.0000003827   0.0000010739   0.0000053930  -0.0000013036   0.0000025578
       -0.0000031295   0.0000029321  -0.0000016456   0.0000000900  -0.0000000464
       -0.0000007388   0.0000002093  -0.0000002988  -0.0000004354   0.0000004725
       -0.0000002240  -0.0000015065   0.0000010453  -0.0000011058   0.0000002996
        0.0000000111   0.0000003199   0.0000015016   0.0000006998  -0.0000031427
       -0.0000001201  -0.0000010680   0.0000021042   0.0000013415  -0.0000002880
        0.0000004314   0.0000001393  -0.0000000071  -0.0000008627   0.0000008474
        0.0000000029   0.0000002716   0.0000012814  -0.0000005181  -0.0000002048
        0.0000017357  -0.0000009315  -0.0000010023   0.0000011392   0.0000002410
       -0.0000030671   0.0000017614  -0.0000000168   0.0000010357  -0.0000012962
        0.0000016355   0.0000008964  -0.0000019380   0.0000288117   0.0000026871
       -0.0000029135  -0.0000154779  -0.0000189999  -0.0000023783   0.0000390254
        0.0000438301  -0.0000288806  -0.0000110963  -0.0001316082  -0.0000478300
       -0.0008806050  -0.0004832884  -0.0010089239  -0.0005053025  -0.0000523295
       -0.0001727852  -0.0137647746  -0.0141586238  -0.0042631954  -0.0072911390
       -0.0118557426  -0.0030932263   0.0141732757   0.0178531748   0.0062259345
        0.0069889854  -0.0022540313   0.0006224142   0.0001805351  -0.0000496258
       -0.0001197357   0.0000060704   0.0000043466  -0.0000037650  -0.0000089777
       -0.0000129283   0.0000087684  -0.0000169649   0.0000122032   0.0000090000
        0.0000280237   0.0000100323   0.0000120126   0.0000022566  -0.0000068589
        0.0000016440   0.0000053649  -0.0000008105   0.0000091457  -0.0000308631
       -0.0000439350  -0.0000323132   0.0001708174   0.0001222298  -0.0000372939
       -0.0010448417  -0.0029171109   0.0068946767   0.0001290431   0.0000865730
       -0.0000530942  -0.0000446228  -0.0000117608   0.0000122659   0.0000109683
        0.0000006797   0.0000026401   0.0000021048   0.0000040490   0.0000001990
        0.0000002044   0.0000020781   0.0000008043  -0.0000026495   0.0000015281
        0.0000010407  -0.0000023030   0.0000015625   0.0000015199  -0.0000004425
        0.0000015252   0.0000000798  -0.0000005918   0.0000008498  -0.0000000698
       -0.0000000355   0.0000002793  -0.0000000801  -0.0000003169  -0.0000000169
        0.0000001362  -0.0000001779   0.0000000091   0.0000003833  -0.0000002280
       -0.0000000290   0.0000004938  -0.0000000782   0.0000000820   0.0000009124
       -0.0000000852  -0.0000001818   0.0000007645   0.0000001538   0.0000003302
        0.0000007041   0.0000007574   0.0000005315  -0.0000001360  -0.0000009534
       -0.0000000932   0.0000011865  -0.0000004132  -0.0000005341   0.0000009645
       -0.0000070659  -0.0000007724   0.0000024556  -0.0000139543   0.0000127756
        0.0000037862  -0.0000151113   0.0001195099   0.0000121896   0.0001831776
       -0.0001165539   0.0000884787  -0.0000450008   0.0000060908  -0.0000338559
       -0.0001340907   0.0003505711  -0.0001852992
       -0.0277785124  -0.0044714736  -0.0014136632  -0.3190344426  -0.0051811486
       -0.0079981714   0.6598554642  -0.0097861258   0.0125859031  -0.1598692166
       -0.0656633461  -0.0228204042  -0.0459231878  -0.0221502824  -0.0101147413
        0.0010275405  -0.0037017319  -0.0020413380  -0.0008716699   0.0001311168
        0.0001960571   0.0003272477  -0.0002376112  -0.0002902282  -0.0002435857