$hessian                                                                        
        0.5047828167  -0.0271781232  -0.0152845608  -0.1119160489  -0.0403471224
       -0.0528178483  -0.0253645776  -0.0139639204  -0.0208334505  -0.0028220269
        0.0029296940   0.0000681845  -0.0015671356  -0.0007599563  -0.0008971235
        0.0002340342   0.0005175443  -0.0002248004   0.0000536343  -0.0002068419
        0.0000607355   0.0000205069  -0.0000472597   0.0000088303  -0.0000058464
       -0.0001768389   0.0000276211   0.0000573836   0.0003000003  -0.0000287374
       -0.0003940144  -0.0001571239   0.0000410153  -0.0001701694   0.0002183030
       -0.0000337359  -0.0000795742  -0.0002531441   0.0000438166   0.0000682835
        0.0001667217  -0.0000250788   0.0000494433   0.0000054819   0.0000067591
        0.0002039431   0.0001547257   0.0000156923   0.0002123125  -0.0005509695
        0.0000983982  -0.0007397381  -0.0006169705  -0.0005762176   0.0003748141
        0.0032809187   0.0007399850   0.0064643588   0.0020311230   0.0024488742
       -0.0002233588   0.0005416325   0.0015320288  -0.0000238079   0.0001361698
        0.0004987754   0.0001518094  -0.0000088871  -0.0000934565  -0.0000121761
       -0.0000596847  -0.0000259805  -0.0002574093   0.0000480627  -0.0000239385
        0.0001106938  -0.0002590287  -0.0000886975   0.0000710629   0.0000490540
        0.0000328448  -0.0000127676   0.0000488568   0.0000168307   0.0001128794
        0.0001346363   0.0000601833  -0.0000181834  -0.0002788987  -0.0001085894
       -0.0001535234   0.0002396811   0.0000871476  -0.0001848808  -0.0001567071
       -0.0000437827   0.0000544650   0.0003279968   0.0000465132   0.0001530556
       -0.0002158772  -0.0000515318  -0.0001751841  -0.0000672446   0.0001012735
        0.0000467337   0.0000830653  -0.0000052414   0.0000381834   0.0000062445
       -0.0000235639  -0.0000253126  -0.0000259727  -0.0000322689   0.0000001302
       -0.0000190607  -0.0000396877   0.0000656146  -0.0000101778  -0.0000303272
        0.0000821514  -0.0000092138  -0.0000261600  -0.0001020321  -0.0001371404
        0.0000540348   0.0000268001   0.0000401096  -0.0000132506  -0.0000143191
       -0.0000350582   0.0000088789   0.0000062060  -0.0000366922  -0.0000001000
       -0.0000146177   0.0000261746   0.0000047199   0.0000470025  -0.0001151131
       -0.0000129681  -0.0001141376   0.0000174705   0.0000430813   0.0000717456
        0.0000950432  -0.0000331970  -0.0000203351  -0.0000182106   0.0000095976
        0.0000159103   0.0000357348  -0.0000089686  -0.0000078616   0.0000391513
        0.0000008347   0.0000196680  -0.0000456912  -0.0000023284  -0.0000726375
        0.0001616086   0.0000119327   0.0000400469   0.0000142552   0.0000352057
        0.0000107657   0.0000298561   0.0000224164   0.0000081828  -0.0000208561
       -0.0000465727   0.0001481633  -0.0001986355  -0.0000644196   0.0002105842
        0.0002331255   0.0001206236  -0.0000148958  -0.0000176732  -0.0000142937
        0.0001504280  -0.0001990080   0.0003776830  -0.0001046487   0.0000199915
       -0.0000174774  -0.1028398459  -0.0850260954   0.0600581647  -0.1421252305
        0.0967230492  -0.0705395800  -0.1256009999   0.0637247480   0.0954464249
        0.0008465523  -0.0016867955  -0.0006474130  -0.0000307021   0.0000710264
       -0.0000215010  -0.0000145081  -0.0000005803  -0.0000041054  -0.0000104686
       -0.0000031392  -0.0000026432  -0.0000210090  -0.0000113410  -0.0000000591
       -0.0000089722   0.0000091119  -0.0000055383  -0.0000195581   0.0000037765
       -0.0000063283  -0.0000229337   0.0000118705  -0.0000060877  -0.0001188321
       -0.0000885841  -0.0000054391   0.0000509815  -0.0002700489   0.0001992357
        0.0002579366   0.0003752234   0.0005564428  -0.0000956944   0.0002743126
       -0.0000326620   0.0000382756   0.0000138130  -0.0000108293  -0.0000063862
        0.0000029631  -0.0000023814  -0.0000035712   0.0000010124  -0.0000010991
        0.0000028318   0.0000006858   0.0000023939   0.0000040496   0.0000069112
        0.0000043157  -0.0000001234   0.0000086291  -0.0000110382  -0.0000070855
        0.0000035240   0.0000101146   0.0000069758   0.0000004910  -0.0000022985
       -0.0000076594  -0.0000035762   0.0000039907  -0.0000033078   0.0000084211
       -0.0000017400   0.0000023151   0.0000062490  -0.0000021114   0.0000042257
       -0.0000018940  -0.0000017307   0.0000040697  -0.0000008391  -0.0000019877
        0.0000003150  -0.0000061485   0.0000013668  -0.0000056511  -0.0000062615
        0.0000028183  -0.0000077095   0.0000036705   0.0000027031   0.0000015711
       -0.0000048284  -0.0000044617  -0.0000095050  -0.0000016725  -0.0000029817
        0.0000087540   0.0000183059   0.0000115384  -0.0000523396   0.0000160811
        0.0000072865   0.0000372799   0.0000058831  -0.0000278492   0.0000644150
        0.0000308184  -0.0000316806   0.0000304405   0.0000282381  -0.0000252897
        0.0000985108   0.0000236581  -0.0000041231
       -0.0271781232   0.4905778808   0.0006898632  -0.0428056404  -0.1015824419
       -0.0515522592  -0.0004885498   0.0031853090   0.0000108744   0.0021138581
        0.0041684676  -0.0032240488   0.0005174462   0.0000647678   0.0002513552
        0.0000714830   0.0000244407   0.0000304617   0.0000792433  -0.0000769379
        0.0000364453  -0.0000066420   0.0000047537  -0.0000050910   0.0000139494
       -0.0000489418   0.0000038100  -0.0000021102   0.0000777404  -0.0000156064
        0.0000069210  -0.0000856232   0.0000050111  -0.0000563116   0.0001195707
       -0.0000195016   0.0000044429  -0.0001052825   0.0000157358   0.0000418090
        0.0000415191  -0.0000059040  -0.0000151557   0.0000391813  -0.0000021781
       -0.0000704424  -0.0000200919   0.0000081929   0.0000905509  -0.0001371846
        0.0000924523  -0.0005258310  -0.0003878834  -0.0003049370   0.0036427408
        0.0006497591  -0.0043670834  -0.0097442260  -0.0156158210  -0.0182448166
       -0.0010605821  -0.0011304989   0.0007719781  -0.0002332603  -0.0002228094
       -0.0002586106  -0.0002091573   0.0000752950  -0.0000764789   0.0000480624
       -0.0001301922   0.0000683731   0.0000217545  -0.0000113310   0.0000384024
       -0.0000117908   0.0000525490  -0.0000022553  -0.0000299387  -0.0000185028
        0.0000007687  -0.0000189285   0.0000169690   0.0000077579  -0.0000066102
       -0.0000042420  -0.0000018320  -0.0000079962   0.0000149809   0.0000051946
        0.0000019823  -0.0000059149   0.0000050021   0.0000283584   0.0000174758
        0.0000190727  -0.0000562017  -0.0000243907  -0.0000279727   0.0000663348
        0.0000436618   0.0000299074  -0.0000379838  -0.0001100452  -0.0000777045
       -0.0000197600   0.0001466098   0.0001252729  -0.0000019207   0.0000159842
        0.0000076756  -0.0000165406  -0.0000285388  -0.0000322009   0.0000036424
       -0.0000410177  -0.0000239915  -0.0000601711   0.0000071344   0.0000202916
       -0.0000385524   0.0000109277   0.0000141499   0.0000888544   0.0000895751
       -0.0000510518   0.0000210797  -0.0000819596  -0.0000022820   0.0001006881
        0.0000156784  -0.0000401802  -0.0000785591   0.0000521460   0.0000218167
       -0.0000378288  -0.0000627084   0.0000172921  -0.0001094341   0.0001580417
        0.0000351097   0.0001588089  -0.0000209602  -0.0000621574  -0.0001419713
       -0.0001229154   0.0000628453  -0.0000202947   0.0000707352   0.0000039757
       -0.0000847653  -0.0000294693   0.0000395969   0.0000909964  -0.0000475738
       -0.0000285611   0.0000344815   0.0000752417  -0.0000221279   0.0000755515
       -0.0001193692  -0.0000065846   0.0000238569   0.0000417884   0.0000216479
        0.0000157213   0.0000046885   0.0000126824  -0.0000126539  -0.0000278130
       -0.0000363116   0.0000184168  -0.0000429684   0.0000219445  -0.0000117087
       -0.0000384122  -0.0000345319  -0.0000151273  -0.0001163889  -0.0000630997
        0.0000418084  -0.0000590170  -0.0000507564   0.0000110214   0.0002829300
        0.0000791671  -0.0857418748  -0.1570291263   0.0800925743   0.0979186420
       -0.1312333385   0.0662655575   0.0637231291  -0.0894816230  -0.0723622094
        0.0004586786  -0.0006637107   0.0022753032  -0.0000305126   0.0000418032
       -0.0000109778  -0.0000045678   0.0000132635  -0.0000005192  -0.0000122197
        0.0000059025  -0.0000010249  -0.0000082258   0.0000031031  -0.0000025036
        0.0000093751   0.0000107658  -0.0000040675   0.0000141680   0.0000054750
       -0.0000011759  -0.0000019994   0.0000356567  -0.0000091113  -0.0000053576
        0.0000289582  -0.0000396681  -0.0002205004  -0.0006145215   0.0008276361
       -0.0006310141  -0.0006731922  -0.0006463221   0.0000606997   0.0000253472
       -0.0000579515   0.0000161995  -0.0000250469  -0.0000678528   0.0000013381
       -0.0000008888  -0.0000091761   0.0000023671  -0.0000008511   0.0000008783
        0.0000128483  -0.0000042133  -0.0000029568   0.0000155532   0.0000019881
        0.0000024638   0.0000129955   0.0000096600  -0.0000021077  -0.0000031037
        0.0000051800   0.0000059407   0.0000137554   0.0000060548  -0.0000008419
       -0.0000024002  -0.0000035241   0.0000017967   0.0000021085   0.0000080735
        0.0000008970   0.0000016340   0.0000052390   0.0000007605   0.0000031618
       -0.0000022789  -0.0000010088   0.0000038134   0.0000019928  -0.0000023607
        0.0000010302  -0.0000036756  -0.0000000568  -0.0000040357  -0.0000058481
       -0.0000001998  -0.0000022051   0.0000036266  -0.0000021257   0.0000079987
       -0.0000067693  -0.0000066834  -0.0000091850  -0.0000027399  -0.0000074542
        0.0000263114   0.0000194482   0.0000074240  -0.0000035009   0.0000170563
       -0.0000197350   0.0000593817  -0.0000136943  -0.0000297644   0.0000217794
        0.0000644817   0.0000216940   0.0000301899  -0.0000355223  -0.0000267909
        0.0000444495  -0.0001010670  -0.0001222898
       -0.0152845608   0.0006898632   0.4895172153  -0.0580641246  -0.0551426148
       -0.1277095808  -0.0081886322  -0.0037477998  -0.0040293449  -0.0008387886
       -0.0031170602   0.0040719056  -0.0005120867  -0.0000262255  -0.0002123813
        0.0001612739   0.0001943074  -0.0000693188   0.0000032923  -0.0000590095
        0.0000240556   0.0000197155   0.0000024262   0.0000005980  -0.0000061067
       -0.0000349256   0.0000099377   0.0000252881   0.0000632775  -0.0000065350
       -0.0001040194  -0.0000113075  -0.0000026951  -0.0000379041   0.0000327447
       -0.0000126972  -0.0000174976  -0.0000471752   0.0000068621   0.0000076421
        0.0000391570  -0.0000001149   0.0000378644  -0.0000420342   0.0000039580
        0.0000890217   0.0000726945  -0.0000273655   0.0001058103  -0.0002239242
        0.0000263483  -0.0004651851   0.0000096329  -0.0002716531   0.0011904791
       -0.0048458219   0.0021642428  -0.0086878848  -0.0142967300  -0.0145491083
       -0.0003524553   0.0010431221  -0.0011404217   0.0002757721  -0.0001035668
       -0.0002048160  -0.0002139192   0.0000125723  -0.0001672136  -0.0001131789
       -0.0000199555   0.0000116090   0.0001165193  -0.0000369579   0.0000219887
        0.0000018921   0.0000398257   0.0000118896  -0.0000194186  -0.0000216047
       -0.0000148963  -0.0000099371   0.0000121757   0.0000042581   0.0000073184
        0.0000021760   0.0000017886   0.0000026506  -0.0000005783   0.0000020818
        0.0000099571  -0.0000004404   0.0000023301   0.0000213522  -0.0000042385
        0.0000053060  -0.0000130010  -0.0000082962  -0.0000132035   0.0000365933
        0.0000215570   0.0000152368   0.0000043008  -0.0000547779  -0.0000601707
       -0.0000252068   0.0000642227   0.0000782377   0.0000083989   0.0000010522
        0.0000035387  -0.0000121642  -0.0000144759  -0.0000142339   0.0000102266
       -0.0000117368  -0.0000122608  -0.0000252057   0.0000046893   0.0000108254
       -0.0000171918   0.0000041756   0.0000084279   0.0000285514   0.0000351180
       -0.0000154373   0.0000015547  -0.0000212106  -0.0000024729   0.0000259641
        0.0000050606  -0.0000094709  -0.0000213051   0.0000162299   0.0000036422
       -0.0000092307  -0.0000148448   0.0000025016  -0.0000308839   0.0000492937
        0.0000084516   0.0000478385  -0.0000113548  -0.0000164252  -0.0000382112
       -0.0000390291   0.0000213209  -0.0000024985   0.0000186713   0.0000015684
       -0.0000218355  -0.0000074008   0.0000103790   0.0000235592  -0.0000110564
       -0.0000101361   0.0000118668   0.0000178136   0.0000022829   0.0000229310
       -0.0000400463   0.0000005144   0.0000071196   0.0000121564   0.0000026352
       -0.0000001456   0.0000044451   0.0000050572  -0.0000220135  -0.0000123914
       -0.0000065266   0.0000118417   0.0000161185   0.0000024129  -0.0000523893
       -0.0000491674  -0.0000110608   0.0000445952   0.0000971076  -0.0000324907
       -0.0004873694   0.0003637145  -0.0002671029   0.0000046624  -0.0000012257
       -0.0000124773   0.0634800497   0.0835119035  -0.0964739420  -0.0698168545
        0.0661614735  -0.0927696774   0.0961826843  -0.0716601039  -0.1560829947
        0.0016036613   0.0012619193  -0.0004791758   0.0000075104   0.0000296248
       -0.0000275601  -0.0000065798  -0.0000110994   0.0000024621  -0.0000130402
       -0.0000019154   0.0000033961  -0.0000154337  -0.0000024322  -0.0000001704
       -0.0000179917   0.0000032552  -0.0000010705  -0.0000167959   0.0000096695
       -0.0000002324  -0.0000166927   0.0000061653  -0.0000034154  -0.0000734545
       -0.0000419267   0.0000240732   0.0002312846   0.0007104637  -0.0006683797
       -0.0004933353  -0.0004468316  -0.0006790595   0.0001740059  -0.0002717844
       -0.0000630997   0.0000802364  -0.0000214985  -0.0000029377  -0.0000008739
        0.0000048530   0.0000028034  -0.0000034031  -0.0000006786  -0.0000011189
        0.0000070741  -0.0000019259   0.0000022687   0.0000106409  -0.0000035365
        0.0000018682   0.0000060791   0.0000023429   0.0000005978   0.0000010108
       -0.0000012161   0.0000015415   0.0000115351  -0.0000008581   0.0000023818
       -0.0000049933   0.0000013853  -0.0000010279  -0.0000002784   0.0000068706
        0.0000018276   0.0000052930   0.0000050158  -0.0000023312   0.0000052457
       -0.0000014293  -0.0000020332   0.0000056307  -0.0000002457  -0.0000020568
        0.0000031824  -0.0000060855   0.0000001421  -0.0000023937  -0.0000061925
        0.0000031217  -0.0000055377  -0.0000006856   0.0000042633   0.0000032789
        0.0000030643  -0.0000054609  -0.0000059052  -0.0000021590  -0.0000030077
        0.0000161592   0.0000108231   0.0000019866  -0.0000110446  -0.0000249407
       -0.0000057152   0.0000101893  -0.0000305615   0.0000104673  -0.0000250921
        0.0000620981   0.0000190232  -0.0000072485  -0.0000345956   0.0000544668
        0.0000206956  -0.0000846424  -0.0000240208
       -0.1119160489  -0.0428056404  -0.0580641246   0.6259565701  -0.0723014757
        0.0683908231  -0.3091015579   0.0805519864   0.0006256930  -0.0457347905
       -0.0464473571  -0.0573039598   0.0027849687  -0.0015787172  -0.0009820020
       -0.0015031376  -0.0010398329  -0.0009751731   0.0000803984   0.0002934947
       -0.0001075648  -0.0001859219  -0.0000846942   0.0001827982   0.0000364004
       -0.0001017316  -0.0000004834  -0.0000858086   0.0001584046   0.0000638981
        0.0001213353  -0.0004779489   0.0001981161   0.0001262603   0.0004196725
        0.0001151569  -0.0000980916  -0.0003191044   0.0000155250   0.0002974233
        0.0001303908  -0.0000350290  -0.0001588217   0.0002608013   0.0000246551
        0.0003831158  -0.0005863875   0.0000753654  -0.0007176098   0.0010675845
        0.0002859802  -0.0384496247   0.0277892440   0.0164693920   0.0533893304
        0.0021609329   0.0185951538  -0.1149502653   0.0392186400   0.0178123197
       -0.0206126925   0.0226859705   0.0143755939   0.0000293238   0.0021639004
       -0.0007485240  -0.0009279476  -0.0004779999  -0.0009066627   0.0011345091
       -0.0002712476  -0.0000302954  -0.0007374291   0.0002818400   0.0002278534
        0.0000847521  -0.0003371229   0.0000475903   0.0000278351   0.0001046544
        0.0000629228   0.0000454990  -0.0000238822  -0.0000073317  -0.0000124980
        0.0000328224   0.0000076195  -0.0000081978  -0.0000794192  -0.0000456424
       -0.0001228725   0.0000353891   0.0000080347  -0.0000467814   0.0000187175
        0.0000190047  -0.0000334238   0.0000918389   0.0000029352   0.0000874818
       -0.0000875922   0.0000025035  -0.0002366282   0.0000026786   0.0001573855
        0.0000830120   0.0000236528  -0.0000633450   0.0001219519   0.0000183474
       -0.0000551969  -0.0000771173  -0.0000288226  -0.0000146755   0.0000220018
       -0.0000537224  -0.0000378525  -0.0000864258   0.0000057772   0.0000201557
       -0.0000233207  -0.0000071714   0.0000014989   0.0000832952   0.0000928305
       -0.0000493420   0.0000254805  -0.0000789874   0.0000137878   0.0000825131
        0.0000154081  -0.0000404054  -0.0000632549   0.0000399412   0.0000164436
       -0.0000145577  -0.0000517696   0.0000310217  -0.0000974863   0.0001328090
        0.0000246126   0.0001347373   0.0000035619  -0.0000506733  -0.0001236335
       -0.0001047600   0.0000539059  -0.0000345338   0.0000572379  -0.0000264594
       -0.0000674647  -0.0000248390   0.0000308757   0.0000755881  -0.0000431728
       -0.0000350058   0.0000131436   0.0000659024  -0.0000419058   0.0000655105
       -0.0001149283  -0.0000244094   0.0000691175   0.0000341821   0.0000202807
       -0.0000367017   0.0000262160   0.0000425184   0.0000392054  -0.0000114887
       -0.0000774266  -0.0000046849  -0.0000770110  -0.0000638376   0.0002625102
        0.0002549489   0.0000206234  -0.0011164976  -0.0001235273  -0.0014478907
       -0.0023275099  -0.0008958796   0.0008012276   0.0001496012  -0.0001003120
        0.0005356985  -0.0131343805  -0.0132093285  -0.0108180326  -0.0166971764
       -0.0092612305  -0.0151255773   0.0090151677   0.0071614918   0.0098819808
       -0.0141531552   0.0056040132   0.0009001231  -0.0000552320   0.0000412246
       -0.0000898731  -0.0000112835   0.0000529294  -0.0000070367   0.0000395921
       -0.0000115499  -0.0000520971   0.0000515784  -0.0000046984   0.0000271821
        0.0000843484  -0.0000025113  -0.0000045267   0.0000330776  -0.0000457414
       -0.0000130515   0.0000284041  -0.0000440394   0.0000311192  -0.0000901511
        0.0005216575  -0.0002343913  -0.0001242352   0.0005722923   0.0004366667
       -0.0010439173  -0.0012333906  -0.0036448652   0.0000900332   0.0000077596
        0.0006009228  -0.0001365215  -0.0000574923  -0.0000044505   0.0000180815
       -0.0000118739  -0.0000205410   0.0000283405   0.0000094250   0.0000216846
       -0.0000122190   0.0000051116  -0.0000054550  -0.0000294551   0.0000175114
       -0.0000016826  -0.0000174613   0.0000167465   0.0000035934  -0.0000054169
        0.0000283984   0.0000136609  -0.0000295615   0.0000271219  -0.0000196196
        0.0000345631  -0.0000216951   0.0000037068   0.0000119045  -0.0000367014
       -0.0000132106  -0.0000284968  -0.0000356841   0.0000114743  -0.0000352358
       -0.0000003583   0.0000111307  -0.0000339225   0.0000020797   0.0000153354
       -0.0000198195   0.0000377431   0.0000033968   0.0000083345   0.0000307344
       -0.0000161588   0.0000367494   0.0000148264  -0.0000181559  -0.0000099336
       -0.0000297233   0.0000378638   0.0000291499   0.0000054289   0.0000265537
        0.0000096162  -0.0000262718   0.0000127503  -0.0000184323   0.0000118834
        0.0000110699  -0.0002494303   0.0001547459  -0.0000055709   0.0001084170
        0.0000354041  -0.0000334895  -0.0000010182  -0.0000128436  -0.0000096572
        0.0002095638   0.0001833721  -0.0000565241
       -0.0403471224  -0.1015824419  -0.0551426148  -0.0723014757   0.4061283540
        0.2232912239   0.0242284609  -0.0805610237  -0.0253552881  -0.0034942999
        0.0263020291   0.0272385583  -0.0042481603   0.0022531121  -0.0059692205
        0.0005831986   0.0002795399  -0.0002001903  -0.0000281582  -0.0000574778
        0.0000204982   0.0001404156   0.0001037996  -0.0000375031  -0.0000716511
        0.0002447021  -0.0000380257  -0.0000448139  -0.0003863175   0.0001003833
        0.0001131258   0.0006009546   0.0000896889  -0.0001699498  -0.0004025015
        0.0000993400   0.0000548897   0.0004179542   0.0000135241  -0.0002255215
       -0.0002218979   0.0000163316   0.0000776588  -0.0001484399   0.0000412624
       -0.0000995479  -0.0000030151   0.0001036307  -0.0005129289  -0.0003321556
       -0.0007278444   0.0279785500  -0.0182262246  -0.0055754403  -0.0351377741
       -0.0292405672  -0.0395661423   0.0846628394  -0.1779687988  -0.0927688776
        0.0160677996  -0.0068859262  -0.0036943238  -0.0030602323  -0.0022176809
       -0.0010887326   0.0009986260  -0.0006706328   0.0002345548  -0.0012892654
        0.0003583264   0.0000551427   0.0008233590  -0.0000152439   0.0000245583
       -0.0000048919   0.0002330954  -0.0000813129  -0.0000756127  -0.0001018816
       -0.0000651232  -0.0000196654  -0.0000282665  -0.0000051731  -0.0000096657
       -0.0000736725  -0.0000186841   0.0000744379   0.0000976898   0.0000664811
        0.0000830753  -0.0000639475  -0.0000665764   0.0000719396   0.0000077368
       -0.0000533780   0.0001369462  -0.0001311800   0.0000824433  -0.0002606780
        0.0000405240  -0.0000778704   0.0004107876   0.0001210377  -0.0001904278
       -0.0000990058  -0.0002064276  -0.0000576487  -0.0001636638  -0.0000423694
        0.0000622622   0.0001553221   0.0001114112   0.0001009172  -0.0000369295
        0.0001931472   0.0001340060   0.0002666414  -0.0000308239  -0.0000855133
        0.0001527542  -0.0000114083  -0.0000508165  -0.0003751524  -0.0003896261
        0.0002061400  -0.0000803649   0.0003530237  -0.0000033415  -0.0004009374
       -0.0000706610   0.0001610771   0.0003230553  -0.0002243932  -0.0000901005
        0.0001384486   0.0002668123  -0.0000858377   0.0004606256  -0.0006468083
       -0.0001386219  -0.0006433807   0.0000897673   0.0002440897   0.0005733115
        0.0004912165  -0.0002636574   0.0000955348  -0.0003089684   0.0000099566
        0.0003463037   0.0001256488  -0.0001606282  -0.0003697452   0.0001882083
        0.0001424512  -0.0001385489  -0.0003134391   0.0000929394  -0.0002958950
        0.0004732912   0.0000436759  -0.0001706899  -0.0001747922  -0.0000945116
        0.0000177639  -0.0000656506  -0.0001007890   0.0000042679   0.0000619039
        0.0001871406   0.0000038239   0.0001418373   0.0000557208  -0.0003195317
       -0.0002670718   0.0000114602   0.0010763448   0.0003663327   0.0002992593
       -0.0006785382   0.0016066336  -0.0001566830  -0.0000711286   0.0000266097
       -0.0003375156  -0.0165347554  -0.0142373956  -0.0137652369   0.0072170592
        0.0093138003   0.0104287044  -0.0061302128  -0.0107022424  -0.0119747859
        0.0212631007  -0.0056126394  -0.0011452857  -0.0000354299  -0.0001046199
        0.0000081911   0.0000178567  -0.0000317368   0.0000016864  -0.0000126343
        0.0000070864   0.0000184291  -0.0000082040   0.0000059124  -0.0000113788
       -0.0000435970   0.0000083468   0.0000097936  -0.0000034556   0.0000210092
       -0.0000071749   0.0000193315  -0.0000000164   0.0000030359   0.0002158746
       -0.0000406119   0.0000745584   0.0003929833  -0.0000867772   0.0002838003
       -0.0007785103   0.0021062844  -0.0053686446  -0.0001328119   0.0000780645
        0.0000857530  -0.0000591712   0.0001350816   0.0001979270   0.0000301586
        0.0000098187   0.0000292349  -0.0000101219   0.0000148021  -0.0000033174
       -0.0000129062   0.0000158126   0.0000093156  -0.0000196545  -0.0000127989
       -0.0000019177  -0.0000358259  -0.0000123099   0.0000125756   0.0000187910
       -0.0000312117  -0.0000280471  -0.0000314192  -0.0000385121   0.0000147690
       -0.0000079905   0.0000236547  -0.0000121048  -0.0000086253  -0.0000070711
        0.0000015512   0.0000041205   0.0000022213  -0.0000066717   0.0000032390
        0.0000056519  -0.0000029976   0.0000023306  -0.0000027654  -0.0000017939
        0.0000072257  -0.0000021459   0.0000000245   0.0000055147   0.0000083626
        0.0000065957  -0.0000093118  -0.0000192191   0.0000073404  -0.0000193387
        0.0000452981   0.0000050848   0.0000147351   0.0000123853   0.0000042127
       -0.0000680839  -0.0000073601  -0.0000275567  -0.0000035401   0.0000038251
       -0.0000201506  -0.0000499174  -0.0000246718  -0.0000622031  -0.0001596658
       -0.0001389211  -0.0001439479  -0.0001330026   0.0001535329  -0.0000401167
        0.0002204842  -0.0004708907   0.0005404449
       -0.0528178483  -0.0515522592  -0.1277095808   0.0683908231   0.2232912239
        0.3730029831  -0.0505734108  -0.0093450660  -0.0705471757  -0.0180100037
        0.0148853907   0.0062785138  -0.0019884564  -0.0064699468   0.0012930260
       -0.0020174055  -0.0001968501  -0.0001884261   0.0000582664   0.0003302032
       -0.0000339563  -0.0000589531   0.0000156710  -0.0000355502   0.0000380429
        0.0001835967  -0.0000183476  -0.0001949647  -0.0002325410   0.0000333546
        0.0000347322  -0.0002044301   0.0000508471   0.0004437053  -0.0004110825
       -0.0000182474   0.0000841851   0.0003903296  -0.0000887761  -0.0001260673
       -0.0001959385   0.0000253958  -0.0000689997   0.0000232716  -0.0001000265
       -0.0003101748  -0.0002589749   0.0000589785   0.0002119770   0.0009651507
        0.0001891092   0.0174140688  -0.0064322667  -0.0050817304  -0.0201472094
       -0.0282104673  -0.0312837737   0.0642864190  -0.1077068884  -0.1308598535
        0.0044787256  -0.0007701160   0.0019503457  -0.0005210020  -0.0002053253
       -0.0003325136  -0.0002569986   0.0000848545  -0.0000574711   0.0002461921
       -0.0001322715   0.0000960756  -0.0002077013   0.0001691847   0.0000347508
        0.0000447309  -0.0000911373   0.0000465294  -0.0000833165   0.0000000300
       -0.0000187801   0.0000421702  -0.0000677254  -0.0000307562  -0.0000862586
       -0.0000972879  -0.0000458347   0.0000590222   0.0001568525   0.0000593318
        0.0000070225  -0.0001684866  -0.0000710428   0.0001320258   0.0001387446
        0.0000499240  -0.0000204094  -0.0002381247  -0.0000506972  -0.0000764505
        0.0001244646   0.0000254828   0.0000280361   0.0001092184   0.0000643067
       -0.0000017964  -0.0001270430  -0.0001094105   0.0000495218  -0.0000235388
       -0.0000231401  -0.0000013640   0.0000257314   0.0000348406   0.0000169472
        0.0000628452   0.0000272061   0.0000833986  -0.0000112179  -0.0000334183
        0.0000817717  -0.0000088485  -0.0000310018  -0.0001752886  -0.0001787989
        0.0000964882  -0.0000282070   0.0001502030   0.0000014279  -0.0001758115
       -0.0000336037   0.0000705005   0.0001404397  -0.0001048807  -0.0000403967
        0.0000611424   0.0001237791  -0.0000317537   0.0002012727  -0.0003000162
       -0.0000609215  -0.0002959934   0.0000511746   0.0001132378   0.0002543483
        0.0002269775  -0.0001124294   0.0000325761  -0.0001417580  -0.0000036028
        0.0001525029   0.0000604527  -0.0000718149  -0.0001637318   0.0000856515
        0.0000591970  -0.0000606408  -0.0001401843   0.0000361040  -0.0001338522
        0.0002167495   0.0000205572  -0.0000145913  -0.0000679535  -0.0000377776
       -0.0000290906  -0.0000047896   0.0000032012   0.0000289878   0.0000556434
        0.0000523785  -0.0000428574   0.0000847963   0.0000120817  -0.0000394324
       -0.0000115391  -0.0000598386  -0.0001024020  -0.0001217726  -0.0002743750
       -0.0012413613   0.0005514348  -0.0007592067  -0.0003356786   0.0001083591
       -0.0003199513   0.0032765768   0.0032706867   0.0090235873  -0.0130387057
       -0.0068088415  -0.0105936623  -0.0101883188  -0.0151339138  -0.0166090119
        0.0160824518  -0.0048743255   0.0003428729  -0.0000452343  -0.0000730775
        0.0000246825   0.0000039943   0.0000018664  -0.0000062519   0.0000032005
        0.0000032084   0.0000089445  -0.0000243719  -0.0000123818  -0.0000020943
        0.0000305328  -0.0000167242   0.0000119053   0.0000240355  -0.0000032979
        0.0000215879   0.0000239677  -0.0000156580   0.0000132762   0.0000960114
        0.0001194353   0.0000771540   0.0003713698   0.0002011958   0.0003032729
       -0.0031895100  -0.0054443429   0.0015720537   0.0001803393   0.0000871573
        0.0001902883  -0.0001221189   0.0000222806   0.0000579925   0.0000291307
        0.0000007684   0.0000125948   0.0000075376   0.0000232271   0.0000136650
       -0.0000115283   0.0000156212   0.0000055448  -0.0000281512   0.0000038576
       -0.0000030471  -0.0000289829   0.0000044845   0.0000065811   0.0000028187
       -0.0000081054  -0.0000111496  -0.0000223929  -0.0000115278   0.0000002574
        0.0000067232   0.0000079928  -0.0000043700   0.0000022763  -0.0000119926
       -0.0000015037  -0.0000053829  -0.0000090065   0.0000020723  -0.0000072788
        0.0000030246   0.0000028247  -0.0000066087  -0.0000004866   0.0000032811
       -0.0000010756   0.0000100777   0.0000014340   0.0000054822   0.0000110127
       -0.0000010833   0.0000075653  -0.0000060147   0.0000000459  -0.0000105633
        0.0000144712   0.0000160090   0.0000179974   0.0000122200   0.0000080726
       -0.0000344790  -0.0000179889  -0.0000106471  -0.0000279313   0.0000148788
        0.0000093578  -0.0001153958   0.0001079600   0.0000305652   0.0000782760
       -0.0001746577  -0.0000864519  -0.0001166473   0.0001278378  -0.0000069343
        0.0000790663   0.0001502247   0.0003316866
       -0.0253645776  -0.0004885498  -0.0081886322  -0.3091015579   0.0242284609
       -0.0505734108   0.6371877868  -0.0789268336   0.0741472462  -0.1440422935
       -0.0341607700  -0.0583366533  -0.0445975655  -0.0135794306  -0.0230703958
       -0.0002539084   0.0048452298  -0.0021944625  -0.0000653218  -0.0002825587
        0.0000679817   0.0004877159   0.0002061876  -0.0000382852  -0.0000749449