$hessian                                                                        
        0.5959602511  -0.0940410098   0.1122436062  -0.2802270940  -0.0163973605
       -0.1007955404  -0.0487730647   0.0606222708   0.0258065871  -0.0267118806
       -0.0232148986  -0.0249476472   0.0425550388  -0.0170263553   0.0027252972
       -0.1195451711  -0.0220885689  -0.0424130567   0.0001089192   0.0114620584
        0.0056315010  -0.0021453440  -0.0026553229  -0.0026573624  -0.0010929395
        0.0023331323   0.0015289141   0.0020011769  -0.0006098101   0.0002497959
       -0.0007943606  -0.0004948790  -0.0006777875   0.0024618454  -0.0003537795
        0.0006063722  -0.0032460963   0.0030748387   0.0011290427   0.0004345652
       -0.0001918157   0.0000237593  -0.0004147433  -0.0000794138  -0.0000145061
        0.0003071387  -0.0001148646   0.0000830537  -0.0003844833   0.0001514528
       -0.0000879660   0.0000269184   0.0002002050   0.0000153828  -0.0000499022
       -0.0000384249   0.0001311757   0.0000938110  -0.0001184137   0.0000184295
       -0.0000445984   0.0000720045  -0.0000128510   0.0000775419  -0.0000133275
        0.0000093980  -0.0000376604  -0.0000160888   0.0000140282   0.0000223443
       -0.0000203793   0.0000075916  -0.0000918177  -0.0000847017  -0.0000165977
        0.0003653868  -0.0000316577  -0.0000422879  -0.0002788854  -0.0000959775
        0.0001053701   0.0002244559  -0.0000563768  -0.0000160577  -0.0002151885
        0.0002228100   0.0001763918   0.0002766506  -0.0000848710  -0.0002040051
       -0.0000731298  -0.0001296710   0.0000276205   0.0000500101   0.0001059337
       -0.0000382388  -0.0000124356  -0.0000556111   0.0000135913   0.0000379401
        0.0000538576   0.0000001395  -0.0000816864   0.0000093190  -0.0000013070
        0.0000284876  -0.0000918084   0.0000147260  -0.0000719795   0.0001112942
       -0.0000297230   0.0001236549  -0.0000896086   0.0000161064  -0.0001122373
        0.0001598262   0.0000181125   0.0001835004  -0.0001496158   0.0000167391
       -0.0001824247   0.0000628230   0.0000142752   0.0000542221   0.0000403062
        0.0000086081   0.0000004992   0.0000044555   0.0000111965   0.0000057685
        0.0000069977   0.0000293698  -0.0000131982   0.0000483272   0.0000189947
       -0.0000118247  -0.0000634673  -0.0000447258   0.0000234771   0.0000566578
        0.0000485180  -0.0000167090  -0.0000614019  -0.0000498849   0.0000340197
        0.0000582878   0.0000418279  -0.0000370871  -0.0000053295  -0.0000218779
        0.0000113141  -0.0000250644  -0.0000066482  -0.0000501493  -0.0000159060
       -0.0000168080   0.0000261689  -0.0000776627  -0.0000103296  -0.0000463463
       -0.0000415974  -0.0000529772   0.0000314486  -0.0000283287   0.0000081818
       -0.0000662764   0.0000444817   0.0000289894   0.0000394561   0.0001116215
       -0.0000401450   0.0000542575  -0.0000877769  -0.0000500047  -0.1371131814
        0.1159947067   0.0455662756  -0.0110165656  -0.0013063089  -0.0048926614
       -0.0003766810   0.0040776609  -0.0001618496  -0.0123481930  -0.0192767929
       -0.0189422888  -0.0000023124   0.0001557853   0.0000362260  -0.0000442743
       -0.0000387574  -0.0000283917   0.0000351043  -0.0000481443  -0.0000142005
        0.0000648950  -0.0000653964  -0.0000726641   0.0000297103   0.0001644632
       -0.0001191184  -0.0000464362   0.0000466067   0.0000210660  -0.0000076443
        0.0000399913  -0.0000055670   0.0000302284  -0.0000069937   0.0000089458
        0.0000054993   0.0000049662   0.0000028466   0.0000047785  -0.0000169029
       -0.0000115329   0.0000152693   0.0000128334  -0.0000083600  -0.0000518176
        0.0000263094  -0.0000073376   0.0000140008  -0.0000148295   0.0000022556
       -0.0000010766   0.0000133782   0.0000049640  -0.0000033767  -0.0000041703
       -0.0000051100  -0.0000141197   0.0000155424  -0.0000031817  -0.0000095236
        0.0000129777  -0.0000382050   0.0000099922   0.0000169700   0.0000231150
        0.0000019507  -0.0000102799  -0.0000148034  -0.0000007334   0.0000033487
        0.0000088459  -0.0000001006  -0.0000078990   0.0000007201   0.0000000761
       -0.0000018255  -0.0000046802  -0.0000143837   0.0000008065  -0.0000051265
        0.0000129977   0.0000144489   0.0000173401   0.0000092759  -0.0000100965
       -0.0000122480  -0.0000276638   0.0000098737   0.0000101271   0.0000003927
       -0.0000252180   0.0000417075   0.0000523583  -0.0000388688   0.0000285338
       -0.0940410098   0.4969936491   0.2430790098   0.0452427490  -0.0793093254
       -0.0064143604   0.0164774181   0.0139649631   0.0159388234  -0.0172732440
       -0.0079528660  -0.0078930959   0.0255894143  -0.0501849286  -0.0278678649
       -0.0818972640  -0.1969086777  -0.1394809494   0.0051100442   0.0065165291
        0.0014353863  -0.0015373488  -0.0021438012  -0.0021314929  -0.0014280453
        0.0018256243   0.0011629234   0.0019740798  -0.0003114723   0.0004765006
       -0.0004602632  -0.0010959617  -0.0006860712   0.0034427119  -0.0001046924
        0.0011321185  -0.0013302405  -0.0020894875  -0.0017721626   0.0000318788
        0.0000578175   0.0000139621  -0.0002907686  -0.0002278281  -0.0000689105
        0.0002150569  -0.0000900131   0.0000275714  -0.0005287699   0.0000865605
       -0.0000934825   0.0001444797   0.0002707668  -0.0000989270  -0.0000665797
        0.0001181262   0.0000967015   0.0000846994  -0.0001332634   0.0000317778
       -0.0000729057   0.0001293050  -0.0000444133   0.0000905207  -0.0000624218
        0.0000322797  -0.0000124688  -0.0000393035   0.0000134266   0.0000485112
        0.0000000075  -0.0000053704  -0.0000290871  -0.0000271299  -0.0000041897
        0.0005496861  -0.0001539000   0.0000323243  -0.0006050114   0.0001098684
        0.0003401613   0.0004614712  -0.0000002371  -0.0001299259  -0.0005130600
        0.0001797678   0.0003511104   0.0003386866  -0.0001801038  -0.0003291760
       -0.0001059932  -0.0000129895   0.0000920268   0.0000270220   0.0000920566
       -0.0000388154  -0.0000357012  -0.0000360561   0.0000148444  -0.0000288282
        0.0000376319   0.0000024293   0.0000499557   0.0000426840  -0.0000007328
        0.0000552430   0.0000373144  -0.0000201903  -0.0000208426  -0.0000080802
        0.0000254403  -0.0000098197   0.0000226721  -0.0000202679   0.0000373176
        0.0000559260  -0.0000350661   0.0000110545   0.0000013914  -0.0000067264
       -0.0001314018   0.0000432560   0.0000109504   0.0001134445   0.0000663826
        0.0000748794  -0.0000254117   0.0000002640  -0.0000084335   0.0000202764
        0.0000316698   0.0000460012   0.0000053333   0.0000249307   0.0000110973
        0.0000249573  -0.0000245769  -0.0000002061  -0.0000144886   0.0000398246
        0.0000066183  -0.0000358215  -0.0000269231  -0.0000109673   0.0000537328
       -0.0000005789  -0.0000041125  -0.0000115323  -0.0000170068  -0.0000145716
       -0.0000001266  -0.0000370280  -0.0000203021  -0.0000415100   0.0000086946
        0.0000013870   0.0000629729  -0.0001221267  -0.0000791335  -0.0000315607
       -0.0000678332   0.0000289155  -0.0000418896   0.0000078834  -0.0000159282
        0.0000292122  -0.0000335084   0.0000498001  -0.0007297256  -0.0000957257
        0.0001467511   0.0008696649  -0.0001471823  -0.0003575197   0.1159924338
       -0.1788208793  -0.0630669577  -0.0195715200  -0.0006338983  -0.0084273788
        0.0046680649  -0.0001046193  -0.0043987512  -0.0008916150   0.0004059023
       -0.0008730456  -0.0000395804   0.0000030545  -0.0001393758   0.0000063888
        0.0000008372   0.0000248624  -0.0000059177   0.0000401054  -0.0000231396
        0.0000239585  -0.0000882063  -0.0000992591   0.0000517392  -0.0000330690
        0.0000038711  -0.0000095506   0.0000249350  -0.0000140101   0.0000047000
        0.0000558288  -0.0000412109   0.0000355400   0.0000216737   0.0000130621
        0.0000076319   0.0000210096   0.0000137076  -0.0000094571  -0.0000002748
       -0.0000037989   0.0000161084  -0.0000005344   0.0000112301  -0.0000981401
        0.0000511555  -0.0000178733   0.0000253813   0.0000035444  -0.0000063878
        0.0000262654  -0.0000089884   0.0000023791  -0.0000070712  -0.0000355223
        0.0000129789  -0.0000298258  -0.0000090755   0.0000071879  -0.0000253715
       -0.0000149174  -0.0000007748   0.0000129083  -0.0000059792  -0.0000022127
       -0.0000039633  -0.0000284907  -0.0000235775  -0.0000295305  -0.0000158114
       -0.0000175959  -0.0000284525   0.0000088761  -0.0000027947  -0.0000305976
        0.0000064118  -0.0000007996  -0.0000257728   0.0000250906   0.0000129975
        0.0000118195   0.0000255538   0.0000212515   0.0000160572   0.0000010702
        0.0000024379  -0.0000076498   0.0000270619  -0.0000129456   0.0000265568
       -0.0000067916   0.0000082444   0.0000775873  -0.0000355912   0.0000158265
        0.1122436062   0.2430790098   0.3307466493  -0.0548813183  -0.0293522148
       -0.0909245293  -0.0068167200   0.0322021531   0.0224634896  -0.0200172410
       -0.0102960875  -0.0210142561   0.0334560092  -0.0436432508  -0.0178117648
       -0.0862420957  -0.1179806692  -0.1606806134   0.0014502995   0.0040919310
        0.0100482786  -0.0019364969  -0.0025789896  -0.0024234102  -0.0012242286
        0.0025970938   0.0008739216   0.0021869996  -0.0004611765   0.0004856580
       -0.0004839697  -0.0006839918  -0.0011625330   0.0032886475  -0.0003245772
        0.0011127668  -0.0020680951  -0.0002474711  -0.0009200118   0.0000874002
        0.0001706496  -0.0001543099  -0.0003786489  -0.0001766396   0.0000632873
        0.0002801747  -0.0000975706   0.0000662223  -0.0004677442   0.0001050185
       -0.0000978634   0.0000383790   0.0002970667  -0.0000730641   0.0000015662
        0.0000155298   0.0001195531   0.0001010987  -0.0001744273   0.0000496023
       -0.0000628994   0.0001727920  -0.0000484703   0.0001098878  -0.0000558550
        0.0000312810  -0.0000362977  -0.0000503026   0.0000192739   0.0000395990
        0.0000124844  -0.0000053261  -0.0000594847  -0.0000299713  -0.0000246672
        0.0005201405  -0.0000976645   0.0000092668  -0.0005363735   0.0000478225
        0.0002597138   0.0000720205  -0.0001115706   0.0000158837  -0.0000997862
        0.0000868248   0.0001345712   0.0002372379   0.0000218620  -0.0002110887
       -0.0000790540  -0.0000837830   0.0000707573   0.0000465453   0.0001433508
       -0.0000520535  -0.0000342253  -0.0000267947   0.0000116053   0.0000082693
        0.0000423739   0.0000028935  -0.0000056460   0.0000210557   0.0000012580
        0.0000447760   0.0000054423  -0.0000121450  -0.0000499279   0.0000392806
        0.0000082438   0.0000512511  -0.0000195311  -0.0000099678  -0.0000179537
        0.0001057723  -0.0000184039   0.0000719979  -0.0000573110   0.0000017365
       -0.0001785973   0.0000588011   0.0000134130   0.0001116121   0.0000662162
        0.0000598658  -0.0000200402   0.0000114735   0.0000056582   0.0000318493
        0.0000187205   0.0000426679  -0.0000125472   0.0000323136   0.0000099940
        0.0000078036  -0.0000334581  -0.0000115045   0.0000054240   0.0000521367
        0.0000266701  -0.0000292295  -0.0000467878  -0.0000293057   0.0000441595
        0.0000163272   0.0000075251  -0.0000309257  -0.0000050617  -0.0000126993
        0.0000220083  -0.0000409355  -0.0000160425  -0.0000537160  -0.0000041215
       -0.0000098280   0.0000620406  -0.0001265578  -0.0000658215  -0.0000370700
       -0.0000641196   0.0000049119  -0.0000013592  -0.0000194998  -0.0000031968
        0.0000170490  -0.0000215360   0.0000439430  -0.0005527903  -0.0000392635
        0.0001134622   0.0006510883  -0.0001613641  -0.0002841532   0.0455489972
       -0.0630750084  -0.0616271933  -0.0190118206  -0.0014770728  -0.0073767832
       -0.0000023294  -0.0047639430   0.0049127668  -0.0052774246  -0.0070423809
       -0.0067410984  -0.0001054182  -0.0000747055   0.0000986474  -0.0000001539
        0.0000180024  -0.0000331133  -0.0000202638  -0.0000513285   0.0000566277
        0.0000244278  -0.0001300274  -0.0000563002   0.0000047117   0.0000780173
       -0.0000638990  -0.0000138661   0.0000406369  -0.0000045684  -0.0000060108
        0.0000418746  -0.0000308941   0.0000321506   0.0000078932   0.0000119949
        0.0000085379   0.0000140155   0.0000113752  -0.0000047819  -0.0000063017
       -0.0000081289   0.0000218607   0.0000067985   0.0000025649  -0.0000797389
        0.0000520656  -0.0000208446   0.0000271300  -0.0000041060  -0.0000045058
        0.0000163567  -0.0000019462   0.0000034696  -0.0000051620  -0.0000254520
        0.0000070136  -0.0000242676  -0.0000025948   0.0000041085  -0.0000231871
       -0.0000070934  -0.0000130804   0.0000128108   0.0000004853   0.0000054412
       -0.0000036412  -0.0000226413  -0.0000216417  -0.0000196632  -0.0000092059
       -0.0000083136  -0.0000191223   0.0000019476  -0.0000025398  -0.0000205556
        0.0000045709  -0.0000016748  -0.0000226147   0.0000162166   0.0000057875
        0.0000111395   0.0000237225   0.0000210462   0.0000140070  -0.0000014089
       -0.0000015463  -0.0000167998   0.0000243706  -0.0000060856   0.0000182111
       -0.0000067121   0.0000152622   0.0000620224  -0.0000296357   0.0000191106
       -0.2802270940   0.0452427490  -0.0548813183   0.5948115494  -0.0897948393
        0.1166947048  -0.1886148662   0.0916384026   0.0116839933   0.0408582803
        0.0337685866   0.0405414324  -0.0428046240   0.0281062865   0.0064249368
       -0.0158633533  -0.0668413045  -0.0552824805  -0.0021689387  -0.0069733955
       -0.0054911911   0.0017672951   0.0028690878   0.0026881505   0.0014269047
       -0.0027317647  -0.0015358666  -0.0025219359   0.0004748638  -0.0005288703
        0.0006804862   0.0009974848   0.0012374897  -0.0023026005   0.0003454618
       -0.0008658576   0.0045770228  -0.0057062612  -0.0048763712  -0.0009849674
        0.0003954157  -0.0003106142   0.0001644076  -0.0001704046   0.0002987454
       -0.0001340586   0.0000708172  -0.0000032371   0.0000052817  -0.0001073290
        0.0000399965  -0.0000858084   0.0000809756  -0.0001170136   0.0002396225
       -0.0001412894  -0.0000575123   0.0000083998  -0.0000857452   0.0000636238
        0.0000179484   0.0001091200  -0.0000543520   0.0000501349  -0.0000185204
        0.0000161718  -0.0000249489  -0.0000208832   0.0000013975   0.0000057096
        0.0000153083  -0.0000112503   0.0000575283   0.0000316657   0.0000047048
        0.0000577522   0.0000065449   0.0001181320   0.0001341357  -0.0002637627
       -0.0001786293  -0.0005746652  -0.0001632203   0.0001190294   0.0006472759
       -0.0000752612  -0.0002490829  -0.0002667053   0.0001661259   0.0002018345
       -0.0000073372   0.0000121526   0.0000089462  -0.0000214137  -0.0000470587
        0.0000335228   0.0000174163   0.0000080342  -0.0000074954   0.0000116803
       -0.0000026341  -0.0000009929   0.0000627133   0.0000026078   0.0000075713
       -0.0000099983   0.0000063259  -0.0000199619   0.0000088606  -0.0000143706
        0.0000248029  -0.0000314728  -0.0000143836  -0.0000175179   0.0000184501
       -0.0000632953  -0.0000194509  -0.0000511467   0.0000368584  -0.0000132531
        0.0000713914  -0.0000272488  -0.0000093699  -0.0000926719  -0.0000514331
       -0.0000544762   0.0000142071  -0.0000163529  -0.0000178597  -0.0000230610
        0.0000003515  -0.0000064808   0.0000011311  -0.0000165710  -0.0000199188
       -0.0000165976   0.0000188501   0.0000227689  -0.0000009850  -0.0000232754
       -0.0000449837   0.0000221308   0.0000211814   0.0000411656  -0.0000152232
       -0.0000073024  -0.0000221276   0.0000099097   0.0000066791   0.0000175485
       -0.0000246771   0.0000208724   0.0000160662   0.0000393322   0.0000145594
        0.0000165775  -0.0000569700   0.0001058804   0.0000575206   0.0000526356
        0.0000585489   0.0000435464  -0.0000041386   0.0000127120  -0.0000056186
        0.0000538974  -0.0000018758  -0.0000400024   0.0005090853   0.0001536287
       -0.0002073773  -0.0006250595   0.0001068215   0.0003192354  -0.0203254338
        0.0028166680  -0.0055265143  -0.0683887627  -0.0544825675  -0.0546552032
       -0.0210342977   0.0202932818   0.0068032696   0.0009688843  -0.0004755118
       -0.0027718116   0.0001561772   0.0000312428   0.0001023361   0.0000377264
        0.0000430257   0.0000483853  -0.0000061238   0.0000276706  -0.0000335519
       -0.0000576374   0.0001313845   0.0000831926  -0.0001976783   0.0001121466
        0.0001737010   0.0000882219   0.0000002396  -0.0000089279  -0.0000082982
       -0.0000267862  -0.0000178149  -0.0000152917   0.0000099778   0.0000190973
       -0.0000036400  -0.0000064312   0.0000262101  -0.0000039653   0.0000015715
        0.0000138189   0.0000076525   0.0000042352   0.0000087271   0.0000319135
       -0.0000073170  -0.0000206877  -0.0000048393  -0.0000012234   0.0000003570
        0.0000064265  -0.0000012351  -0.0000074854  -0.0000006560  -0.0000079253
        0.0000109607  -0.0000068492  -0.0000164673   0.0000078540   0.0000000234
       -0.0000108068   0.0000182897  -0.0000081820  -0.0000162955  -0.0000191101
       -0.0000047043  -0.0000030715   0.0000002053  -0.0000092195  -0.0000082453
       -0.0000141703  -0.0000093109   0.0000102855  -0.0000055007  -0.0000110384
        0.0000051226   0.0000066138  -0.0000008677   0.0000080256   0.0000068933
       -0.0000028661   0.0000003250  -0.0000037010  -0.0000074937   0.0000116845
        0.0000128439   0.0000175826  -0.0000010487  -0.0000144014   0.0000006608
        0.0000229710  -0.0000248462  -0.0000553701   0.0000098967  -0.0000121104
       -0.0163973605  -0.0793093254  -0.0293522148  -0.0897948393   0.4911905392
        0.2443555394   0.1502367335  -0.2037766711  -0.0616267512  -0.0073512178
       -0.0493564348  -0.0385843299   0.0190469870  -0.0111333769   0.0027360833
       -0.0210989747   0.0192348400   0.0055636054   0.0012163831   0.0010974196
        0.0011888152  -0.0003792394  -0.0009112124  -0.0006614731  -0.0001982437
        0.0009478308   0.0005779563   0.0007754403  -0.0003523085   0.0001508743
       -0.0005968287  -0.0003506980  -0.0004160464  -0.0002481178  -0.0014827539
       -0.0017130147  -0.0036400246   0.0039930722  -0.0021852591   0.0004612173
       -0.0000092072  -0.0002405169  -0.0004650106   0.0000563608   0.0001053918
        0.0003259764  -0.0001041342   0.0000969971  -0.0001328852   0.0001955819
       -0.0001039712  -0.0000523385   0.0001071603   0.0000571463  -0.0001948362
        0.0000110064   0.0001079257   0.0000438109  -0.0000188864  -0.0000067902
       -0.0000498943  -0.0000037889   0.0000154466   0.0000089188  -0.0000049284
        0.0000015548   0.0000037638   0.0000093813  -0.0000078330   0.0000249450
       -0.0000241280   0.0000068800  -0.0000721044  -0.0000006732  -0.0000127814
        0.0001891830  -0.0000067492  -0.0000624867  -0.0002332060   0.0001429117
        0.0001704932   0.0000945378  -0.0000488027   0.0000137471  -0.0001299551
        0.0000337984   0.0000714990   0.0001852818   0.0000363302  -0.0001205549
       -0.0000258003  -0.0000691649   0.0000180428   0.0000394761   0.0001139375
       -0.0000319671  -0.0000334399  -0.0000259005   0.0000137461  -0.0000031303
        0.0000403124  -0.0000064039  -0.0000397367   0.0000353520  -0.0000089271
        0.0000465715  -0.0000153651   0.0000140093  -0.0000453486   0.0000431169
       -0.0000157311   0.0000679652  -0.0000155144   0.0000154043  -0.0000310784
        0.0000970313   0.0000081727   0.0001050818  -0.0000658086   0.0000129896
       -0.0001526100   0.0000454631  -0.0000029543   0.0001027647   0.0000657951
        0.0000536585  -0.0000320307   0.0000003367  -0.0000068383   0.0000349395
        0.0000197634   0.0000240252  -0.0000038043   0.0000326982   0.0000316429
        0.0000136017  -0.0000421348  -0.0000317314   0.0000024170   0.0000455028
        0.0000446235  -0.0000227858  -0.0000439443  -0.0000457648   0.0000309453
        0.0000290066   0.0000295472  -0.0000220418  -0.0000304216  -0.0000339103
        0.0000205103  -0.0000354923  -0.0000327714  -0.0000313544   0.0000165073
        0.0000061697   0.0000491927  -0.0001130704  -0.0000505374  -0.0000308137
       -0.0000656226  -0.0000266095   0.0000070959  -0.0000305101   0.0000060413
       -0.0000283085  -0.0000068171   0.0000336120  -0.0004045956  -0.0000593621
        0.0001464499   0.0004686420  -0.0001312676  -0.0002638991   0.0215375543
       -0.0022464499   0.0062213041  -0.0550824417  -0.1667507359  -0.1196973796
        0.0025518314  -0.0011332720  -0.0000055103  -0.0008213599  -0.0000058277
       -0.0063274565  -0.0000011952   0.0000178634   0.0000159694   0.0000176789
        0.0000261818  -0.0000190068  -0.0000194734   0.0000029256   0.0000078587
       -0.0000006972  -0.0000272545  -0.0000146675   0.0001793589  -0.0000198084
       -0.0002016207  -0.0000381143   0.0000229521   0.0000200647   0.0000126985
        0.0000880213  -0.0000403760   0.0000177595   0.0000111371  -0.0000107410
        0.0000031237   0.0000186717  -0.0000139437  -0.0000018823   0.0000107440
       -0.0000088283   0.0000017469  -0.0000011703   0.0000050170  -0.0000358168
        0.0000306912   0.0000012716   0.0000161073   0.0000114560  -0.0000006244
        0.0000171098  -0.0000177888   0.0000132678  -0.0000044529  -0.0000189338
        0.0000053252  -0.0000090903   0.0000000642   0.0000009654  -0.0000102054
       -0.0000046799  -0.0000013132   0.0000073094   0.0000023106   0.0000072205
        0.0000015678  -0.0000138683  -0.0000090087  -0.0000122482  -0.0000076102
       -0.0000061113  -0.0000110681   0.0000011930   0.0000017711  -0.0000123782
        0.0000010362  -0.0000065785  -0.0000100256   0.0000107639   0.0000047322
        0.0000035421   0.0000103712   0.0000072760   0.0000043797  -0.0000049233
       -0.0000053121  -0.0000085867   0.0000117360  -0.0000005816   0.0000048874
       -0.0000039535   0.0000108293   0.0000419542  -0.0000184233   0.0000201656
       -0.1007955404  -0.0064143604  -0.0909245293   0.1166947048   0.2443555394
        0.3402585387   0.0553213936  -0.0839715302  -0.0841629414   0.0101276360
       -0.0234423659  -0.0141895011   0.0000191404   0.0060495396  -0.0007718910
       -0.0217358093  -0.0112631410  -0.0152367365   0.0001430771  -0.0016383636
       -0.0013096769   0.0004355625   0.0005027218   0.0003913472   0.0003545772
       -0.0003413034  -0.0001259486  -0.0002912455  -0.0000010379  -0.0001985250
       -0.0001753245   0.0001636820   0.0000026600  -0.0010656993  -0.0014726793
       -0.0007054281  -0.0038198387  -0.0027674028   0.0015100506   0.0004302132
       -0.0002718884   0.0005927565  -0.0000667679  -0.0001738206  -0.0000597616
        0.0000366534   0.0000069610  -0.0000654106  -0.0001171831  -0.0000499664
       -0.0000056161   0.0001674000   0.0000353921  -0.0000115866  -0.0000311008
        0.0001724028   0.0000220281   0.0000451466  -0.0000183670   0.0000086007
       -0.0000243655   0.0000281020  -0.0000067228   0.0000188695  -0.0000120412
        0.0000072671  -0.0000098660  -0.0000125784   0.0000032974   0.0000147256
        0.0000099708  -0.0000036457  -0.0000209868  -0.0000226659  -0.0000076201
        0.0001087284   0.0000021592   0.0000114472  -0.0001301859   0.0000159372
        0.0000674242  -0.0000218146  -0.0000628131   0.0000217615   0.0000108874
        0.0000211657   0.0000240133   0.0000764291   0.0000338128  -0.0000544567
       -0.0000221784  -0.0000551028   0.0000207448   0.0000331360   0.0000910416
       -0.0000223110  -0.0000282092  -0.0000221671   0.0000086358  -0.0000001733
        0.0000391971  -0.0000060190  -0.0000063193   0.0000293767  -0.0000038740
        0.0000368740  -0.0000149162   0.0000022801  -0.0000374191   0.0000353156
       -0.0000024836   0.0000481232  -0.0000166834   0.0000037741  -0.0000221820
        0.0000654213  -0.0000036107   0.0000684132  -0.0000456864   0.0000048820
       -0.0001069884   0.0000319677  -0.0000007451   0.0000526458   0.0000360030
        0.0000249817  -0.0000201112  -0.0000036445  -0.0000091231   0.0000185401
        0.0000171991   0.0000220298  -0.0000023288   0.0000226917   0.0000172349
        0.0000049550  -0.0000300134  -0.0000167886   0.0000031715   0.0000313081
        0.0000198230  -0.0000140810  -0.0000298420  -0.0000214436   0.0000254721
        0.0000194997   0.0000140197  -0.0000170269  -0.0000189570  -0.0000186885
        0.0000078315  -0.0000237939  -0.0000185648  -0.0000172408   0.0000156655
        0.0000087571   0.0000232794  -0.0000604071  -0.0000249313  -0.0000120875
       -0.0000356184  -0.0000049130   0.0000047633  -0.0000192790   0.0000017559
       -0.0000125321  -0.0000043182   0.0000183310  -0.0001263440   0.0000186204
        0.0000469656   0.0001645733  -0.0000659807  -0.0000927827   0.0081093359
       -0.0007062513   0.0026503126  -0.0543357677  -0.1197589017  -0.1433107516
       -0.0063787350   0.0069948869   0.0028686001  -0.0031728404  -0.0061374108
        0.0026985647   0.0000565403   0.0000259657   0.0000463198   0.0000136906
        0.0000081602   0.0000375325  -0.0000256248  -0.0000028449   0.0000080247
       -0.0000256344   0.0000136820   0.0000258993   0.0000451033   0.0000425304
       -0.0000508693  -0.0000078764   0.0000146439  -0.0000054604   0.0000012787
        0.0000306744  -0.0000342154   0.0000080466   0.0000059909   0.0000009368
        0.0000020800   0.0000124752   0.0000013591  -0.0000051064   0.0000060167
       -0.0000031041   0.0000045703   0.0000000627   0.0000030244  -0.0000205365
        0.0000205187  -0.0000030320   0.0000147906   0.0000084969  -0.0000006810
        0.0000173598  -0.0000162204   0.0000088050  -0.0000044356  -0.0000206624
        0.0000085154  -0.0000108133  -0.0000050627   0.0000039293  -0.0000109979
       -0.0000076230   0.0000012581   0.0000051475  -0.0000034376   0.0000000165
       -0.0000009184  -0.0000145332  -0.0000099863  -0.0000144683  -0.0000094524
       -0.0000097649  -0.0000133664   0.0000042350  -0.0000009932  -0.0000152780
        0.0000030800  -0.0000026865  -0.0000106013   0.0000121133   0.0000056477
        0.0000037350   0.0000114247   0.0000073236   0.0000037049   0.0000001653
       -0.0000000876  -0.0000026227   0.0000111175  -0.0000056740   0.0000061677
        0.0000018321   0.0000042186   0.0000180996  -0.0000136307   0.0000078876
       -0.0487730647   0.0164774181  -0.0068167200  -0.1886148662   0.1502367335
        0.0553213936   0.6289083014  -0.0970759900   0.1319497026  -0.1188915792
       -0.0766722093  -0.0861237593  -0.0109546296  -0.0210944748  -0.0192099600
        0.0017738206   0.0101014594   0.0089036050  -0.0045172187   0.0004186339
       -0.0029795457  -0.0002785657  -0.0013939920  -0.0012332762  -0.0006186171
        0.0004033040   0.0001917129   0.0004149064   0.0000949880   0.0003058717
        0.0005948969   0.0001736401  -0.0000938586  -0.0018059140   0.0036051415
        0.0009062575   0.0085228846   0.0096403237   0.0109135143   0.0011671245
        0.0001742488   0.0008552489  -0.0010472951   0.0006037622  -0.0000159497
        0.0005314082  -0.0002108417   0.0002628505  -0.0005709189   0.0002935514
       -0.0000698797   0.0000076757   0.0001895384  -0.0001281275   0.0001267652
       -0.0000266227   0.0002647220   0.0001004573  -0.0001515737  -0.0000218508
       -0.0000225933   0.0001178695  -0.0000292769   0.0001165329  -0.0000267274
        0.0000231986  -0.0000661489  -0.0000350424  -0.0000112739   0.0000157680
       -0.0000129495  -0.0000012198  -0.0000495404  -0.0000150925   0.0000145819
        0.0004494583  -0.0001011565  -0.0000913739  -0.0004415909   0.0000569396
        0.0002395607  -0.0001903595  -0.0001765289   0.0001230828   0.0002423816
        0.0001534355  -0.0000353438   0.0002094860   0.0000944648  -0.0001450730
       -0.0000823868  -0.0001507084   0.0000157437   0.0000500478   0.0001467976
       -0.0000231398  -0.0000439191  -0.0000434793   0.0000124746   0.0000408197
        0.0000611329  -0.0000137845  -0.0000930449   0.0000328777  -0.0000097118
        0.0000470392  -0.0000774728   0.0000284866  -0.0000789393   0.0001055066
       -0.0000391946   0.0001319899  -0.0000865518   0.0000345315  -0.0000995208
        0.0001357052   0.0000271164   0.0001829177  -0.0001389292   0.0000259386
       -0.0001724418   0.0000523972  -0.0000118339   0.0000583463   0.0000460473
        0.0000121791  -0.0000290028  -0.0000051451  -0.0000122936   0.0000369745
        0.0000105495   0.0000120258  -0.0000130635   0.0000379681   0.0000353150
       -0.0000080478  -0.0000549015  -0.0000470162   0.0000191918   0.0000485469
        0.0000579906  -0.0000091310  -0.0000551841  -0.0000558159   0.0000114349
        0.0000534368   0.0000478631  -0.0000321024  -0.0000326677  -0.0000359610
        0.0000269120  -0.0000277006  -0.0000297786  -0.0000145922   0.0000239028
        0.0000145206   0.0000182279  -0.0000729471  -0.0000032786  -0.0000140269
       -0.0000409604  -0.0000606921   0.0000293878  -0.0000424852   0.0000146748
       -0.0000288632   0.0000163210   0.0000332849  -0.0001994686   0.0001151515
        0.0000749132   0.0003593353  -0.0002734860  -0.0002483486  -0.0045516808
        0.0013363689  -0.0032815788   0.0048127384  -0.0055810700  -0.0019953271
       -0.2669559646   0.0083289185  -0.0888959809   0.0005200156   0.0001838994
        0.0003301820   0.0001150884  -0.0000070981   0.0000196825   0.0000375153
       -0.0000728883  -0.0000305498   0.0000407366   0.0000297980   0.0001258105
       -0.0000115586   0.0000034754   0.0000066234  -0.0003648238   0.0001704870
        0.0004434356  -0.0000780613   0.0000229551   0.0000486729   0.0000037663
       -0.0000263166   0.0000489516   0.0000056258   0.0000059986  -0.0000057851
        0.0000023581   0.0000030398  -0.0000096932   0.0000038055   0.0000043734
       -0.0000052464   0.0000091055  -0.0000023972   0.0000161998  -0.0000420825
        0.0000492009  -0.0000114126   0.0000069294   0.0000130838   0.0000031005