 Entering Gaussian System
 *********************************************
 Gaussian 98:
 frequency output generated by the xtb code
 *********************************************
                         Standard orientation:
 --------------------------------------------------------------------
  Center     Atomic     Atomic              Coordinates (Angstroms)
  Number     Number      Type              X           Y           Z
 --------------------------------------------------------------------
    1          6             0       -1.776023   -2.059059    1.297722
    2          6             0       -1.124218   -1.516890   -0.000011
    3          6             0       -1.775286   -2.058671   -1.298289
    4          6             0        0.302636   -2.039841    0.000142
    5          6             0        0.513820   -3.412062    0.000315
    6          6             0        1.786711   -3.953296    0.000360
    7          6             0        2.882852   -3.108532    0.000268
    8          6             0        2.698113   -1.741125    0.000137
    9          6             0        1.411960   -1.194411    0.000081
   10          7             0        1.236248    0.179721   -0.000057
   11          6             0        2.396685    1.009614   -0.000094
   12          6             0        2.964761    1.407732   -1.204029
   13          6             0        4.095590    2.205914   -1.200314
   14          6             0        4.661377    2.604978   -0.000222
   15          6             0        4.095688    2.205972    1.199938
   16          6             0        2.964859    1.407788    1.203781
   17          6             0       -0.018813    0.758686    0.000047
   18          6             0       -0.081276    2.173560    0.000118
   19          6             0       -1.272472    2.825335    0.000167
   20          6             0       -2.481304    2.103136    0.000133
   21          6             0       -3.709933    2.792832    0.000129
   22          6             0       -4.875403    2.088453    0.000082
   23          9             0       -6.069491    2.748520    0.000031
   24          6             0       -4.883136    0.691396    0.000117
   25          6             0       -3.696190    0.012817    0.000150
   26          6             0       -2.441886    0.678383    0.000125
   27          6             0       -1.184999    0.004602    0.000075
   28          1             0       -2.210856   -3.042552    1.139082
   29          1             0       -2.544233   -1.396460    1.681576
   30          1             0       -1.012983   -2.150502    2.069863
   31          1             0       -2.207482   -3.043512   -1.140928
   32          1             0       -2.545379   -1.397532   -1.680826
   33          1             0       -1.012363   -2.147046   -2.070895
   34          1             0       -0.336140   -4.076383    0.000450
   35          1             0        1.920385   -5.024745    0.000466
   36          1             0        3.885159   -3.511596    0.000286
   37          1             0        3.557021   -1.087728    0.000088
   38          1             0        2.515393    1.090361   -2.133704
   39          1             0        4.535445    2.515927   -2.136635
   40          1             0        5.543959    3.227137   -0.000271
   41          1             0        4.535618    2.516029    2.136212
   42          1             0        2.515569    1.090462    2.133512
   43          1             0        0.838032    2.737602    0.000145
   44          1             0       -1.305874    3.904712    0.000198
   45          1             0       -3.720099    3.872158    0.000140
   46          1             0       -5.827585    0.169239    0.000119
   47          1             0       -3.744459   -1.061122    0.000222
 --------------------------------------------------------------------
     1 basis functions        1 primitive gaussians
     1 alpha electrons        1 beta electrons
 
 Harmonic frequencies (cm**-1), IR intensities (km*mol⁻¹),
 Raman scattering activities (A**4/amu), Raman depolarization ratios,
 reduced masses (AMU), force constants (mDyne/A) and normal coordinates:
                      1                      2                      3
                        a                      a                      a 
 Frequencies --   -78.8586                22.5191                36.3147
 Red. masses --     3.7771                10.2390                11.2599
 Frc consts  --     0.0000                 0.0000                 0.0000
 IR Inten    --     0.0455                 0.1799                 0.5130
 Raman Activ --     0.0000                 0.0000                 0.0000
 Depolar     --     0.0000                 0.0000                 0.0000
 Atom AN      X      Y      Z        X      Y      Z        X      Y      Z
   1   6     0.21   0.10   0.15     0.13   0.08   0.18     0.05   0.02   0.16
   2   6     0.00  -0.00   0.01    -0.00   0.00   0.08    -0.00   0.00   0.12
   3   6    -0.20  -0.11   0.15    -0.13  -0.08   0.18    -0.05  -0.02   0.16
   4   6     0.00  -0.00  -0.06    -0.00   0.00  -0.04    -0.00   0.00   0.06
   5   6     0.00  -0.00  -0.15    -0.00   0.00  -0.03    -0.00   0.00   0.03
   6   6     0.00   0.00  -0.11    -0.00   0.00  -0.11    -0.00  -0.00  -0.08
   7   6     0.00   0.00  -0.01    -0.00  -0.00  -0.18    -0.00  -0.00  -0.18
   8   6     0.00   0.00   0.03    -0.00  -0.00  -0.18    -0.00  -0.00  -0.15
   9   6     0.00   0.00   0.02    -0.00   0.00  -0.12    -0.00  -0.00  -0.01
  10   7    -0.00  -0.00   0.07     0.00   0.00  -0.14     0.00   0.00   0.04
  11   6    -0.00   0.00   0.04     0.00   0.00  -0.01     0.00   0.00   0.02
  12   6    -0.01  -0.02   0.03     0.15  -0.01   0.06    -0.20   0.27   0.02
  13   6    -0.01  -0.02   0.00     0.15  -0.01   0.20    -0.21   0.27   0.00
  14   6     0.00  -0.00  -0.01     0.00  -0.00   0.27    -0.00   0.00  -0.01
  15   6     0.01   0.02   0.00    -0.15   0.01   0.20     0.21  -0.27   0.00
  16   6     0.01   0.02   0.03    -0.15   0.01   0.06     0.20  -0.27   0.02
  17   6    -0.00  -0.00   0.02     0.00   0.00  -0.14     0.00   0.00   0.07
  18   6    -0.00  -0.00   0.03    -0.00   0.00  -0.29     0.00   0.00   0.10
  19   6    -0.00  -0.00   0.04    -0.00   0.00  -0.31     0.00   0.00   0.04
  20   6    -0.00  -0.00   0.01    -0.00   0.00  -0.15     0.00   0.00  -0.01
  21   6     0.00   0.00   0.03    -0.00  -0.00  -0.15     0.00  -0.00  -0.14
  22   6    -0.00   0.00  -0.01    -0.00  -0.00   0.03     0.00  -0.00  -0.15
  23   9    -0.00   0.00   0.02    -0.00  -0.00   0.05     0.00  -0.00  -0.39
  24   6    -0.00   0.00  -0.13     0.00  -0.00   0.23     0.00  -0.00   0.01
  25   6    -0.00   0.00  -0.17     0.00  -0.00   0.22     0.00  -0.00   0.13
  26   6    -0.00  -0.00  -0.06     0.00   0.00   0.01     0.00   0.00   0.08
  27   6    -0.00  -0.00  -0.02     0.00   0.00  -0.02     0.00   0.00   0.09
  28   1     0.36  -0.12   0.16     0.01   0.03   0.08    -0.01   0.01   0.05
  29   1    -0.16  -0.13  -0.11     0.07   0.04   0.07     0.03   0.02   0.06
  30   1     0.04   0.37   0.11     0.06   0.01   0.02     0.03  -0.01   0.03
  31   1    -0.35   0.12   0.16    -0.01  -0.03   0.08     0.00  -0.01   0.05
  32   1     0.15   0.13  -0.11    -0.06  -0.04   0.07    -0.03  -0.02   0.06
  33   1    -0.04  -0.36   0.10    -0.06  -0.01   0.02    -0.03   0.01   0.03
  34   1     0.00  -0.00  -0.08    -0.00   0.00   0.01    -0.00   0.00   0.03
  35   1     0.00   0.00  -0.05    -0.00   0.00  -0.03    -0.00  -0.00  -0.03
  36   1     0.00   0.00   0.01    -0.00  -0.00  -0.07    -0.00  -0.00  -0.08
  37   1     0.00   0.00   0.02     0.00  -0.00  -0.07     0.00  -0.00  -0.07
  38   1    -0.01  -0.01   0.01     0.08  -0.00   0.00    -0.10   0.14   0.01
  39   1    -0.01  -0.01  -0.00     0.08  -0.00   0.07    -0.11   0.14  -0.00
  40   1     0.00  -0.00  -0.01     0.00  -0.00   0.11    -0.00   0.00  -0.01
  41   1     0.01   0.01  -0.00    -0.08   0.00   0.07     0.11  -0.14  -0.00
  42   1     0.01   0.01   0.01    -0.08   0.00   0.00     0.10  -0.14   0.01
  43   1    -0.00  -0.00   0.01    -0.00   0.00  -0.12     0.00   0.00   0.04
  44   1    -0.00  -0.00   0.02    -0.00   0.00  -0.13     0.00   0.00   0.01
  45   1     0.00   0.00   0.03    -0.00  -0.00  -0.08    -0.00  -0.00  -0.07
  46   1    -0.00   0.00  -0.06     0.00  -0.00   0.11     0.00  -0.00   0.01
  47   1    -0.00   0.00  -0.09     0.00  -0.00   0.11     0.00  -0.00   0.08
                      4                      5                      6
                        a                      a                      a 
 Frequencies --    43.2383                64.5184                68.5419
 Red. masses --    11.5095                11.3121                10.8564
 Frc consts  --     0.0000                 0.0000                 0.0000
 IR Inten    --     0.3458                 0.1491                 0.1676
 Raman Activ --     0.0000                 0.0000                 0.0000
 Depolar     --     0.0000                 0.0000                 0.0000
 Atom AN      X      Y      Z        X      Y      Z        X      Y      Z
   1   6     0.05  -0.08   0.06    -0.01  -0.05  -0.00     0.04  -0.04  -0.06
   2   6    -0.00   0.00   0.07     0.00  -0.06   0.00    -0.00   0.00  -0.07
   3   6    -0.05   0.08   0.06    -0.01  -0.05   0.00    -0.04   0.04  -0.06
   4   6    -0.00   0.00  -0.03    -0.01  -0.10   0.00    -0.00   0.00  -0.09
   5   6    -0.00   0.00  -0.21    -0.04  -0.11   0.00    -0.00  -0.00  -0.28
   6   6    -0.00  -0.00  -0.30    -0.05  -0.13   0.00    -0.00  -0.00  -0.17
   7   6    -0.00  -0.00  -0.19    -0.03  -0.16  -0.00    -0.00  -0.00   0.19
   8   6    -0.00  -0.00   0.01     0.00  -0.15  -0.00    -0.00  -0.00   0.36
   9   6    -0.00   0.00   0.06     0.01  -0.13  -0.00    -0.00  -0.00   0.19
  10   7     0.00   0.00   0.23     0.05  -0.14  -0.00     0.00  -0.00   0.27
  11   6     0.00   0.00   0.10     0.01  -0.08  -0.00     0.00  -0.00   0.15
  12   6     0.05  -0.24   0.05    -0.06   0.02  -0.00    -0.15   0.04   0.09
  13   6     0.05  -0.25  -0.07    -0.23   0.27  -0.00    -0.16   0.05  -0.03
  14   6     0.00   0.00  -0.13    -0.34   0.41   0.00    -0.00   0.00  -0.08
  15   6    -0.05   0.25  -0.07    -0.24   0.27   0.00     0.16  -0.05  -0.03
  16   6    -0.05   0.24   0.05    -0.06   0.02   0.00     0.15  -0.04   0.09
  17   6     0.00   0.00   0.19     0.06  -0.10  -0.00     0.00   0.00  -0.00
  18   6     0.00   0.00   0.18     0.11  -0.09  -0.00     0.00   0.00  -0.17
  19   6     0.00   0.00   0.09     0.13  -0.05   0.00     0.00   0.00  -0.32
  20   6     0.00   0.00   0.05     0.11  -0.01   0.00     0.00   0.00  -0.21
  21   6    -0.00  -0.00  -0.09     0.14   0.04  -0.00     0.00  -0.00  -0.16
  22   6     0.00  -0.00  -0.12     0.11   0.09  -0.00     0.00  -0.00   0.05
  23   9    -0.00  -0.00  -0.37     0.18   0.19  -0.00     0.00  -0.00   0.23
  24   6     0.00  -0.00   0.05     0.06   0.09   0.00     0.00  -0.00   0.16
  25   6     0.00  -0.00   0.18     0.03   0.04   0.00     0.00  -0.00   0.07
  26   6     0.00   0.00   0.13     0.06  -0.02   0.00     0.00   0.00  -0.08
  27   6     0.00   0.00   0.15     0.04  -0.06   0.00     0.00   0.00  -0.05
  28   1    -0.02  -0.00  -0.00     0.01  -0.02   0.00    -0.01  -0.00  -0.03
  29   1     0.05  -0.01   0.06    -0.01  -0.02  -0.01     0.03  -0.00   0.01
  30   1     0.03  -0.07  -0.00    -0.01  -0.00   0.00     0.02  -0.04  -0.03
  31   1     0.02   0.00  -0.00     0.01  -0.02  -0.00     0.01   0.00  -0.03
  32   1    -0.05   0.01   0.06    -0.01  -0.02   0.01    -0.03   0.00   0.01
  33   1    -0.03   0.07  -0.00    -0.01  -0.00  -0.00    -0.02   0.04  -0.03
  34   1    -0.00   0.00  -0.08    -0.02  -0.03   0.00    -0.00   0.00  -0.15
  35   1    -0.00  -0.00  -0.13    -0.02  -0.04   0.00    -0.00  -0.00  -0.10
  36   1    -0.00  -0.00  -0.07    -0.01  -0.05  -0.00    -0.00  -0.00   0.09
  37   1    -0.00  -0.00   0.03     0.00  -0.05  -0.00    -0.00  -0.00   0.18
  38   1     0.03  -0.12   0.03    -0.00  -0.02  -0.00    -0.08   0.02   0.04
  39   1     0.03  -0.13  -0.03    -0.09   0.11  -0.00    -0.08   0.02  -0.02
  40   1     0.00   0.00  -0.06    -0.14   0.18   0.00    -0.00   0.00  -0.05
  41   1    -0.03   0.13  -0.03    -0.09   0.11   0.00     0.08  -0.02  -0.02
  42   1    -0.02   0.12   0.03    -0.00  -0.02  -0.00     0.08  -0.02   0.04
  43   1     0.00   0.00   0.06     0.03  -0.03  -0.00     0.00   0.00  -0.05
  44   1     0.00   0.00   0.01     0.05  -0.01   0.00     0.00   0.00  -0.14
  45   1    -0.00  -0.00  -0.05     0.06   0.01  -0.00    -0.00  -0.00  -0.07
  46   1     0.00  -0.00   0.02     0.01   0.04   0.00     0.00  -0.00   0.09
  47   1     0.00  -0.00   0.09    -0.01   0.01   0.00     0.00  -0.00   0.04
                      7                      8                      9
                        a                      a                      a 
 Frequencies --   100.7696               107.2517               151.8463
 Red. masses --     6.2988                11.3716                 8.2396
 Frc consts  --     0.0000                 0.0000                 0.0000
 IR Inten    --     0.1757                 0.7911                 0.2760
 Raman Activ --     0.0000                 0.0000                 0.0000
 Depolar     --     0.0000                 0.0000                 0.0000
 Atom AN      X      Y      Z        X      Y      Z        X      Y      Z
   1   6     0.09  -0.15  -0.02    -0.17   0.06   0.04     0.12   0.32   0.13
   2   6     0.02  -0.08  -0.00     0.00  -0.00   0.10     0.00  -0.00  -0.08
   3   6     0.09  -0.14   0.01     0.17  -0.07   0.04    -0.13  -0.33   0.13
   4   6     0.05  -0.04  -0.00     0.00  -0.00   0.21     0.00  -0.00  -0.13
   5   6     0.15  -0.03  -0.00     0.00  -0.00   0.22     0.01  -0.00  -0.11
   6   6     0.19   0.05   0.00     0.00   0.00  -0.08     0.01   0.00  -0.03
   7   6     0.14   0.11   0.00     0.00   0.00  -0.39     0.01   0.01   0.06
   8   6     0.05   0.09   0.00     0.00   0.00  -0.26     0.00   0.01   0.06
   9   6     0.01   0.00  -0.00     0.00   0.00   0.08     0.00   0.00  -0.05
  10   7    -0.07  -0.01  -0.00    -0.00  -0.00   0.28    -0.00  -0.00  -0.00
  11   6    -0.08   0.01  -0.00    -0.00   0.00   0.17    -0.00   0.00   0.01
  12   6    -0.07  -0.01  -0.00    -0.07  -0.07   0.12    -0.00  -0.01   0.01
  13   6    -0.03  -0.07  -0.00    -0.07  -0.07   0.00     0.00  -0.02  -0.00
  14   6    -0.01  -0.10   0.00    -0.00  -0.00  -0.06    -0.00  -0.00  -0.01
  15   6    -0.03  -0.07   0.00     0.07   0.07   0.00    -0.01   0.02  -0.00
  16   6    -0.07  -0.01   0.00     0.07   0.07   0.12    -0.00   0.01   0.01
  17   6    -0.08  -0.05  -0.00    -0.00  -0.00   0.09    -0.00  -0.00  -0.03
  18   6    -0.04  -0.05  -0.00    -0.00  -0.00  -0.01    -0.00  -0.00   0.30
  19   6    -0.03  -0.04  -0.00    -0.00  -0.00  -0.15    -0.00  -0.00   0.23
  20   6    -0.03  -0.03   0.00    -0.00  -0.00  -0.17     0.00  -0.00  -0.10
  21   6     0.02   0.05  -0.00     0.00   0.00  -0.09     0.00   0.00  -0.07
  22   6    -0.03   0.14   0.00    -0.00   0.00  -0.01     0.00   0.00  -0.05
  23   9     0.03   0.31  -0.00     0.00   0.00   0.32     0.00   0.01   0.14
  24   6    -0.10   0.15   0.00    -0.00   0.00  -0.17    -0.00   0.00  -0.05
  25   6    -0.13   0.07   0.00    -0.00   0.00  -0.25    -0.00   0.00  -0.12
  26   6    -0.07  -0.04   0.00    -0.00  -0.00  -0.16    -0.00  -0.00  -0.23
  27   6    -0.07  -0.07   0.00    -0.00  -0.00  -0.00    -0.00  -0.00  -0.26
  28   1     0.29  -0.17   0.05    -0.06   0.03   0.00    -0.14   0.16   0.08
  29   1    -0.18  -0.20  -0.14    -0.05   0.03  -0.02     0.18   0.22   0.10
  30   1    -0.02   0.23   0.07    -0.08   0.01   0.04     0.09  -0.03  -0.03
  31   1     0.30  -0.17  -0.06     0.07  -0.03   0.00     0.13  -0.16   0.08
  32   1    -0.18  -0.20   0.14     0.05  -0.04  -0.02    -0.17  -0.22   0.10
  33   1    -0.02   0.24  -0.07     0.07  -0.01   0.04    -0.09   0.01  -0.03
  34   1     0.06  -0.03  -0.00     0.00  -0.00   0.12     0.00  -0.00  -0.03
  35   1     0.07   0.02   0.00     0.00   0.00  -0.03     0.00   0.00  -0.00
  36   1     0.05   0.05   0.00     0.00   0.00  -0.20     0.00   0.00   0.05
  37   1     0.00   0.04   0.00     0.00   0.00  -0.13     0.00   0.00   0.04
  38   1    -0.02   0.00  -0.00    -0.04  -0.04   0.05    -0.00  -0.01   0.00
  39   1    -0.00  -0.03   0.00    -0.04  -0.04  -0.01     0.00  -0.01  -0.00
  40   1     0.01  -0.04   0.00     0.00  -0.00  -0.04     0.00  -0.00  -0.00
  41   1    -0.00  -0.03   0.00     0.03   0.04  -0.01    -0.00   0.01  -0.00
  42   1    -0.02  -0.00  -0.00     0.04   0.04   0.05    -0.00   0.01   0.00
  43   1    -0.01  -0.02  -0.00    -0.00  -0.00   0.01    -0.00  -0.00   0.18
  44   1    -0.00  -0.01  -0.00    -0.00  -0.00  -0.06     0.00  -0.00   0.14
  45   1     0.03   0.02  -0.00     0.00   0.00  -0.01     0.00   0.00   0.00
  46   1    -0.04   0.06   0.00    -0.00   0.00  -0.05    -0.00   0.00   0.02
  47   1    -0.07   0.02   0.00    -0.00   0.00  -0.09    -0.00   0.00   0.01
                     10                     11                     12
                        a                      a                      a 
 Frequencies --   159.7569               169.5578               200.9296
 Red. masses --     7.6743                 9.6974                11.1802
 Frc consts  --     0.0000                 0.0000                 0.0000
 IR Inten    --     0.1175                 0.0000                 0.3148
 Raman Activ --     0.0000                 0.0000                 0.0000
 Depolar     --     0.0000                 0.0000                 0.0000
 Atom AN      X      Y      Z        X      Y      Z        X      Y      Z
   1   6    -0.07  -0.15  -0.03    -0.06   0.12   0.13     0.11   0.09  -0.10
   2   6     0.01  -0.12   0.00    -0.00   0.00   0.11    -0.00  -0.00  -0.20
   3   6    -0.06  -0.13   0.03     0.06  -0.11   0.13    -0.11  -0.09  -0.10
   4   6     0.06  -0.04   0.01    -0.00   0.00   0.11    -0.00   0.00  -0.20
   5   6     0.20  -0.03   0.00    -0.00   0.00  -0.09    -0.00   0.00   0.04
   6   6     0.25   0.09  -0.00    -0.00  -0.00  -0.27    -0.00   0.00   0.29
   7   6     0.20   0.17  -0.00    -0.00  -0.00  -0.05    -0.00  -0.00   0.00
   8   6     0.07   0.15   0.00    -0.00  -0.00   0.21    -0.00  -0.00  -0.27
   9   6     0.01   0.02   0.00    -0.00  -0.00   0.15     0.00   0.00  -0.14
  10   7    -0.07  -0.01  -0.00     0.00   0.00  -0.01     0.00   0.00   0.24
  11   6    -0.10   0.02  -0.00     0.00  -0.00  -0.02     0.00   0.00   0.25
  12   6    -0.11   0.01  -0.01     0.00   0.02  -0.01    -0.10  -0.07   0.18
  13   6    -0.07  -0.06  -0.00    -0.00   0.02   0.00    -0.11  -0.07   0.00
  14   6    -0.04  -0.11   0.00     0.00   0.00   0.01     0.00   0.00  -0.07
  15   6    -0.07  -0.06   0.00     0.00  -0.02   0.00     0.11   0.07   0.00
  16   6    -0.11   0.01   0.01    -0.00  -0.02  -0.01     0.10   0.07   0.18
  17   6    -0.07  -0.07  -0.00     0.00   0.00  -0.14     0.00  -0.00  -0.09
  18   6    -0.02  -0.07  -0.01     0.00   0.00  -0.38    -0.00  -0.00  -0.21
  19   6     0.00  -0.04  -0.01    -0.00   0.00  -0.04    -0.00  -0.00  -0.05
  20   6     0.01  -0.05   0.01    -0.00   0.00   0.24    -0.00  -0.00   0.15
  21   6     0.07   0.03   0.01    -0.00  -0.00   0.44    -0.00  -0.00   0.29
  22   6     0.02   0.10   0.00    -0.00  -0.00   0.03    -0.00   0.00   0.12
  23   9     0.13   0.31  -0.01    -0.00  -0.00  -0.14     0.00   0.00  -0.26
  24   6    -0.05   0.10  -0.00     0.00  -0.00  -0.29    -0.00   0.00   0.12
  25   6    -0.08   0.02   0.00     0.00  -0.00  -0.11    -0.00  -0.00   0.07
  26   6    -0.04  -0.05   0.01     0.00   0.00   0.06    -0.00  -0.00  -0.02
  27   6    -0.05  -0.10   0.01     0.00   0.00   0.00    -0.00  -0.00  -0.19
  28   1    -0.25   0.07  -0.08    -0.10   0.07   0.04     0.02   0.03  -0.00
  29   1     0.15   0.09   0.10     0.05   0.10   0.06     0.05   0.04  -0.02
  30   1     0.00  -0.29  -0.06    -0.01  -0.04   0.02     0.06   0.03  -0.05
  31   1    -0.26   0.08   0.08     0.11  -0.08   0.03    -0.02  -0.03  -0.00
  32   1     0.16   0.11  -0.11    -0.05  -0.10   0.06    -0.05  -0.04  -0.02
  33   1     0.01  -0.29   0.07     0.01   0.05   0.02    -0.06  -0.03  -0.05
  34   1     0.07  -0.03   0.00    -0.00   0.00  -0.04    -0.00   0.00   0.03
  35   1     0.10   0.03  -0.00    -0.00  -0.00  -0.15    -0.00   0.00   0.18
  36   1     0.07   0.07  -0.00    -0.00  -0.00  -0.03    -0.00  -0.00   0.01
  37   1     0.00   0.07   0.00     0.00  -0.00   0.10     0.00  -0.00  -0.12
  38   1    -0.04   0.01  -0.00     0.00   0.01  -0.01    -0.06  -0.04   0.07
  39   1    -0.01  -0.02  -0.00    -0.00   0.01   0.00    -0.06  -0.04  -0.02
  40   1     0.00  -0.05   0.00    -0.00   0.00   0.01     0.00   0.00  -0.06
  41   1    -0.01  -0.02   0.00     0.00  -0.01   0.00     0.06   0.04  -0.02
  42   1    -0.04   0.01  -0.00    -0.00  -0.01  -0.01     0.06   0.04   0.07
  43   1    -0.00  -0.03  -0.01    -0.00   0.00  -0.20    -0.00  -0.00  -0.10
  44   1     0.00  -0.01  -0.00    -0.00   0.00  -0.03    -0.00  -0.00  -0.02
  45   1     0.04   0.01   0.00    -0.00  -0.00   0.20     0.00  -0.00   0.10
  46   1    -0.02   0.04  -0.00     0.00  -0.00  -0.17    -0.00   0.00   0.03
  47   1    -0.03   0.01  -0.00     0.00  -0.00  -0.05    -0.00  -0.00   0.01
                     13                     14                     15
                        a                      a                      a 
 Frequencies --   220.9219               234.7642               243.0013
 Red. masses --    11.4350                10.2554                10.7066
 Frc consts  --     0.0000                 0.0000                 0.0000
 IR Inten    --     0.0163                 0.6765                 0.2612
 Raman Activ --     0.0000                 0.0000                 0.0000
 Depolar     --     0.0000                 0.0000                 0.0000
 Atom AN      X      Y      Z        X      Y      Z        X      Y      Z
   1   6     0.09   0.18   0.05     0.20  -0.18   0.11     0.03  -0.03   0.01
   2   6     0.05   0.10  -0.00     0.00  -0.00   0.08    -0.00  -0.02  -0.00
   3   6     0.09   0.18  -0.05    -0.20   0.18   0.11     0.03  -0.03  -0.01
   4   6     0.01  -0.03  -0.00     0.00  -0.00  -0.18    -0.02   0.01  -0.00
   5   6     0.08  -0.02  -0.00     0.00  -0.00  -0.13    -0.10   0.00  -0.00
   6   6     0.12   0.07   0.00     0.00   0.00   0.17    -0.13  -0.05  -0.00
   7   6     0.09   0.10   0.00     0.00   0.00   0.14    -0.11  -0.07  -0.00
   8   6     0.02   0.09  -0.00     0.00  -0.00  -0.17    -0.04  -0.05   0.00
   9   6    -0.02  -0.02  -0.00     0.00  -0.00  -0.18    -0.01   0.01  -0.00
  10   7    -0.10  -0.06   0.00     0.00  -0.00   0.02    -0.02   0.01   0.00
  11   6    -0.13  -0.14   0.00     0.00  -0.00   0.03    -0.17   0.20   0.00
  12   6    -0.20  -0.21  -0.04    -0.01  -0.01   0.02    -0.29   0.35  -0.01
  13   6    -0.24  -0.18  -0.03    -0.02  -0.00  -0.00    -0.08   0.05  -0.00
  14   6    -0.30  -0.16  -0.00     0.00   0.00  -0.01     0.16  -0.32  -0.00
  15   6    -0.24  -0.18   0.03     0.02   0.00  -0.00    -0.08   0.05   0.00
  16   6    -0.20  -0.21   0.04     0.01   0.01   0.02    -0.29   0.35   0.01
  17   6     0.01   0.09  -0.00     0.00  -0.00   0.14    -0.00  -0.01  -0.00
  18   6     0.08   0.10  -0.00    -0.00  -0.00  -0.02     0.06  -0.01  -0.00
  19   6     0.09   0.13   0.00    -0.00  -0.00  -0.12     0.08  -0.00   0.00
  20   6     0.08   0.13   0.00    -0.00  -0.00  -0.02     0.11  -0.03  -0.00
  21   6     0.04   0.06   0.00    -0.00  -0.00   0.01     0.13  -0.04   0.00
  22   6     0.09  -0.03   0.00    -0.00  -0.00  -0.20     0.15  -0.07  -0.00
  23   9     0.01  -0.25  -0.00     0.00   0.00   0.27     0.24  -0.05   0.00
  24   6     0.14  -0.03  -0.00    -0.00  -0.00  -0.48     0.11  -0.07  -0.00
  25   6     0.16   0.04  -0.00    -0.00  -0.00  -0.06     0.10  -0.07  -0.00
  26   6     0.09   0.13  -0.00    -0.00  -0.00   0.12     0.07  -0.03  -0.00
  27   6     0.04   0.10  -0.00     0.00  -0.00   0.23     0.03  -0.03  -0.00
  28   1     0.04   0.04   0.04    -0.01  -0.02  -0.00     0.03  -0.02   0.01
  29   1     0.02   0.05   0.01     0.11  -0.03   0.11    -0.01  -0.03  -0.00
  30   1     0.04   0.08   0.01     0.10  -0.14  -0.02     0.01   0.02   0.00
  31   1     0.04   0.04  -0.04     0.01   0.02  -0.00     0.03  -0.02  -0.01
  32   1     0.02   0.05  -0.01    -0.11   0.03   0.11    -0.01  -0.03   0.00
  33   1     0.04   0.08  -0.01    -0.10   0.14  -0.02     0.01   0.02  -0.00
  34   1     0.03  -0.02  -0.00     0.00  -0.00  -0.05    -0.04   0.01   0.00
  35   1     0.05   0.02   0.00     0.00   0.00   0.12    -0.05  -0.02  -0.00
  36   1     0.03   0.04   0.00     0.00   0.00   0.10    -0.04  -0.03   0.00
  37   1    -0.00   0.04  -0.00     0.00  -0.00  -0.07    -0.00  -0.02   0.00
  38   1    -0.07  -0.08   0.00    -0.01  -0.00   0.01    -0.12   0.15  -0.00
  39   1    -0.06  -0.04  -0.00    -0.01  -0.00  -0.00    -0.01   0.00  -0.00
  40   1    -0.10  -0.03  -0.00    -0.00   0.00  -0.01     0.13  -0.21  -0.00
  41   1    -0.06  -0.04   0.00     0.01   0.00  -0.00    -0.01   0.00   0.00
  42   1    -0.07  -0.08  -0.00     0.01   0.00   0.01    -0.12   0.15   0.00
  43   1     0.03   0.02  -0.00    -0.00  -0.00  -0.04     0.02  -0.01  -0.00
  44   1     0.03   0.04   0.00    -0.00  -0.00  -0.09     0.02  -0.00   0.00
  45   1    -0.01   0.02   0.00     0.00  -0.00   0.07     0.03  -0.01   0.00
  46   1     0.04  -0.01  -0.00    -0.00   0.00  -0.21     0.03  -0.01  -0.00
  47   1     0.07   0.01   0.00    -0.00  -0.00   0.05     0.03  -0.02   0.00
                     16                     17                     18
                        a                      a                      a 
 Frequencies --   266.1741               286.2553               313.9034
 Red. masses --    10.7652                13.1318                 9.8295
 Frc consts  --     0.0000                 0.0000                 0.0000
 IR Inten    --     1.4652                 2.0146                 0.9229
 Raman Activ --     0.0000                 0.0000                 0.0000
 Depolar     --     0.0000                 0.0000                 0.0000
 Atom AN      X      Y      Z        X      Y      Z        X      Y      Z
   1   6     0.31   0.22   0.09     0.05  -0.22  -0.06     0.30  -0.32  -0.00
   2   6     0.20   0.08   0.00     0.04  -0.05   0.00     0.06   0.01   0.00
   3   6     0.31   0.22  -0.09     0.05  -0.22   0.06     0.30  -0.32   0.00
   4   6     0.16  -0.02  -0.00     0.07  -0.06  -0.00     0.03   0.17  -0.00
   5   6     0.01  -0.04   0.00     0.06  -0.08  -0.00    -0.17   0.16  -0.00
   6   6    -0.04  -0.16   0.00     0.04  -0.13   0.00    -0.25   0.07   0.00
   7   6     0.01  -0.22   0.00     0.06  -0.15   0.00    -0.22   0.02   0.00
   8   6     0.14  -0.18  -0.00     0.07  -0.14  -0.00    -0.05   0.05  -0.00
   9   6     0.18  -0.06  -0.00     0.08  -0.08  -0.00     0.00   0.15  -0.00
  10   7     0.03  -0.06   0.00     0.04  -0.06   0.00    -0.07   0.14   0.00
  11   6    -0.03   0.01   0.00    -0.01   0.01  -0.00    -0.03   0.03  -0.00
  12   6    -0.07   0.04  -0.01    -0.05   0.09   0.00     0.02  -0.12  -0.02
  13   6    -0.04  -0.01  -0.01    -0.01   0.03   0.00    -0.02  -0.07  -0.01
  14   6    -0.01  -0.08  -0.00     0.06  -0.06  -0.00    -0.14   0.05  -0.00
  15   6    -0.04  -0.01   0.01    -0.01   0.03  -0.00    -0.02  -0.07   0.01
  16   6    -0.07   0.04   0.01    -0.05   0.09  -0.00     0.02  -0.12   0.02
  17   6     0.01  -0.01  -0.00     0.02  -0.04   0.00    -0.07   0.09   0.00
  18   6    -0.07  -0.01  -0.00    -0.00  -0.02   0.00    -0.04   0.10   0.00
  19   6    -0.12  -0.08   0.00     0.05   0.12  -0.00    -0.04   0.10  -0.00
  20   6    -0.13  -0.08  -0.00    -0.04   0.25   0.00     0.01   0.04   0.00
  21   6    -0.11  -0.04  -0.00    -0.10   0.27  -0.00     0.01  -0.01  -0.00
  22   6    -0.17   0.05   0.00    -0.09   0.21  -0.00     0.04  -0.04   0.00
  23   9    -0.12   0.27  -0.00    -0.45  -0.30   0.00     0.14   0.10   0.00
  24   6    -0.17   0.03   0.00     0.06   0.22  -0.00     0.03  -0.05  -0.00
  25   6    -0.16  -0.01  -0.00     0.06   0.24   0.00     0.05  -0.02   0.00
  26   6    -0.10  -0.07  -0.00     0.05   0.21   0.00     0.00   0.03   0.00
  27   6     0.00   0.04  -0.00    -0.02   0.02   0.00    -0.03   0.02   0.00
  28   1     0.02   0.09   0.06    -0.01  -0.05  -0.06     0.08  -0.08  -0.05
  29   1     0.15   0.12   0.05     0.03  -0.07   0.01     0.10  -0.12   0.09
  30   1     0.12   0.03  -0.01     0.01  -0.12  -0.02     0.13  -0.15  -0.05
  31   1     0.02   0.09  -0.06    -0.01  -0.05   0.06     0.08  -0.08   0.05
  32   1     0.15   0.12  -0.05     0.03  -0.07  -0.01     0.10  -0.12  -0.09
  33   1     0.12   0.03   0.01     0.01  -0.12   0.02     0.13  -0.15   0.05
  34   1    -0.02   0.02   0.00     0.01  -0.02  -0.00    -0.07   0.08  -0.00
  35   1    -0.04  -0.05   0.00     0.00  -0.04   0.00    -0.09   0.02   0.00
  36   1    -0.01  -0.09   0.00     0.02  -0.05   0.00    -0.07  -0.02   0.00
  37   1     0.06  -0.08  -0.00     0.03  -0.04  -0.00     0.01  -0.02  -0.00
  38   1    -0.03   0.02   0.00    -0.02   0.04   0.00     0.01  -0.06  -0.00
  39   1    -0.01  -0.00  -0.00    -0.00   0.01   0.00     0.00  -0.03  -0.00
  40   1     0.01  -0.04  -0.00     0.04  -0.05   0.00    -0.07   0.05  -0.00
  41   1    -0.01  -0.00   0.00    -0.00   0.01  -0.00     0.00  -0.03   0.00
  42   1    -0.03   0.02  -0.00    -0.02   0.04  -0.00     0.01  -0.06   0.00
  43   1    -0.03   0.02   0.00     0.00  -0.01  -0.00    -0.01   0.02  -0.00
  44   1    -0.04  -0.02   0.00     0.06   0.04  -0.00    -0.02   0.03  -0.00
  45   1    -0.02  -0.01  -0.00    -0.02   0.08  -0.00    -0.01  -0.00  -0.00
  46   1    -0.05   0.01   0.00     0.02   0.05  -0.00     0.01  -0.02  -0.00
  47   1    -0.05  -0.00  -0.00     0.02   0.07   0.00     0.05  -0.01  -0.00
                     19                     20                     21
                        a                      a                      a 
 Frequencies --   335.1487               346.9999               363.7054
 Red. masses --     9.5250                10.2122                10.9136
 Frc consts  --     0.0000                 0.0000                 0.0000
 IR Inten    --     0.0145                 0.0027                 1.7347
 Raman Activ --     0.0000                 0.0000                 0.0000
 Depolar     --     0.0000                 0.0000                 0.0000
 Atom AN      X      Y      Z        X      Y      Z        X      Y      Z
   1   6     0.27  -0.18  -0.04    -0.10  -0.11   0.12     0.08  -0.24   0.15
   2   6     0.00  -0.00  -0.10    -0.00  -0.00   0.20    -0.00  -0.00   0.18
   3   6    -0.27   0.18  -0.04     0.10   0.11   0.12    -0.08   0.24   0.15
   4   6     0.00   0.00   0.00    -0.00  -0.00   0.08    -0.00   0.00   0.07
   5   6    -0.00   0.00   0.42    -0.00  -0.00  -0.19    -0.00   0.00  -0.08
   6   6    -0.00   0.00  -0.03     0.00   0.00  -0.02    -0.00   0.00   0.04
   7   6    -0.00  -0.00  -0.27    -0.00   0.00   0.16    -0.00   0.00   0.05
   8   6     0.00   0.00   0.29    -0.00   0.00  -0.15    -0.00   0.00  -0.08
   9   6     0.00   0.00   0.16    -0.00  -0.00  -0.10    -0.00   0.00   0.06
  10   7    -0.00   0.00  -0.03    -0.00  -0.00  -0.15    -0.00   0.00   0.12
  11   6    -0.00   0.00   0.04     0.00   0.00   0.17    -0.00   0.00  -0.09
  12   6    -0.01  -0.01   0.03    -0.05  -0.04   0.14     0.01   0.04  -0.08
  13   6    -0.01  -0.01  -0.00    -0.06  -0.04  -0.01     0.05  -0.00   0.01
  14   6    -0.00   0.00  -0.01     0.00   0.00  -0.06     0.00   0.00   0.03
  15   6     0.01   0.01  -0.00     0.06   0.04  -0.01    -0.05   0.00   0.01
  16   6     0.01   0.01   0.03     0.05   0.04   0.14    -0.01  -0.04  -0.08
  17   6    -0.00   0.00  -0.24    -0.00  -0.00  -0.36    -0.00  -0.00   0.04
  18   6    -0.00   0.00  -0.10    -0.00  -0.00  -0.29     0.00  -0.00   0.07
  19   6    -0.00   0.00   0.20     0.00  -0.00   0.43     0.00  -0.00  -0.06
  20   6     0.00   0.00  -0.02     0.00   0.00   0.07     0.00   0.00  -0.23
  21   6     0.00   0.00  -0.03     0.00   0.00  -0.24     0.00   0.00   0.27
  22   6     0.00   0.00  -0.14     0.00   0.00  -0.11     0.00   0.00   0.26
  23   9    -0.00  -0.00   0.08    -0.00  -0.00   0.08    -0.00  -0.00  -0.21
  24   6     0.00   0.00  -0.08     0.00   0.00   0.08     0.00   0.00   0.19
  25   6     0.00   0.00   0.06     0.00   0.00  -0.09    -0.00   0.00  -0.32
  26   6     0.00   0.00  -0.11    -0.00   0.00  -0.09    -0.00  -0.00  -0.46
  27   6    -0.00  -0.00  -0.15    -0.00  -0.00   0.01    -0.00  -0.00  -0.05
  28   1     0.08  -0.05  -0.03    -0.02  -0.03  -0.01     0.01  -0.05  -0.02
  29   1     0.09  -0.08   0.06    -0.05  -0.04   0.02     0.03  -0.08   0.09
  30   1     0.12  -0.07  -0.06    -0.05  -0.05   0.05     0.03  -0.13   0.02
  31   1    -0.08   0.05  -0.03     0.02   0.03  -0.01    -0.01   0.05  -0.02
  32   1    -0.09   0.08   0.06     0.05   0.04   0.02    -0.03   0.08   0.09
  33   1    -0.12   0.07  -0.06     0.05   0.05   0.05    -0.03   0.13   0.02
  34   1    -0.00   0.00   0.20     0.00  -0.00  -0.10    -0.00   0.00  -0.06
  35   1    -0.00   0.00  -0.05     0.00   0.00  -0.00    -0.00   0.00   0.02
  36   1    -0.00  -0.00  -0.19    -0.00   0.00   0.11    -0.00   0.00   0.02
  37   1     0.00  -0.00   0.13    -0.00   0.00  -0.08    -0.00   0.00  -0.06
  38   1    -0.01  -0.01   0.01    -0.04  -0.03   0.06     0.01   0.03  -0.03
  39   1    -0.01  -0.01  -0.00    -0.04  -0.03  -0.02     0.03  -0.00   0.01
  40   1    -0.00   0.00  -0.01     0.00   0.00  -0.04    -0.00   0.00   0.02
  41   1     0.01   0.01  -0.00     0.04   0.03  -0.02    -0.03   0.00   0.01
  42   1     0.01   0.01   0.01     0.04   0.03   0.06    -0.01  -0.03  -0.03
  43   1    -0.00  -0.00  -0.01     0.00  -0.00  -0.11     0.00  -0.00   0.08
  44   1     0.00   0.00   0.14     0.00  -0.00   0.26     0.00  -0.00   0.04
  45   1    -0.00   0.00   0.03     0.00   0.00  -0.11     0.00   0.00   0.13
  46   1     0.00   0.00   0.00     0.00   0.00   0.08     0.00   0.00   0.11
  47   1     0.00   0.00   0.09     0.00   0.00  -0.03    -0.00   0.00  -0.07
                     22                     23                     24
                        a                      a                      a 
 Frequencies --   378.3004               389.1623               393.9222
 Red. masses --     8.8763                 9.9858                11.6203
 Frc consts  --     0.0000                 0.0000                 0.0000
 IR Inten    --     0.0068                 2.5853                 5.3366
 Raman Activ --     0.0000                 0.0000                 0.0000
 Depolar     --     0.0000                 0.0000                 0.0000
 Atom AN      X      Y      Z        X      Y      Z        X      Y      Z
   1   6     0.00  -0.01   0.01    -0.21  -0.05  -0.25    -0.03   0.05  -0.02
   2   6    -0.00  -0.00   0.01     0.12   0.13   0.00     0.00   0.04  -0.00
   3   6    -0.00   0.01   0.01    -0.21  -0.05   0.25    -0.03   0.05   0.02
   4   6    -0.00  -0.00  -0.01     0.15   0.15   0.00     0.07   0.28  -0.00
   5   6    -0.00  -0.00   0.01     0.05   0.15  -0.00    -0.10   0.31   0.00
   6   6    -0.00   0.00  -0.00    -0.03  -0.03   0.00    -0.16   0.22  -0.00
   7   6    -0.00   0.00  -0.00     0.08  -0.18   0.00    -0.02   0.03   0.00
   8   6    -0.00   0.00   0.00     0.23  -0.13  -0.00     0.20   0.06   0.00
   9   6    -0.00  -0.00  -0.03     0.25   0.03   0.00     0.21   0.09  -0.00
  10   7    -0.00  -0.00  -0.00     0.12   0.03   0.00     0.09   0.00  -0.00
  11   6    -0.00  -0.00  -0.01     0.04   0.02  -0.00    -0.01   0.07   0.00
  12   6     0.25  -0.35  -0.00    -0.07  -0.04  -0.05    -0.03  -0.04  -0.03
  13   6    -0.24   0.34   0.00    -0.08  -0.05  -0.04    -0.03  -0.05  -0.03
  14   6     0.00   0.00   0.00    -0.13  -0.10   0.00    -0.10  -0.03  -0.00
  15   6     0.24  -0.34   0.00    -0.08  -0.05   0.04    -0.03  -0.05   0.03
  16   6    -0.25   0.35  -0.00    -0.07  -0.04   0.05    -0.03  -0.04   0.03
  17   6    -0.00  -0.00   0.03     0.12   0.12  -0.00     0.02  -0.20   0.00
  18   6     0.00  -0.00   0.01     0.02   0.14  -0.00     0.09  -0.25  -0.00
  19   6     0.00  -0.00   0.00    -0.04   0.07   0.00     0.10  -0.28  -0.00
  20   6     0.00  -0.00  -0.01    -0.03   0.02  -0.00     0.03  -0.16   0.00
  21   6     0.00   0.00   0.00    -0.11  -0.14   0.00     0.15   0.11  -0.00
  22   6     0.00   0.00   0.03    -0.11  -0.13  -0.00     0.11   0.18   0.00
  23   9    -0.00  -0.00  -0.02     0.04   0.19  -0.00    -0.13  -0.27  -0.00
  24   6     0.00   0.00   0.03    -0.06  -0.14   0.00     0.01   0.19   0.00
  25   6    -0.00  -0.00  -0.05     0.04   0.01  -0.00    -0.15  -0.05  -0.00
  26   6    -0.00  -0.00  -0.04     0.04   0.03  -0.00    -0.08  -0.15   0.00
  27   6    -0.00  -0.00   0.01     0.10   0.12  -0.00    -0.05  -0.08   0.00
  28   1    -0.00  -0.00   0.00    -0.03  -0.02  -0.16    -0.01   0.02  -0.00
  29   1     0.00  -0.00   0.01    -0.11  -0.05  -0.12    -0.01   0.02  -0.03
  30   1     0.00  -0.01   0.00    -0.14  -0.04   0.01    -0.02   0.02   0.01
  31   1     0.00   0.00   0.00    -0.03  -0.02   0.16    -0.01   0.01   0.00
  32   1    -0.00   0.00   0.01    -0.11  -0.05   0.12    -0.01   0.02   0.02
  33   1    -0.00   0.01   0.00    -0.14  -0.04  -0.01    -0.02   0.02  -0.01
  34   1    -0.00  -0.00   0.01    -0.00   0.07  -0.00    -0.05   0.11   0.00
  35   1     0.00   0.00   0.00    -0.06  -0.02   0.00    -0.09   0.06  -0.00
  36   1    -0.00   0.00   0.00     0.01  -0.09   0.00    -0.03  -0.05   0.00
  37   1    -0.00   0.00   0.01     0.09  -0.07  -0.00     0.07  -0.00   0.00
  38   1     0.16  -0.22  -0.00    -0.04  -0.02  -0.00    -0.01  -0.03  -0.00
  39   1    -0.15   0.22   0.00    -0.01  -0.00  -0.00     0.01  -0.02  -0.00
  40   1     0.00   0.00   0.00    -0.03  -0.03   0.00    -0.03  -0.00  -0.00
  41   1     0.15  -0.22   0.00    -0.01  -0.00   0.00     0.01  -0.02   0.00
  42   1    -0.16   0.22  -0.00    -0.04  -0.02   0.00    -0.01  -0.03   0.00
  43   1     0.00  -0.00  -0.01    -0.01   0.07  -0.00     0.02  -0.07  -0.00
  44   1     0.00  -0.00   0.00    -0.03   0.02   0.00     0.04  -0.08  -0.00
  45   1     0.00   0.00  -0.00    -0.06  -0.04   0.00     0.11   0.03  -0.00
  46   1    -0.00   0.00   0.02     0.00  -0.08   0.00    -0.03   0.11  -0.00
  47   1    -0.00  -0.00  -0.02     0.01   0.00   0.00    -0.09  -0.01  -0.00
                     25                     26                     27
                        a                      a                      a 
 Frequencies --   403.8336               426.5150               453.6706
 Red. masses --    11.3645                 9.6969                11.0497
 Frc consts  --     0.0000                 0.0000                 0.0000
 IR Inten    --     6.1054                 0.0286                 3.4694
 Raman Activ --     0.0000                 0.0000                 0.0000
 Depolar     --     0.0000                 0.0000                 0.0000
 Atom AN      X      Y      Z        X      Y      Z        X      Y      Z
   1   6    -0.04  -0.03   0.04    -0.09  -0.01  -0.01    -0.02   0.03  -0.12
   2   6     0.00   0.00   0.06    -0.00  -0.00   0.03     0.16  -0.00  -0.00
   3   6     0.04   0.03   0.04     0.09   0.01  -0.01    -0.02   0.03   0.12
   4   6     0.00   0.00  -0.01    -0.00   0.00   0.21     0.11  -0.11   0.00
   5   6     0.00   0.00   0.16    -0.00   0.00  -0.15     0.08  -0.15  -0.00
   6   6     0.00  -0.00  -0.19    -0.00   0.00   0.04     0.05  -0.24   0.00
   7   6     0.00  -0.00   0.07    -0.00   0.00   0.07    -0.06  -0.10   0.00
   8   6     0.00  -0.00   0.12     0.00   0.00  -0.15    -0.08  -0.07  -0.00
   9   6     0.00  -0.00  -0.32     0.00   0.00   0.20    -0.02   0.08   0.00
  10   7     0.00  -0.00  -0.56     0.00  -0.00   0.04    -0.11   0.15  -0.00
  11   6     0.00  -0.00   0.24    -0.00   0.00  -0.01    -0.12   0.16   0.00
  12   6    -0.05  -0.03   0.22     0.02  -0.03  -0.01     0.01  -0.01   0.00
  13   6    -0.07  -0.06  -0.03    -0.01   0.02   0.00     0.05  -0.07   0.00
  14   6    -0.00  -0.00  -0.09     0.00   0.00   0.01    -0.07   0.10  -0.00
  15   6     0.07   0.06  -0.03     0.01  -0.02   0.00     0.05  -0.07  -0.00
  16   6     0.05   0.03   0.22    -0.02   0.03  -0.01     0.01  -0.01  -0.00
  17   6     0.00   0.00  -0.02    -0.00  -0.00  -0.25    -0.08   0.23  -0.00
  18   6     0.00   0.00   0.23    -0.00  -0.00   0.13    -0.13   0.26   0.00
  19   6    -0.00   0.00  -0.21     0.00  -0.00  -0.05    -0.23   0.03  -0.00
  20   6    -0.00   0.00  -0.17    -0.00   0.00  -0.26    -0.05  -0.20  -0.00
  21   6    -0.00  -0.00   0.17     0.00   0.00   0.25     0.18   0.15   0.00
  22   6    -0.00  -0.00   0.12     0.00   0.00  -0.24     0.22   0.18  -0.00
  23   9     0.00   0.00  -0.07    -0.00  -0.00   0.06     0.10  -0.23   0.00
  24   6    -0.00  -0.00  -0.03    -0.00   0.00  -0.18     0.12   0.20  -0.00
  25   6     0.00   0.00   0.03    -0.00   0.00   0.51    -0.09  -0.13   0.00
  26   6     0.00   0.00  -0.03    -0.00   0.00  -0.10    -0.05  -0.20   0.00
  27   6     0.00   0.00   0.01    -0.00  -0.00  -0.24     0.06   0.02  -0.00
  28   1     0.00  -0.01   0.00     0.03  -0.03  -0.02    -0.02   0.02  -0.06
  29   1    -0.03  -0.02   0.00    -0.06  -0.04  -0.01    -0.02   0.02  -0.07
  30   1    -0.02  -0.00   0.02    -0.04   0.03   0.02    -0.05  -0.01   0.01
  31   1    -0.00   0.01   0.00    -0.03   0.03  -0.02    -0.02   0.02   0.06
  32   1     0.03   0.02   0.00     0.06   0.04  -0.01    -0.02   0.02   0.07
  33   1     0.02   0.00   0.02     0.04  -0.03   0.02    -0.05  -0.01  -0.01
  34   1     0.00   0.00   0.12    -0.00   0.00  -0.14     0.01  -0.02  -0.00
  35   1    -0.00  -0.00  -0.10    -0.00   0.00  -0.00     0.02  -0.07  -0.00
  36   1     0.00  -0.00   0.07    -0.00  -0.00   0.01    -0.00   0.00  -0.00
  37   1     0.00  -0.00   0.11     0.00   0.00  -0.14    -0.00  -0.05  -0.00
  38   1    -0.06  -0.03   0.09     0.01  -0.02  -0.00     0.02  -0.03   0.00
  39   1    -0.05  -0.04  -0.03    -0.00   0.01   0.00     0.04  -0.06   0.00
  40   1    -0.00  -0.00  -0.05     0.00   0.00   0.00    -0.03   0.05  -0.00
  41   1     0.05   0.04  -0.03     0.00  -0.01   0.00     0.04  -0.06  -0.00
  42   1     0.06   0.03   0.09    -0.01   0.02  -0.00     0.02  -0.03  -0.00
  43   1     0.00   0.00   0.14     0.00  -0.00   0.17    -0.05   0.10   0.00
  44   1     0.00   0.00  -0.08     0.00  -0.00   0.06    -0.15   0.01  -0.00
  45   1    -0.00  -0.00   0.09     0.00   0.00   0.22     0.13   0.04   0.00
  46   1     0.00  -0.00  -0.04    -0.00   0.00  -0.06    -0.01   0.13  -0.00
  47   1     0.00   0.00   0.01     0.00   0.00   0.25    -0.10  -0.03   0.00
                     28                     29                     30
                        a                      a                      a 
 Frequencies --   469.8344               481.5215               503.0638
 Red. masses --    11.6280                10.3944                11.5212
 Frc consts  --     0.0000                 0.0000                 0.0000
 IR Inten    --     6.6513                 0.4641                22.3058
 Raman Activ --     0.0000                 0.0000                 0.0000
 Depolar     --     0.0000                 0.0000                 0.0000
 Atom AN      X      Y      Z        X      Y      Z        X      Y      Z
   1   6    -0.05   0.04   0.07     0.11   0.01  -0.04     0.06  -0.02  -0.10
   2   6    -0.09  -0.03  -0.00    -0.00  -0.00  -0.08     0.02   0.18   0.00
   3   6    -0.05   0.04  -0.07    -0.11  -0.01  -0.04     0.06  -0.02   0.10
   4   6     0.06   0.07  -0.00    -0.00   0.00   0.19    -0.03   0.00  -0.00
   5   6     0.11   0.08   0.00     0.00   0.00  -0.22     0.01   0.00   0.00
   6   6     0.06  -0.09  -0.00    -0.00   0.00   0.23     0.04   0.03   0.00
   7   6     0.13  -0.19   0.00     0.00  -0.00  -0.11     0.07  -0.02  -0.00
   8   6     0.14  -0.15   0.00     0.00  -0.00  -0.06     0.02  -0.03   0.00
   9   6     0.15  -0.00  -0.00     0.00   0.00   0.55    -0.01  -0.08  -0.00
  10   7    -0.11   0.01   0.00    -0.00  -0.00  -0.42    -0.07  -0.10   0.00
  11   6    -0.24   0.25  -0.00    -0.00   0.00   0.09     0.12  -0.31  -0.00
  12   6     0.01   0.02   0.04     0.02  -0.01   0.11     0.04  -0.03   0.05
  13   6     0.11  -0.09   0.03    -0.01   0.00  -0.04    -0.06   0.14   0.04
  14   6    -0.05   0.21   0.00     0.00   0.00  -0.05     0.20  -0.11   0.00
  15   6     0.11  -0.09  -0.03     0.01  -0.00  -0.04    -0.06   0.14  -0.04
  16   6     0.01   0.02  -0.04    -0.02   0.01   0.11     0.04  -0.03  -0.05
  17   6    -0.22  -0.15   0.00    -0.00  -0.00  -0.04    -0.06   0.10  -0.00
  18   6    -0.13  -0.15  -0.00     0.00  -0.00   0.10     0.14   0.11   0.00
  19   6     0.04   0.13   0.00     0.00   0.00  -0.09     0.09   0.04  -0.00
  20   6    -0.01   0.24   0.00     0.00   0.00   0.08     0.03   0.07  -0.00
  21   6    -0.04   0.10  -0.00    -0.00  -0.00  -0.09     0.07   0.08  -0.00
  22   6     0.12  -0.14   0.00    -0.00  -0.00   0.19     0.15  -0.05   0.00
  23   9     0.31  -0.10   0.00     0.00   0.00  -0.04     0.23  -0.23  -0.00
  24   6    -0.06  -0.12   0.00    -0.00  -0.00  -0.01    -0.28  -0.03  -0.00
  25   6    -0.02   0.01  -0.00     0.00   0.00  -0.15    -0.33  -0.08   0.00
  26   6    -0.14   0.20  -0.00    -0.00   0.00   0.16    -0.31   0.04   0.00
  27   6    -0.26  -0.03   0.00    -0.00  -0.00  -0.01    -0.18   0.20  -0.00
  28   1    -0.01   0.01   0.05     0.01   0.01  -0.01     0.03  -0.00  -0.09
  29   1    -0.01   0.02   0.01     0.06   0.01   0.02     0.01  -0.04   0.01
  30   1    -0.00   0.04   0.01     0.06  -0.03  -0.04     0.02  -0.05  -0.03
  31   1    -0.01   0.01  -0.05    -0.01  -0.01  -0.01     0.03  -0.00   0.09
  32   1    -0.01   0.02  -0.01    -0.06  -0.01   0.02     0.01  -0.04  -0.01
  33   1    -0.00   0.04  -0.01    -0.06   0.03  -0.04     0.02  -0.05   0.03
  34   1     0.02   0.03   0.00    -0.00  -0.00  -0.23     0.02  -0.02   0.00
  35   1    -0.03  -0.03  -0.00    -0.00   0.00   0.05     0.00   0.01   0.00
  36   1     0.03  -0.07   0.00     0.00  -0.00  -0.17     0.02  -0.01  -0.00
  37   1     0.05  -0.05   0.00     0.00  -0.00  -0.20    -0.00   0.00   0.00
  38   1     0.05  -0.04   0.00    -0.01  -0.02   0.05    -0.02   0.06   0.00
  39   1     0.07  -0.11   0.00    -0.02  -0.01  -0.02    -0.09   0.11   0.00
  40   1    -0.03   0.08   0.00     0.00   0.00  -0.01     0.06  -0.04  -0.00
  41   1     0.07  -0.11  -0.00     0.02   0.01  -0.02    -0.09   0.11  -0.00
  42   1     0.05  -0.04  -0.00     0.01   0.02   0.05    -0.02   0.06  -0.00
  43   1    -0.01  -0.09  -0.00     0.00  -0.00   0.03     0.04   0.02   0.00
  44   1     0.07   0.04  -0.00     0.00   0.00  -0.06     0.01   0.01   0.00
  45   1    -0.09   0.03  -0.00    -0.00  -0.00  -0.11    -0.02   0.02  -0.00
  46   1    -0.03  -0.02   0.00    -0.00  -0.00  -0.06    -0.13   0.08  -0.00
  47   1     0.06   0.00  -0.00     0.00   0.00  -0.10    -0.07  -0.02  -0.00
                     31                     32                     33
                        a                      a                      a 
 Frequencies --   518.3058               520.9573               537.5425
 Red. masses --    11.3237                10.2182                10.0551
 Frc consts  --     0.0000                 0.0000                 0.0000
 IR Inten    --    12.1790                 0.4077                 0.8049
 Raman Activ --     0.0000                 0.0000                 0.0000
 Depolar     --     0.0000                 0.0000                 0.0000
 Atom AN      X      Y      Z        X      Y      Z        X      Y      Z
   1   6    -0.04  -0.01   0.08     0.01  -0.05   0.05    -0.15   0.01   0.08
   2   6    -0.10  -0.02  -0.00    -0.00  -0.00   0.05    -0.00   0.00   0.11
   3   6    -0.04  -0.01  -0.08    -0.01   0.05   0.05     0.15  -0.01   0.08
   4   6    -0.03   0.09  -0.00    -0.00   0.00  -0.02    -0.00  -0.00  -0.41
   5   6     0.02   0.12  -0.00     0.00   0.00   0.05     0.00   0.00  -0.24
   6   6     0.01   0.07   0.00     0.00   0.00  -0.06     0.00   0.00   0.37
   7   6     0.10  -0.05  -0.00     0.00  -0.00   0.05     0.00  -0.00  -0.41
   8   6     0.08  -0.05   0.00     0.00  -0.00  -0.02    -0.00  -0.00   0.30
   9   6     0.06  -0.03   0.00     0.00  -0.00  -0.10    -0.00  -0.00  -0.01
  10   7     0.06  -0.03  -0.00     0.00   0.00   0.26     0.00  -0.00  -0.04
  11   6     0.18  -0.22   0.00     0.00  -0.00  -0.05    -0.00   0.00   0.01
  12   6     0.04  -0.06  -0.01    -0.02  -0.02  -0.06     0.00   0.00   0.01
  13   6    -0.09   0.11  -0.01    -0.02  -0.01   0.04     0.00   0.00  -0.01
  14   6     0.09  -0.17  -0.00    -0.00  -0.00   0.03    -0.00   0.00  -0.01
  15   6    -0.09   0.11   0.01     0.02   0.01   0.04    -0.00  -0.00  -0.01
  16   6     0.04  -0.06   0.01     0.02   0.02  -0.06    -0.00  -0.00   0.01
  17   6    -0.01  -0.05   0.00     0.00  -0.00  -0.46     0.00  -0.00  -0.09
  18   6    -0.38  -0.07  -0.00    -0.00  -0.00   0.13     0.00  -0.00  -0.03
  19   6    -0.37  -0.02   0.00    -0.00   0.00  -0.08    -0.00  -0.00   0.07
  20   6    -0.28   0.02   0.00    -0.00   0.00  -0.06    -0.00  -0.00  -0.22
  21   6    -0.09   0.26   0.00    -0.00   0.00  -0.17     0.00   0.00   0.04
  22   6     0.11   0.05  -0.00     0.00   0.00   0.51    -0.00   0.00   0.08
  23   9     0.22   0.02   0.00     0.00   0.00  -0.09    -0.00   0.00  -0.03
  24   6     0.30   0.03   0.00     0.00  -0.00  -0.20     0.00   0.00  -0.03
  25   6     0.19  -0.12  -0.00     0.00  -0.00   0.03     0.00  -0.00   0.08
  26   6     0.04   0.02  -0.00     0.00   0.00   0.32     0.00  -0.00  -0.04
  27   6    -0.01  -0.03   0.00     0.00  -0.00  -0.15     0.00   0.00   0.21
  28   1    -0.00  -0.01   0.04    -0.00  -0.01  -0.01    -0.04   0.00   0.02
  29   1    -0.01  -0.01   0.03    -0.00  -0.02   0.02    -0.06   0.01  -0.03
  30   1     0.01   0.02   0.01    -0.00  -0.03   0.01    -0.08   0.02   0.06
  31   1    -0.00  -0.01  -0.04     0.00   0.01  -0.01     0.04  -0.00   0.02
  32   1    -0.01  -0.01  -0.03    -0.00   0.02   0.02     0.06  -0.01  -0.03
  33   1     0.01   0.02  -0.01     0.00   0.03   0.01     0.08  -0.02   0.06
  34   1     0.01   0.03  -0.00     0.00   0.00   0.05     0.00  -0.00  -0.02
  35   1    -0.03   0.02   0.00    -0.00   0.00  -0.01    -0.00   0.00   0.26
  36   1     0.02  -0.03  -0.00     0.00  -0.00   0.05     0.00  -0.00  -0.18
  37   1     0.02  -0.01  -0.00     0.00  -0.00   0.03    -0.00   0.00   0.18
  38   1    -0.03   0.03  -0.00     0.01   0.00  -0.03    -0.00   0.00   0.00
  39   1    -0.08   0.11  -0.00     0.00   0.00   0.02    -0.00  -0.00  -0.00
  40   1     0.03  -0.06   0.00    -0.00  -0.00  -0.00    -0.00   0.00   0.00
  41   1    -0.08   0.11   0.00    -0.00  -0.00   0.02     0.00   0.00  -0.00
  42   1    -0.03   0.03   0.00    -0.01  -0.00  -0.03     0.00  -0.00   0.00
  43   1    -0.12   0.01  -0.00    -0.00  -0.00   0.21    -0.00   0.00   0.04
  44   1    -0.09  -0.01  -0.00    -0.00   0.00   0.07    -0.00  -0.00   0.10
  45   1    -0.02   0.07   0.00    -0.00   0.00  -0.19     0.00   0.00   0.05
  46   1     0.08   0.02   0.00     0.00  -0.00  -0.26     0.00   0.00  -0.03
  47   1     0.04  -0.03   0.00     0.00  -0.00  -0.13     0.00  -0.00   0.01
                     34                     35                     36
                        a                      a                      a 
 Frequencies --   566.6741               580.3846               589.1565
 Red. masses --    10.9430                10.9243                10.4049
 Frc consts  --     0.0000                 0.0000                 0.0000
 IR Inten    --     1.8783                 1.5375                 4.8698
 Raman Activ --     0.0000                 0.0000                 0.0000
 Depolar     --     0.0000                 0.0000                 0.0000
 Atom AN      X      Y      Z        X      Y      Z        X      Y      Z
   1   6    -0.07  -0.07   0.25     0.06   0.09  -0.13     0.04  -0.03  -0.02
   2   6    -0.25  -0.12   0.00    -0.00  -0.00  -0.12    -0.19   0.27  -0.00
   3   6    -0.07  -0.07  -0.25    -0.06  -0.09  -0.13     0.04  -0.03   0.02
   4   6    -0.08   0.18  -0.00    -0.00   0.00   0.07    -0.27   0.03   0.00
   5   6     0.25   0.23  -0.00     0.00   0.00   0.09     0.03   0.07   0.00
   6   6     0.12  -0.14   0.00     0.00  -0.00  -0.11     0.09   0.11  -0.00
   7   6     0.15  -0.21  -0.00     0.00  -0.00   0.12     0.22  -0.07   0.00
   8   6    -0.16  -0.22   0.00    -0.00  -0.00  -0.10    -0.11  -0.14  -0.00
   9   6    -0.06   0.14  -0.00    -0.00   0.00   0.08    -0.14  -0.19   0.00
  10   7     0.10   0.20  -0.00    -0.00   0.00  -0.03     0.11  -0.15   0.00
  11   6     0.17   0.06  -0.00     0.00  -0.00   0.02    -0.05   0.08   0.00
  12   6     0.02  -0.03  -0.11     0.03   0.02   0.03    -0.08   0.12  -0.00
  13   6    -0.04   0.03  -0.10     0.03   0.02  -0.04     0.09  -0.13  -0.00
  14   6    -0.11  -0.15  -0.00    -0.00  -0.00  -0.02    -0.11   0.16  -0.00
  15   6    -0.04   0.03   0.10    -0.03  -0.02  -0.04     0.09  -0.13   0.00
  16   6     0.02  -0.03   0.11    -0.03  -0.02   0.03    -0.08   0.12   0.00
  17   6     0.02   0.12  -0.00    -0.00   0.00   0.20     0.22   0.05  -0.00
  18   6     0.09   0.17   0.00     0.00   0.00  -0.25     0.14   0.02   0.00
  19   6     0.06   0.10  -0.00     0.00   0.00   0.28    -0.04  -0.27  -0.00
  20   6     0.12  -0.06   0.00     0.00  -0.00  -0.46    -0.15  -0.05   0.00
  21   6     0.09  -0.11   0.00     0.00  -0.00  -0.03    -0.07   0.13   0.00
  22   6    -0.00   0.02  -0.00    -0.00   0.00   0.38     0.01   0.03  -0.00
  23   9    -0.07  -0.04   0.00    -0.00  -0.00  -0.08    -0.00   0.06   0.00
  24   6    -0.12   0.03   0.00    -0.00   0.00  -0.17     0.11  -0.02   0.00
  25   6    -0.11   0.03   0.00    -0.00   0.00   0.18     0.02  -0.18  -0.00
  26   6    -0.02  -0.06   0.00    -0.00  -0.00  -0.10    -0.07  -0.01   0.00
  27   6     0.01  -0.03  -0.00    -0.00  -0.00   0.38     0.05   0.27  -0.00
  28   1    -0.02  -0.03   0.13     0.01   0.02   0.01     0.06  -0.02  -0.07
  29   1     0.00  -0.01   0.10     0.04   0.05  -0.03    -0.00  -0.09   0.10
  30   1     0.04   0.01   0.02     0.04   0.05  -0.05     0.06  -0.05  -0.06
  31   1    -0.02  -0.03  -0.13    -0.01  -0.02   0.01     0.06  -0.02   0.08
  32   1     0.00  -0.01  -0.10    -0.04  -0.05  -0.03    -0.00  -0.09  -0.10
  33   1     0.04   0.01  -0.02    -0.04  -0.05  -0.05     0.06  -0.05   0.06
  34   1     0.06   0.07  -0.00     0.00   0.00   0.00     0.06  -0.04   0.00
  35   1    -0.06  -0.05   0.00    -0.00  -0.00  -0.08    -0.02   0.03  -0.00
  36   1     0.06  -0.01  -0.00     0.00   0.00   0.03     0.07  -0.01   0.00
  37   1    -0.04  -0.06   0.00    -0.00  -0.00  -0.07    -0.08   0.03  -0.00
  38   1    -0.04  -0.01  -0.01     0.00   0.00   0.01     0.01  -0.02  -0.00
  39   1    -0.00   0.05  -0.01     0.00   0.00  -0.01     0.08  -0.12   0.00
  40   1    -0.03  -0.04   0.00    -0.00  -0.00   0.01    -0.02   0.03   0.00
  41   1    -0.00   0.05   0.01    -0.00  -0.00  -0.01     0.08  -0.12  -0.00
  42   1    -0.04  -0.01   0.01    -0.00  -0.00   0.01     0.01  -0.02   0.00
  43   1     0.03   0.04   0.00     0.00   0.00  -0.10    -0.01   0.08   0.00
  44   1    -0.03   0.03  -0.00    -0.00   0.00   0.19    -0.02  -0.07  -0.00
  45   1     0.04  -0.03   0.00     0.00  -0.00   0.04    -0.01   0.04   0.00
  46   1    -0.04   0.03   0.00    -0.00   0.00  -0.11     0.02   0.01   0.00
  47   1    -0.03   0.01  -0.00     0.00   0.00   0.07     0.00  -0.05  -0.00
                     37                     38                     39
                        a                      a                      a 
 Frequencies --   591.5408               612.6446               631.7502
 Red. masses --    11.2754                11.5159                11.1551
 Frc consts  --     0.0000                 0.0000                 0.0000
 IR Inten    --     0.3459                 4.1667                 1.5106
 Raman Activ --     0.0000                 0.0000                 0.0000
 Depolar     --     0.0000                 0.0000                 0.0000
 Atom AN      X      Y      Z        X      Y      Z        X      Y      Z
   1   6     0.01   0.02  -0.02    -0.04  -0.04   0.11     0.05   0.06  -0.08
   2   6    -0.00   0.00  -0.02    -0.09  -0.03   0.00     0.00   0.00  -0.06
   3   6    -0.01  -0.02  -0.02    -0.04  -0.04  -0.11    -0.05  -0.06  -0.08
   4   6    -0.00   0.00   0.03    -0.05   0.08  -0.00     0.00  -0.00  -0.05
   5   6     0.00   0.00  -0.01    -0.06   0.14  -0.00     0.00   0.00   0.07
   6   6     0.00  -0.00   0.01    -0.05   0.18  -0.00    -0.00  -0.00  -0.07
   7   6     0.00  -0.00   0.00     0.17  -0.09   0.00    -0.00   0.00   0.08
   8   6    -0.00  -0.00  -0.00     0.22  -0.07  -0.00    -0.00   0.00  -0.07
   9   6    -0.00  -0.00   0.03     0.10  -0.13   0.00     0.00   0.00   0.09
  10   7     0.00  -0.00  -0.19    -0.22  -0.15  -0.00    -0.00   0.00   0.11
  11   6    -0.00   0.00  -0.14    -0.26  -0.18   0.00    -0.00   0.00   0.00
  12   6    -0.27  -0.19  -0.25    -0.03  -0.03   0.20     0.02   0.01   0.01
  13   6    -0.29  -0.21   0.33    -0.01  -0.01   0.20     0.02   0.01  -0.02
  14   6    -0.00   0.00   0.17     0.25   0.17  -0.00     0.00  -0.00  -0.01
  15   6     0.29   0.21   0.33    -0.01  -0.01  -0.20    -0.02  -0.01  -0.02
  16   6     0.27   0.19  -0.25    -0.03  -0.03  -0.20    -0.02  -0.01   0.01
  17   6     0.00   0.00   0.02    -0.09   0.14  -0.00    -0.00  -0.00  -0.46
  18   6     0.00   0.00  -0.02     0.02   0.24  -0.00    -0.00  -0.00   0.11
  19   6    -0.00  -0.00   0.02    -0.03   0.15   0.00     0.00   0.00  -0.10
  20   6    -0.00  -0.00  -0.06     0.12  -0.14  -0.00     0.00   0.00  -0.20
  21   6    -0.00   0.00   0.02     0.12  -0.17   0.00    -0.00  -0.00   0.19
  22   6     0.00   0.00  -0.00    -0.04   0.06  -0.00    -0.00  -0.00  -0.29
  23   9    -0.00   0.00  -0.01    -0.17   0.06  -0.00     0.00  -0.00   0.02
  24   6     0.00  -0.00   0.01     0.10   0.05   0.00    -0.00   0.00   0.23
  25   6    -0.00  -0.00  -0.01     0.07  -0.01   0.00     0.00   0.00  -0.28
  26   6    -0.00  -0.00  -0.01     0.09  -0.11   0.00     0.00   0.00   0.23
  27   6     0.00   0.00   0.09     0.02  -0.04  -0.00     0.00  -0.00   0.52
  28   1     0.00   0.01   0.00    -0.01  -0.02   0.05    -0.01   0.02   0.02
  29   1     0.01   0.01  -0.00    -0.01  -0.01   0.04     0.04   0.05  -0.03
  30   1     0.01   0.01  -0.01     0.01   0.00   0.01     0.03   0.03  -0.03
  31   1    -0.00  -0.01   0.00    -0.01  -0.02  -0.05     0.01  -0.02   0.02
  32   1    -0.01  -0.01  -0.00    -0.01  -0.01  -0.04    -0.04  -0.05  -0.03
  33   1    -0.01  -0.01  -0.01     0.01   0.00  -0.01    -0.03  -0.03  -0.03
  34   1     0.00  -0.00  -0.02    -0.00   0.02   0.00     0.00   0.00   0.02
  35   1    -0.00  -0.00  -0.01    -0.06   0.05   0.00     0.00  -0.00  -0.04
  36   1     0.00  -0.00  -0.01     0.02  -0.09   0.00    -0.00   0.00   0.01
  37   1    -0.00  -0.00  -0.02     0.06  -0.01   0.00     0.00  -0.00  -0.04
  38   1    -0.04  -0.03  -0.09     0.04   0.03   0.02     0.01  -0.00   0.00
  39   1    -0.04  -0.03   0.12    -0.06  -0.04   0.02     0.00   0.00  -0.01
  40   1    -0.00   0.00  -0.11     0.07   0.05  -0.00     0.00  -0.00   0.01
  41   1     0.05   0.03   0.12    -0.06  -0.04  -0.02    -0.00  -0.00  -0.01
  42   1     0.04   0.03  -0.09     0.04   0.03  -0.02    -0.01   0.00   0.00
  43   1     0.00   0.00  -0.01     0.01   0.06   0.00     0.00  -0.00   0.15
  44   1    -0.00  -0.00   0.01    -0.08   0.04   0.00     0.00   0.00   0.08
  45   1    -0.00   0.00   0.02     0.09  -0.05   0.00    -0.00  -0.00   0.11
  46   1     0.00   0.00   0.01     0.04  -0.00   0.00     0.00  -0.00   0.12
  47   1     0.00  -0.00   0.01    -0.00  -0.00  -0.00    -0.00   0.00  -0.06
                     40                     41                     42
                        a                      a                      a 
 Frequencies --   637.3086               674.7804               694.8901
 Red. masses --    11.1461                 9.2791                11.0325
 Frc consts  --     0.0000                 0.0000                 0.0000
 IR Inten    --     0.8082                14.0480                 3.0395
 Raman Activ --     0.0000                 0.0000                 0.0000
 Depolar     --     0.0000                 0.0000                 0.0000
 Atom AN      X      Y      Z        X      Y      Z        X      Y      Z
   1   6    -0.07  -0.08   0.19     0.03   0.03  -0.07     0.09   0.05  -0.13
   2   6    -0.08  -0.14  -0.00     0.06  -0.02  -0.00    -0.00   0.10   0.00
   3   6    -0.07  -0.08  -0.19     0.03   0.03   0.07     0.09   0.05   0.13
   4   6     0.00  -0.18   0.00     0.02   0.08   0.00    -0.17   0.01  -0.01
   5   6    -0.26  -0.23  -0.00     0.08   0.12  -0.00    -0.05   0.06   0.00
   6   6    -0.10   0.18   0.00     0.01  -0.02   0.00     0.00   0.18  -0.00
   7   6     0.00   0.10  -0.00    -0.01  -0.01  -0.00     0.17  -0.05   0.00
   8   6     0.34   0.13   0.00    -0.11  -0.03   0.00    -0.10  -0.11  -0.00
   9   6     0.16  -0.17  -0.00    -0.05   0.06  -0.00    -0.11  -0.14   0.01
  10   7     0.17  -0.09  -0.00    -0.02   0.00   0.00     0.08  -0.09  -0.00
  11   6     0.16   0.01  -0.00     0.25  -0.42   0.00    -0.03   0.11  -0.00
  12   6    -0.04   0.11  -0.09    -0.14   0.19   0.02     0.03  -0.01  -0.03
  13   6     0.08  -0.08  -0.10     0.18  -0.27   0.03    -0.03   0.07  -0.04
  14   6    -0.18   0.02   0.00    -0.10   0.21  -0.00    -0.02  -0.04   0.00
  15   6     0.08  -0.08   0.10     0.18  -0.27  -0.03    -0.03   0.07   0.04
  16   6    -0.04   0.11   0.09    -0.14   0.19  -0.02     0.03  -0.01   0.03
  17   6     0.13   0.09  -0.00    -0.05  -0.05  -0.00     0.04  -0.10   0.00
  18   6    -0.03   0.20  -0.00    -0.13  -0.07   0.00    -0.31  -0.09   0.00
  19   6    -0.09   0.15   0.00    -0.04   0.07  -0.00    -0.17   0.12  -0.00
  20   6    -0.03   0.03  -0.00     0.04  -0.01  -0.00     0.08  -0.11   0.00
  21   6    -0.00   0.04   0.00     0.03  -0.08   0.00     0.11  -0.27  -0.00
  22   6     0.05  -0.01  -0.00     0.00  -0.00   0.00     0.01  -0.00   0.00
  23   9     0.13  -0.10   0.00     0.04  -0.05   0.00     0.16  -0.18   0.00
  24   6    -0.17   0.02   0.00    -0.05   0.03   0.00    -0.20   0.13  -0.00
  25   6    -0.15   0.05   0.00    -0.00   0.12  -0.00    -0.03   0.44   0.00
  26   6    -0.04  -0.00   0.00     0.05   0.00   0.00     0.16   0.02  -0.00
  27   6     0.07   0.01   0.00     0.00  -0.09   0.00     0.09  -0.07  -0.00
  28   1    -0.03  -0.03   0.10    -0.00   0.01  -0.02     0.03   0.02  -0.08
  29   1    -0.01  -0.00   0.05     0.01   0.02  -0.04     0.02  -0.01  -0.01
  30   1     0.00   0.01   0.04    -0.01   0.01  -0.00     0.03  -0.02  -0.04
  31   1    -0.03  -0.03  -0.10    -0.00   0.01   0.02     0.03   0.02   0.08
  32   1    -0.01  -0.00  -0.05     0.01   0.02   0.04     0.02  -0.01   0.01
  33   1     0.00   0.01  -0.04    -0.01   0.01   0.00     0.03  -0.02   0.05
  34   1    -0.06  -0.09   0.00     0.01   0.05  -0.00     0.02  -0.03   0.00
  35   1     0.04   0.06   0.00    -0.03  -0.01   0.00    -0.04   0.04   0.00
  36   1    -0.04  -0.07   0.00     0.01   0.03  -0.00     0.04  -0.02   0.00
  37   1     0.09   0.04   0.00    -0.03  -0.02   0.00    -0.08   0.03  -0.00
  38   1    -0.03   0.00  -0.01    -0.16   0.23   0.00     0.07  -0.10  -0.00
  39   1     0.07  -0.03  -0.01    -0.05   0.05   0.00     0.06  -0.05  -0.00
  40   1    -0.05   0.01  -0.00    -0.14   0.22   0.00     0.05  -0.10  -0.00
  41   1     0.07  -0.03   0.01    -0.05   0.05  -0.00     0.06  -0.05   0.00
  42   1    -0.03   0.00   0.01    -0.16   0.23  -0.00     0.07  -0.10   0.00
  43   1    -0.03   0.09   0.00    -0.02  -0.05  -0.00    -0.09  -0.02  -0.00
  44   1    -0.06   0.04   0.00    -0.00   0.02  -0.00    -0.05   0.03  -0.00
  45   1    -0.02   0.01   0.00     0.02  -0.02  -0.00     0.07  -0.08  -0.00
  46   1    -0.07   0.04  -0.00    -0.01  -0.00   0.00    -0.03   0.00  -0.00
  47   1    -0.04   0.01  -0.00    -0.00   0.03   0.00    -0.01   0.12  -0.00
                     43                     44                     45
                        a                      a                      a 
 Frequencies --   695.3364               720.7893               734.5299
 Red. masses --    11.5026                11.6292                11.3914
 Frc consts  --     0.0000                 0.0000                 0.0000
 IR Inten    --     3.4778                 0.1363                21.0755
 Raman Activ --     0.0000                 0.0000                 0.0000
 Depolar     --     0.0000                 0.0000                 0.0000
 Atom AN      X      Y      Z        X      Y      Z        X      Y      Z
   1   6     0.09   0.04  -0.09     0.01   0.03  -0.06     0.05   0.06  -0.13
   2   6     0.00   0.00  -0.06    -0.00   0.00  -0.03    -0.03   0.10  -0.00
   3   6    -0.08  -0.04  -0.09    -0.01  -0.03  -0.06     0.05   0.06   0.13
   4   6    -0.00   0.00   0.64     0.00  -0.00   0.05    -0.10  -0.07   0.00
   5   6    -0.00   0.00  -0.22    -0.00  -0.00  -0.01    -0.13  -0.09  -0.00
   6   6     0.00   0.00   0.24    -0.00  -0.00   0.01    -0.01   0.15   0.00
   7   6     0.00  -0.00  -0.19    -0.00  -0.00  -0.01     0.17  -0.06  -0.00
   8   6    -0.00  -0.00   0.25     0.00   0.00   0.02     0.07  -0.07   0.00
   9   6    -0.00  -0.00  -0.51     0.00  -0.00  -0.03    -0.02  -0.12  -0.00
  10   7     0.00  -0.00   0.09    -0.00   0.00   0.04    -0.10   0.01   0.00
  11   6    -0.00   0.00   0.00    -0.00   0.00   0.00     0.09   0.10  -0.00
  12   6     0.00   0.00   0.00     0.00  -0.00   0.00     0.08   0.02  -0.13
  13   6     0.00   0.00  -0.00     0.00   0.00  -0.00     0.09   0.03  -0.19
  14   6    -0.00  -0.00  -0.00     0.00  -0.00  -0.00    -0.14  -0.13   0.00
  15   6    -0.01  -0.00  -0.00    -0.00  -0.00  -0.00     0.09   0.03   0.19
  16   6    -0.00  -0.00   0.00    -0.00   0.00   0.00     0.08   0.02   0.13
  17   6     0.00  -0.00  -0.02    -0.00   0.00  -0.28    -0.23  -0.06   0.00
  18   6    -0.01  -0.00  -0.02     0.00   0.00   0.20    -0.11  -0.03   0.00
  19   6    -0.00   0.00   0.02    -0.00  -0.00  -0.16     0.08   0.30   0.00
  20   6     0.00  -0.00  -0.08    -0.00  -0.00   0.46     0.18   0.01  -0.00
  21   6     0.00  -0.01   0.03     0.00   0.00  -0.16     0.14  -0.08   0.00
  22   6     0.00  -0.00  -0.02     0.00   0.00   0.16     0.02   0.04   0.00
  23   9     0.00  -0.00  -0.00    -0.00   0.00  -0.01    -0.26   0.14  -0.00
  24   6    -0.00   0.00   0.03    -0.00  -0.00  -0.18     0.19  -0.04   0.00
  25   6    -0.00   0.01  -0.06    -0.00  -0.00   0.18     0.04  -0.32  -0.00
  26   6     0.00   0.00   0.08    -0.00  -0.00  -0.56    -0.09  -0.06   0.00
  27   6     0.00  -0.00   0.05     0.00   0.00   0.42    -0.19  -0.04   0.00
  28   1     0.03   0.01  -0.01     0.00   0.01   0.02     0.03   0.01  -0.06
  29   1     0.04   0.00   0.02     0.01   0.02  -0.02     0.01  -0.01   0.00
  30   1     0.05   0.00  -0.05     0.01   0.03  -0.02     0.02   0.00  -0.05
  31   1    -0.02  -0.01  -0.01    -0.00  -0.01   0.02     0.03   0.01   0.06
  32   1    -0.04  -0.00   0.02    -0.01  -0.02  -0.02     0.01  -0.01  -0.00
  33   1    -0.05  -0.01  -0.05    -0.01  -0.03  -0.02     0.02   0.00   0.05
  34   1     0.00  -0.00  -0.16    -0.00  -0.00  -0.01     0.00  -0.08  -0.00
  35   1    -0.00   0.00  -0.04     0.00  -0.00  -0.01    -0.01   0.04  -0.00
  36   1     0.00  -0.00  -0.06    -0.00  -0.00  -0.01     0.03  -0.06  -0.00
  37   1    -0.00   0.00   0.04     0.00  -0.00  -0.01    -0.00   0.02  -0.00
  38   1     0.00   0.00  -0.00     0.00   0.00  -0.00    -0.05   0.06  -0.02
  39   1     0.00   0.00  -0.00     0.00  -0.00  -0.00     0.03   0.11  -0.02
  40   1     0.00  -0.00   0.00    -0.00   0.00   0.00    -0.09   0.04   0.00
  41   1     0.00  -0.00  -0.00    -0.00   0.00  -0.00     0.03   0.11   0.02
  42   1     0.00  -0.01  -0.00    -0.00  -0.00  -0.00    -0.05   0.06   0.02
  43   1    -0.00  -0.00   0.00     0.00   0.00  -0.04     0.03  -0.10  -0.00
  44   1    -0.00   0.00   0.01    -0.00  -0.00  -0.09     0.03   0.08  -0.00
  45   1     0.00  -0.00   0.02     0.00   0.00  -0.03     0.08  -0.02   0.00
  46   1    -0.00   0.00   0.01    -0.00   0.00   0.07     0.04   0.01   0.00
  47   1    -0.00   0.00   0.00     0.00   0.00   0.12     0.00  -0.09   0.00
                     46                     47                     48
                        a                      a                      a 
 Frequencies --   762.1488               777.2277               797.5763
 Red. masses --     6.2146                 3.5467                 9.3123
 Frc consts  --     0.0000                 0.0000                 0.0000
 IR Inten    --    13.5800                21.9802                 2.4591
 Raman Activ --     0.0000                 0.0000                 0.0000
 Depolar     --     0.0000                 0.0000                 0.0000
 Atom AN      X      Y      Z        X      Y      Z        X      Y      Z
   1   6     0.02   0.00  -0.04     0.04   0.01  -0.05     0.07  -0.03  -0.07
   2   6     0.10  -0.13   0.00     0.00  -0.00  -0.01     0.22  -0.31   0.00
   3   6     0.02   0.00   0.04    -0.04  -0.01  -0.05     0.07  -0.03   0.07
   4   6     0.03   0.06  -0.00    -0.00   0.00   0.24    -0.06  -0.01  -0.00
   5   6     0.05   0.12  -0.00    -0.00   0.00  -0.16    -0.09   0.12   0.00
   6   6    -0.01   0.03  -0.00    -0.00   0.00  -0.17    -0.06   0.30   0.00
   7   6    -0.02   0.01  -0.00     0.00  -0.00  -0.20     0.19  -0.07   0.00
   8   6    -0.10  -0.02  -0.00    -0.00  -0.00  -0.20    -0.21  -0.16   0.00
   9   6    -0.04   0.01   0.00    -0.00  -0.00   0.17    -0.13  -0.08   0.00
  10   7     0.05  -0.07  -0.00    -0.00  -0.00  -0.05     0.08  -0.04   0.00
  11   6     0.20  -0.30  -0.00    -0.00   0.00  -0.00    -0.14   0.18   0.00
  12   6    -0.10   0.13   0.01    -0.00  -0.00   0.00     0.03  -0.06   0.02
  13   6    -0.05   0.07   0.01    -0.00  -0.00   0.00    -0.00  -0.03   0.03
  14   6    -0.08   0.14   0.00     0.00  -0.00  -0.00     0.07  -0.05  -0.00
  15   6    -0.05   0.07  -0.01     0.00   0.00   0.00    -0.00  -0.03  -0.03
  16   6    -0.10   0.13  -0.01     0.00   0.00   0.00     0.03  -0.06  -0.02
  17   6    -0.01  -0.03  -0.00     0.00   0.00  -0.01     0.12   0.01  -0.00
  18   6    -0.04   0.01   0.00     0.00   0.00   0.00     0.09   0.08  -0.00
  19   6     0.04   0.23  -0.00     0.00  -0.00  -0.00     0.05   0.10  -0.00
  20   6     0.04   0.09   0.00    -0.00   0.00  -0.00    -0.07   0.13   0.00
  21   6    -0.00   0.09  -0.00    -0.00   0.00  -0.00    -0.14   0.24   0.00
  22   6     0.02   0.00  -0.00     0.00  -0.00   0.00     0.00  -0.03  -0.00
  23   9    -0.08   0.06   0.00     0.00  -0.00  -0.00     0.05   0.00   0.00
  24   6     0.02  -0.05   0.00    -0.00  -0.00  -0.00    -0.09  -0.06   0.00
  25   6    -0.06  -0.23   0.00    -0.00  -0.00  -0.01    -0.09  -0.13   0.00
  26   6    -0.05  -0.06  -0.00     0.00  -0.00   0.00     0.04  -0.08  -0.00
  27   6     0.00  -0.10   0.00     0.00  -0.00   0.01     0.18  -0.17   0.00
  28   1    -0.02   0.01   0.02     0.01   0.00  -0.01    -0.06   0.01   0.07
  29   1     0.02   0.05  -0.07     0.01  -0.00   0.00     0.05   0.11  -0.17
  30   1    -0.03   0.02   0.02     0.02   0.01  -0.02    -0.05   0.04   0.06
  31   1    -0.02   0.01  -0.02    -0.01  -0.00  -0.01    -0.06   0.01  -0.07
  32   1     0.02   0.05   0.07    -0.01   0.00   0.01     0.05   0.11   0.17
  33   1    -0.02   0.02  -0.02    -0.02  -0.01  -0.02    -0.05   0.04  -0.06
  34   1     0.00   0.05   0.00     0.00   0.00   0.30    -0.01   0.01  -0.00
  35   1    -0.03   0.01   0.00    -0.00   0.00   0.52    -0.09   0.07  -0.00
  36   1     0.00   0.02   0.00     0.00   0.00   0.47     0.05  -0.03  -0.00
  37   1    -0.03   0.00   0.00    -0.00   0.00   0.43    -0.12   0.03  -0.00
  38   1     0.15  -0.21   0.00    -0.00   0.00   0.00    -0.04   0.06   0.00
  39   1     0.19  -0.27   0.00    -0.00  -0.00   0.00    -0.08   0.08   0.00
  40   1     0.22  -0.31  -0.00    -0.00   0.00  -0.00    -0.09   0.13  -0.00
  41   1     0.19  -0.27  -0.00     0.00   0.00   0.00    -0.08   0.08  -0.00
  42   1     0.15  -0.21  -0.00     0.00  -0.00   0.00    -0.04   0.06  -0.00
  43   1     0.01  -0.04   0.00     0.00   0.00   0.00     0.02   0.03   0.00
  44   1     0.03   0.07   0.00     0.00  -0.00   0.00     0.04   0.03   0.00
  45   1    -0.02   0.03   0.00    -0.00   0.00  -0.00    -0.11   0.07  -0.00
  46   1    -0.02   0.02  -0.00    -0.00   0.00   0.01    -0.05   0.02  -0.00
  47   1    -0.04  -0.06  -0.00     0.00  -0.00   0.01    -0.07  -0.04  -0.00
                     49                     50                     51
                        a                      a                      a 
 Frequencies --   810.9886               831.7742               837.9534
 Red. masses --     4.2651                10.9763                 4.1004
 Frc consts  --     0.0000                 0.0000                 0.0000
 IR Inten    --     1.6135                 5.6930                48.0010
 Raman Activ --     0.0000                 0.0000                 0.0000
 Depolar     --     0.0000                 0.0000                 0.0000
 Atom AN      X      Y      Z        X      Y      Z        X      Y      Z
   1   6     0.03   0.00  -0.02    -0.03   0.02   0.03    -0.03   0.01  -0.01
   2   6    -0.00   0.00   0.01    -0.10   0.14   0.00    -0.00   0.00  -0.01
   3   6    -0.04  -0.00  -0.02    -0.03   0.02  -0.03     0.03  -0.01  -0.01
   4   6     0.00   0.00   0.02    -0.02   0.03   0.00    -0.00   0.00  -0.01
   5   6     0.00  -0.00  -0.00     0.09   0.00  -0.00     0.00   0.00   0.00
   6   6     0.00  -0.00   0.00     0.04  -0.16   0.00     0.00  -0.00   0.00
   7   6    -0.00   0.00  -0.00    -0.17   0.10  -0.00    -0.00   0.00  -0.00
   8   6     0.00   0.00   0.01    -0.02   0.08  -0.00    -0.00   0.00  -0.00
   9   6     0.00   0.00  -0.01     0.04  -0.01   0.00     0.00  -0.00  -0.00
  10   7     0.00  -0.00  -0.03     0.33  -0.06   0.00     0.00  -0.00  -0.02
  11   6    -0.00   0.00  -0.00    -0.07   0.15   0.00    -0.00   0.00  -0.00
  12   6    -0.00   0.00   0.00    -0.04  -0.07   0.06    -0.00   0.00   0.00
  13   6    -0.00   0.00  -0.00    -0.07  -0.08   0.16    -0.00   0.00  -0.00
  14   6     0.00   0.00  -0.00     0.14   0.03  -0.00     0.00   0.00  -0.00
  15   6     0.00  -0.00  -0.00    -0.07  -0.08  -0.16     0.00  -0.00  -0.00
  16   6     0.00  -0.00   0.00    -0.04  -0.07  -0.06     0.00  -0.00   0.00
  17   6     0.00  -0.00   0.17     0.28  -0.14  -0.00     0.00  -0.00   0.11
  18   6    -0.00  -0.00  -0.23    -0.27  -0.15   0.00    -0.00  -0.00  -0.23
  19   6     0.00   0.00  -0.25    -0.01   0.37   0.00    -0.00   0.00  -0.18
  20   6     0.00   0.00   0.15     0.12   0.07  -0.00     0.00   0.00   0.15
  21   6    -0.00  -0.00   0.18     0.10   0.02   0.00     0.00   0.00  -0.16
  22   6    -0.00  -0.00  -0.15     0.07   0.02  -0.00     0.00   0.00   0.14
  23   9    -0.00   0.00   0.04    -0.11   0.04   0.00    -0.00   0.00  -0.03
  24   6     0.00   0.00   0.12    -0.09  -0.04   0.00    -0.00  -0.00  -0.25
  25   6     0.00  -0.00   0.14    -0.14  -0.25   0.00    -0.00  -0.00  -0.15
  26   6     0.00  -0.00  -0.17     0.00  -0.08  -0.00    -0.00  -0.00   0.16
  27   6     0.00   0.00   0.07     0.17   0.04  -0.00     0.00   0.00  -0.04
  28   1    -0.01   0.01   0.00     0.04  -0.01  -0.04     0.01  -0.01   0.01
  29   1     0.01   0.02  -0.02    -0.02  -0.06   0.08    -0.01  -0.01   0.02
  30   1     0.01  -0.01  -0.00     0.03  -0.02  -0.03    -0.00   0.02  -0.01
  31   1     0.01  -0.01   0.00     0.04  -0.01   0.04    -0.01   0.01   0.01
  32   1    -0.01  -0.02  -0.02    -0.02  -0.06  -0.08     0.01   0.01   0.02
  33   1    -0.01   0.01  -0.00     0.03  -0.02   0.03     0.00  -0.02  -0.01
  34   1     0.00  -0.00   0.00     0.01   0.01  -0.00     0.00   0.00  -0.01
  35   1     0.00  -0.00  -0.00     0.05  -0.04   0.00     0.00  -0.00  -0.01
  36   1    -0.00   0.00   0.00    -0.03   0.07   0.00    -0.00   0.00  -0.00
  37   1     0.00  -0.00  -0.01     0.00   0.01   0.00    -0.00   0.00   0.01
  38   1     0.00  -0.01   0.00    -0.02   0.01   0.01     0.00  -0.01   0.00
  39   1     0.00  -0.00   0.00    -0.10   0.01   0.02     0.00  -0.00  -0.00
  40   1    -0.00   0.00   0.00    -0.04   0.11  -0.00    -0.00   0.00   0.00
  41   1    -0.00   0.00   0.00    -0.10   0.01  -0.02    -0.00   0.00  -0.00
  42   1    -0.00   0.01   0.00    -0.02   0.01  -0.01    -0.00   0.01   0.00
  43   1    -0.00  -0.00   0.42    -0.06  -0.05  -0.00    -0.00  -0.00   0.42
  44   1     0.00   0.00   0.47     0.07   0.11  -0.00     0.00   0.00   0.32
  45   1     0.00  -0.00  -0.40     0.03   0.01  -0.00     0.00   0.00   0.26
  46   1     0.00  -0.00  -0.30    -0.07   0.07  -0.00    -0.00   0.00   0.54
  47   1    -0.00  -0.00  -0.22    -0.06  -0.07  -0.00     0.00  -0.00   0.28
                     52                     53                     54
                        a                      a                      a 
 Frequencies --   863.2169               871.2257               878.0028
 Red. masses --     3.5112                 3.6571                 3.3218
 Frc consts  --     0.0000                 0.0000                 0.0000
 IR Inten    --     0.0333                 0.8213                 0.0088
 Raman Activ --     0.0000                 0.0000                 0.0000
 Depolar     --     0.0000                 0.0000                 0.0000
 Atom AN      X      Y      Z        X      Y      Z        X      Y      Z
   1   6     0.01  -0.00  -0.01     0.03  -0.01   0.00     0.00   0.00  -0.00
   2   6     0.00   0.00  -0.00    -0.00   0.00   0.01     0.00  -0.00   0.00
   3   6    -0.01   0.00  -0.01    -0.03   0.01   0.00    -0.00  -0.00  -0.00
   4   6     0.00   0.00   0.03    -0.00  -0.00   0.01     0.00   0.00   0.00
   5   6    -0.00  -0.00  -0.16    -0.00  -0.00   0.00     0.00   0.00  -0.01
   6   6     0.00  -0.00  -0.26     0.00  -0.00   0.01    -0.00  -0.00  -0.02
   7   6     0.00   0.00   0.06     0.00  -0.00  -0.00    -0.00   0.00   0.01
   8   6    -0.00   0.00   0.35     0.00   0.00  -0.00     0.00   0.00   0.02
   9   6    -0.00   0.00  -0.05     0.00   0.00  -0.00     0.00  -0.00  -0.00
  10   7     0.00   0.00   0.01    -0.00   0.00  -0.01    -0.00  -0.00   0.00
  11   6     0.00   0.00   0.00    -0.00  -0.00  -0.00    -0.00  -0.00  -0.00
  12   6    -0.01   0.01  -0.00    -0.00   0.00   0.00     0.15  -0.21   0.00
  13   6    -0.01   0.01   0.00    -0.00   0.00  -0.00     0.12  -0.16   0.00
  14   6     0.00   0.00   0.00    -0.00  -0.00  -0.00    -0.00   0.00  -0.00
  15   6     0.01  -0.01   0.00     0.00  -0.00  -0.00    -0.12   0.16   0.00
  16   6     0.01  -0.01  -0.00     0.00  -0.00   0.00    -0.15   0.21   0.00
  17   6     0.00  -0.00   0.00    -0.00   0.00   0.03    -0.00  -0.00   0.00
  18   6    -0.00  -0.00  -0.00     0.00   0.00  -0.07     0.00   0.00   0.00
  19   6    -0.00   0.00   0.00     0.00  -0.00  -0.05     0.00   0.00  -0.01
  20   6     0.00  -0.00   0.00    -0.00   0.00   0.11    -0.00   0.00   0.00
  21   6     0.00  -0.00  -0.01    -0.00  -0.00  -0.38    -0.00  -0.00  -0.01
[...]
  14   6    -0.00  -0.00  -0.00     0.00   0.00  -0.00     0.11   0.08  -0.00
  15   6     0.00   0.00   0.00    -0.00  -0.00  -0.00    -0.06  -0.04  -0.12
  16   6    -0.00  -0.00   0.00    -0.00  -0.00   0.00    -0.03  -0.02   0.06
  17   6     0.00   0.00   0.00    -0.00   0.00  -0.00     0.00  -0.00   0.00
  18   6    -0.00  -0.00  -0.00     0.00  -0.00   0.00    -0.01  -0.00  -0.00
  19   6    -0.00   0.00  -0.00     0.00  -0.00  -0.00    -0.00   0.01   0.00
  20   6    -0.00   0.00   0.00     0.00  -0.00  -0.00    -0.00   0.00   0.00
  21   6     0.00   0.00  -0.00    -0.00  -0.00   0.00    -0.00  -0.00  -0.00
  22   6     0.00  -0.00   0.00    -0.00   0.00  -0.00     0.00  -0.00   0.00
  23   9    -0.00   0.00  -0.00     0.00  -0.00  -0.00    -0.00   0.00   0.00
  24   6     0.00   0.00   0.00     0.00   0.00  -0.00    -0.00  -0.00   0.00
  25   6     0.00  -0.00  -0.00    -0.00   0.00   0.00    -0.00   0.00   0.00
  26   6    -0.00  -0.00  -0.00    -0.00   0.00   0.00     0.00  -0.00  -0.00
  27   6    -0.00   0.00  -0.00     0.00  -0.00  -0.00    -0.00   0.00   0.00
  28   1    -0.00  -0.05  -0.01     0.00   0.01   0.00    -0.00  -0.00  -0.00
  29   1    -0.42   0.37   0.19     0.01  -0.01  -0.01     0.00  -0.00  -0.00
  30   1     0.07  -0.02   0.05    -0.00   0.00  -0.00    -0.00   0.00  -0.00
  31   1    -0.00  -0.06   0.02     0.00   0.01  -0.00    -0.00  -0.00   0.00
  32   1    -0.54   0.47  -0.24     0.01  -0.01   0.01     0.00  -0.00   0.00
  33   1     0.09  -0.02  -0.06    -0.00   0.00   0.00    -0.00   0.00   0.00
  34   1    -0.00   0.00  -0.00     0.07   0.05  -0.00    -0.00  -0.00   0.00
  35   1     0.00  -0.00   0.00     0.07  -0.56   0.00    -0.00   0.03  -0.00
  36   1    -0.03   0.01   0.00    -0.71   0.28  -0.00     0.01  -0.00   0.00
  37   1    -0.00  -0.00  -0.00     0.14   0.11  -0.00     0.02   0.01   0.00
  38   1     0.00   0.00   0.00     0.00   0.00   0.01     0.10   0.07   0.22
  39   1    -0.00  -0.00   0.00     0.00   0.00  -0.01     0.21   0.15  -0.44
  40   1     0.00   0.00  -0.00    -0.00  -0.00   0.00    -0.43  -0.30   0.00
  41   1    -0.00  -0.00  -0.00     0.00   0.00   0.01     0.21   0.15   0.45
  42   1     0.00   0.00  -0.00     0.00   0.00  -0.01     0.11   0.08  -0.22
  43   1     0.00   0.00   0.00     0.00   0.00  -0.00     0.02   0.01   0.00
  44   1     0.00  -0.01   0.00    -0.00   0.00   0.00     0.00  -0.04  -0.00
  45   1     0.00  -0.00  -0.00    -0.00   0.00   0.00     0.00   0.00   0.00
  46   1    -0.01  -0.00  -0.00    -0.00  -0.00  -0.00     0.00   0.00   0.00
  47   1     0.00   0.01  -0.00     0.00  -0.00   0.00     0.00  -0.00   0.00
                    124                    125                    126
                        a                      a                      a 
 Frequencies --  3078.3296              3079.3107              3082.0423
 Red. masses --     1.7882                 1.8053                 1.8315
 Frc consts  --     0.0000                 0.0000                 0.0000
 IR Inten    --     2.6541                33.8098                91.0840
 Raman Activ --     0.0000                 0.0000                 0.0000
 Depolar     --     0.0000                 0.0000                 0.0000
 Atom AN      X      Y      Z        X      Y      Z        X      Y      Z
   1   6    -0.00   0.00   0.00    -0.00   0.00   0.00    -0.00   0.01   0.00
   2   6     0.00  -0.00  -0.00    -0.00  -0.00  -0.00    -0.00  -0.00   0.00
   3   6     0.00  -0.00   0.00    -0.00   0.00  -0.00    -0.00   0.01  -0.00
   4   6     0.00   0.00  -0.00     0.00   0.00  -0.00     0.00   0.00  -0.00
   5   6     0.00   0.00   0.00     0.00   0.00  -0.00     0.06   0.05  -0.00
   6   6     0.00  -0.00  -0.00    -0.00   0.00  -0.00     0.03  -0.20   0.00
   7   6     0.00  -0.00   0.00    -0.00   0.00  -0.00     0.13  -0.05   0.00
   8   6    -0.00  -0.00   0.00    -0.00  -0.00  -0.00    -0.07  -0.05   0.00
   9   6    -0.00   0.00  -0.00    -0.00  -0.00   0.00    -0.00  -0.00   0.00
  10   7    -0.00  -0.00   0.00    -0.00   0.00  -0.00     0.00  -0.00   0.00
  11   6    -0.00  -0.00  -0.00     0.00   0.00   0.00     0.00  -0.00  -0.00
  12   6    -0.05  -0.04  -0.10    -0.00   0.00  -0.00    -0.00  -0.00  -0.00
  13   6    -0.06  -0.04   0.13     0.00   0.00  -0.01     0.00   0.00  -0.00
  14   6     0.00   0.00   0.00    -0.01  -0.01  -0.00    -0.01  -0.01   0.00
  15   6     0.06   0.04   0.12     0.00   0.00   0.01     0.00   0.00   0.00
  16   6     0.05   0.04  -0.10    -0.00   0.00   0.00    -0.00  -0.00   0.00
  17   6     0.00  -0.00  -0.00    -0.00  -0.00   0.00    -0.00   0.00   0.00
  18   6    -0.00  -0.00   0.00    -0.05  -0.03  -0.00    -0.00  -0.00  -0.00
  19   6    -0.00   0.00   0.00    -0.01   0.26   0.00    -0.00  -0.00   0.00
  20   6    -0.00   0.00  -0.00    -0.01   0.01   0.00     0.00  -0.00  -0.00
  21   6    -0.00  -0.00   0.00    -0.00  -0.03  -0.00    -0.00  -0.00   0.00
  22   6     0.00  -0.00   0.00     0.00  -0.00   0.00    -0.00   0.00  -0.00
  23   9    -0.00   0.00   0.00     0.00  -0.00   0.00     0.00  -0.00   0.00
  24   6    -0.00  -0.00   0.00     0.00  -0.00  -0.00     0.00   0.00  -0.00
  25   6    -0.00   0.00  -0.00    -0.00   0.00   0.00     0.00   0.00   0.00
  26   6     0.00  -0.00   0.00     0.00  -0.00   0.00    -0.00   0.00   0.00
  27   6     0.00   0.00  -0.00     0.00  -0.00  -0.00     0.00   0.00   0.00
  28   1     0.00   0.00   0.00     0.00   0.00   0.00    -0.01  -0.02  -0.00
  29   1     0.00  -0.00  -0.00     0.00  -0.00  -0.00     0.01  -0.01  -0.00
  30   1    -0.00   0.00  -0.00    -0.00   0.00  -0.00     0.00   0.00   0.00
  31   1    -0.00  -0.00   0.00     0.00   0.00  -0.00    -0.01  -0.02   0.00
  32   1    -0.00   0.00  -0.00     0.00  -0.00   0.00     0.01  -0.01   0.00
  33   1     0.00  -0.00  -0.00    -0.00   0.00   0.00     0.00   0.00  -0.00
  34   1    -0.00  -0.00  -0.00    -0.00  -0.00   0.00    -0.24  -0.19   0.00
  35   1    -0.00   0.00  -0.00     0.00  -0.01   0.00    -0.09   0.70  -0.00
  36   1    -0.00   0.00  -0.00     0.00  -0.00  -0.00    -0.45   0.18  -0.00
  37   1     0.00   0.00  -0.00     0.00   0.00  -0.00     0.25   0.19  -0.00
  38   1     0.18   0.13   0.38     0.00  -0.00  -0.00     0.01   0.00   0.01
  39   1     0.22   0.15  -0.46    -0.01  -0.01   0.02    -0.00  -0.00   0.01
  40   1    -0.00  -0.00  -0.00     0.04   0.03  -0.00     0.03   0.02  -0.00
  41   1    -0.21  -0.15  -0.45    -0.01  -0.01  -0.02    -0.00  -0.00  -0.01
  42   1    -0.18  -0.13   0.38     0.00   0.00  -0.00     0.01   0.00  -0.01
  43   1     0.00   0.00  -0.00     0.21   0.12   0.00     0.00   0.00   0.00
  44   1     0.00  -0.00   0.00     0.03  -0.92  -0.00     0.00  -0.00   0.00
  45   1     0.00   0.00   0.00     0.00   0.11   0.00     0.00   0.00   0.00
  46   1     0.00   0.00   0.00    -0.00  -0.00   0.00    -0.00  -0.00  -0.00
  47   1     0.00  -0.00  -0.00     0.00  -0.00   0.00    -0.00  -0.00   0.00
                    127                    128                    129
                        a                      a                      a 
 Frequencies --  3085.3316              3089.2601              3094.4468
 Red. masses --     1.8349                 1.8834                 1.8319
 Frc consts  --     0.0000                 0.0000                 0.0000
 IR Inten    --    69.5847               111.6195                48.4852
 Raman Activ --     0.0000                 0.0000                 0.0000
 Depolar     --     0.0000                 0.0000                 0.0000
 Atom AN      X      Y      Z        X      Y      Z        X      Y      Z
   1   6    -0.00  -0.00   0.00    -0.00   0.00  -0.00    -0.00   0.00   0.00
   2   6    -0.00  -0.00  -0.00    -0.00  -0.00   0.00    -0.00  -0.00  -0.00
   3   6    -0.00  -0.00  -0.00     0.00  -0.00  -0.00    -0.00   0.00  -0.00
   4   6    -0.00   0.00  -0.00     0.00   0.00   0.00     0.00   0.00  -0.00
   5   6    -0.00  -0.00   0.00     0.00   0.00  -0.00     0.00   0.00  -0.00
   6   6    -0.00   0.01  -0.00     0.00  -0.00   0.00    -0.00   0.00  -0.00
   7   6    -0.01   0.00  -0.00     0.00  -0.00  -0.00    -0.00   0.00  -0.00
   8   6    -0.01  -0.00  -0.00     0.00   0.00  -0.00    -0.00  -0.00   0.00
   9   6     0.00   0.00   0.00    -0.00  -0.00   0.00    -0.00  -0.00   0.00
  10   7     0.00   0.00  -0.00     0.00   0.00  -0.00    -0.00   0.00   0.00
  11   6    -0.01  -0.01  -0.00     0.00   0.00  -0.00     0.00   0.00  -0.00
  12   6    -0.06  -0.04  -0.14     0.06   0.05   0.13     0.00   0.00   0.00
  13   6    -0.00  -0.00   0.01    -0.05  -0.04   0.11    -0.00  -0.00   0.00
  14   6    -0.13  -0.09   0.00     0.00   0.00  -0.00    -0.00  -0.00   0.00
  15   6    -0.00  -0.00  -0.00     0.05   0.04   0.11    -0.00  -0.00  -0.00
  16   6    -0.06  -0.04   0.14    -0.06  -0.05   0.13     0.00   0.00  -0.00
  17   6     0.00   0.00   0.00    -0.00   0.00   0.00    -0.00  -0.00  -0.00
  18   6    -0.01  -0.00  -0.00     0.00   0.00  -0.00    -0.02  -0.01  -0.00
  19   6     0.00  -0.01  -0.00    -0.00   0.00  -0.00    -0.00   0.02   0.00
  20   6     0.00  -0.00   0.00    -0.00   0.00   0.00     0.00   0.01   0.00
  21   6     0.00   0.00  -0.00    -0.00  -0.00  -0.00     0.00   0.26   0.00
  22   6    -0.00  -0.00   0.00     0.00   0.00  -0.00    -0.01   0.00  -0.00
  23   9    -0.00  -0.00   0.00     0.00  -0.00  -0.00     0.00  -0.00   0.00
  24   6    -0.00  -0.00   0.00     0.00   0.00   0.00     0.06   0.03   0.00
  25   6     0.00  -0.00   0.00     0.00  -0.00  -0.00    -0.00  -0.00   0.00
  26   6    -0.00   0.00  -0.00    -0.00  -0.00  -0.00    -0.00  -0.00   0.00
  27   6     0.00   0.00  -0.00     0.00   0.00  -0.00     0.00   0.00  -0.00
  28   1     0.00   0.00   0.00    -0.00  -0.00  -0.00     0.00   0.00   0.00
  29   1     0.00  -0.00  -0.00     0.00  -0.00   0.00     0.00  -0.00  -0.00
  30   1    -0.00   0.00  -0.00     0.00   0.00   0.00    -0.00   0.00  -0.00
  31   1     0.00   0.00  -0.00     0.00   0.00  -0.00     0.00   0.00  -0.00
  32   1     0.00  -0.00   0.00    -0.00   0.00  -0.00     0.00  -0.00   0.00
  33   1    -0.00   0.00   0.00    -0.00  -0.00   0.00    -0.00   0.00   0.00
  34   1     0.01   0.01  -0.00    -0.00  -0.00   0.00    -0.00  -0.00   0.00
  35   1     0.00  -0.03   0.00    -0.00   0.00   0.00     0.00  -0.01   0.00
  36   1     0.04  -0.02   0.00    -0.00   0.00   0.00     0.01  -0.00   0.00
  37   1     0.02   0.02   0.00    -0.00  -0.00   0.00     0.01   0.01  -0.00
  38   1     0.22   0.16   0.47    -0.22  -0.15  -0.45    -0.00  -0.00  -0.01
  39   1     0.01   0.01  -0.02     0.18   0.12  -0.38     0.00   0.00  -0.01
  40   1     0.46   0.33  -0.00    -0.00  -0.00   0.00     0.01   0.01  -0.00
  41   1     0.01   0.01   0.02    -0.18  -0.12  -0.38     0.00   0.00   0.01
  42   1     0.22   0.16  -0.47     0.21   0.15  -0.45    -0.00  -0.00   0.01
  43   1     0.02   0.01   0.00    -0.00  -0.00   0.00     0.06   0.04   0.00
  44   1    -0.00   0.03   0.00     0.00  -0.00   0.00     0.00  -0.09  -0.00
  45   1    -0.00  -0.00   0.00     0.00   0.00   0.00     0.00  -0.92  -0.00
  46   1     0.00   0.00   0.00    -0.00  -0.00  -0.00    -0.22  -0.12   0.00
  47   1     0.00  -0.00   0.00    -0.00   0.00  -0.00     0.00   0.02  -0.00
                    130                    131                    132
                        a                      a                      a 
 Frequencies --  3095.8553              3096.7225              3098.2484
 Red. masses --     1.8431                 1.9253                 1.8280
 Frc consts  --     0.0000                 0.0000                 0.0000
 IR Inten    --   102.8768                74.9249                43.7831
 Raman Activ --     0.0000                 0.0000                 0.0000
 Depolar     --     0.0000                 0.0000                 0.0000
 Atom AN      X      Y      Z        X      Y      Z        X      Y      Z
   1   6     0.00  -0.01  -0.00    -0.00   0.00   0.00    -0.00   0.00   0.00
   2   6     0.00  -0.00  -0.00    -0.00   0.00  -0.00    -0.00   0.00  -0.00
   3   6     0.00  -0.01   0.00    -0.00   0.00  -0.00    -0.00   0.00  -0.00
   4   6    -0.00   0.00  -0.00     0.00  -0.00   0.00    -0.00  -0.00  -0.00
   5   6    -0.09  -0.07   0.00     0.02   0.02  -0.00    -0.01  -0.01   0.00
   6   6     0.00   0.00  -0.00    -0.00   0.00  -0.00     0.00  -0.01   0.00
   7   6    -0.07   0.03  -0.00     0.01  -0.00   0.00     0.00  -0.00   0.00
   8   6    -0.19  -0.14   0.00     0.02   0.01  -0.00     0.00   0.00  -0.00
   9   6     0.00  -0.01   0.00    -0.00  -0.00  -0.00     0.00   0.00  -0.00
  10   7    -0.00  -0.00   0.00     0.00   0.00   0.00     0.00  -0.00  -0.00
  11   6     0.00  -0.00   0.00    -0.01  -0.00   0.00    -0.00  -0.00  -0.00
  12   6    -0.00  -0.00  -0.00    -0.04  -0.03  -0.08    -0.00  -0.00  -0.00
  13   6     0.01   0.01  -0.02     0.05   0.04  -0.12    -0.00  -0.00   0.00
  14   6     0.02   0.01  -0.00     0.14   0.10  -0.00    -0.00  -0.00   0.00
  15   6     0.01   0.01   0.02     0.05   0.04   0.12    -0.00  -0.00  -0.00
  16   6    -0.00  -0.00   0.00    -0.04  -0.03   0.08    -0.00  -0.00   0.00
  17   6    -0.00   0.00  -0.00    -0.00   0.00  -0.00    -0.00   0.00   0.00
  18   6     0.00   0.00   0.00    -0.01  -0.01  -0.00     0.01   0.01   0.00
  19   6    -0.00   0.00   0.00    -0.00  -0.00   0.00    -0.00  -0.00  -0.00
  20   6    -0.00  -0.00   0.00     0.00   0.00  -0.00    -0.00  -0.00  -0.00
  21   6    -0.00  -0.00  -0.00    -0.00   0.00   0.00    -0.00  -0.07  -0.00
  22   6     0.00  -0.00   0.00    -0.00   0.00  -0.00     0.01  -0.01   0.00
  23   9    -0.00   0.00  -0.00     0.00  -0.00   0.00    -0.00   0.00  -0.00
  24   6    -0.00  -0.00   0.00     0.00   0.00  -0.00     0.23   0.13  -0.00
  25   6    -0.00  -0.00   0.00     0.00  -0.00   0.00    -0.00  -0.02   0.00
  26   6     0.00  -0.00   0.00    -0.00   0.00   0.00    -0.00  -0.00   0.00
  27   6     0.00  -0.00  -0.00     0.00   0.00  -0.00     0.00   0.00  -0.00
  28   1     0.01   0.02   0.00    -0.00  -0.00  -0.00    -0.00  -0.00  -0.00
  29   1    -0.01   0.01   0.00     0.00  -0.00  -0.00     0.01  -0.00  -0.00
  30   1    -0.00  -0.00  -0.00    -0.00   0.00   0.00    -0.00   0.00   0.00
  31   1     0.01   0.02  -0.00    -0.00  -0.00   0.00    -0.00  -0.00   0.00
  32   1    -0.01   0.01  -0.00     0.00  -0.00   0.00     0.01  -0.00   0.00
  33   1    -0.00  -0.00   0.00    -0.00   0.00  -0.00    -0.00   0.00  -0.00
  34   1     0.32   0.25  -0.00    -0.08  -0.06   0.00     0.04   0.03  -0.00
  35   1     0.00  -0.02   0.00     0.00  -0.01   0.00    -0.00   0.02  -0.00
  36   1     0.23  -0.09   0.00    -0.02   0.01  -0.00    -0.01   0.00  -0.00
  37   1     0.66   0.50  -0.00    -0.06  -0.05   0.00    -0.01  -0.01   0.00
  38   1     0.00   0.00   0.01     0.13   0.09   0.27     0.00   0.00   0.00
  39   1    -0.02  -0.02   0.05    -0.18  -0.13   0.38     0.00   0.00  -0.00
  40   1    -0.07  -0.05   0.00    -0.46  -0.32   0.00     0.00   0.00  -0.00
  41   1    -0.02  -0.02  -0.05    -0.18  -0.13  -0.38     0.00   0.00   0.00
  42   1     0.00   0.00  -0.01     0.13   0.09  -0.27     0.00   0.00  -0.00
  43   1    -0.01  -0.00  -0.00     0.03   0.02   0.00    -0.05  -0.03  -0.00
  44   1    -0.00   0.00  -0.00    -0.00   0.00   0.00    -0.00   0.02   0.00
  45   1    -0.00   0.01   0.00     0.00  -0.01  -0.00     0.00   0.25   0.00
  46   1     0.00   0.00   0.00    -0.01  -0.01   0.00    -0.80  -0.45   0.00
  47   1     0.00   0.00  -0.00    -0.00   0.00   0.00     0.00   0.10  -0.00
                    133                    134                    135
                        a                      a                      a 
 Frequencies --  3100.8217              3105.9086              3147.7582
 Red. masses --     1.8743                 1.8486                 1.8351
 Frc consts  --     0.0000                 0.0000                 0.0000
 IR Inten    --    85.7624                57.2443                10.0736
 Raman Activ --     0.0000                 0.0000                 0.0000
 Depolar     --     0.0000                 0.0000                 0.0000
 Atom AN      X      Y      Z        X      Y      Z        X      Y      Z
   1   6    -0.00  -0.01   0.00     0.00   0.00  -0.00     0.00  -0.00  -0.00
   2   6    -0.00  -0.00  -0.00    -0.00   0.00   0.00     0.00  -0.00  -0.00
   3   6    -0.00  -0.01  -0.00     0.00   0.00   0.00     0.00  -0.00   0.00
   4   6    -0.01   0.00  -0.00     0.00  -0.00   0.00     0.00  -0.00  -0.00
   5   6    -0.18  -0.14   0.00     0.01   0.01  -0.00    -0.00  -0.00   0.00
   6   6     0.01  -0.10   0.00    -0.00   0.01  -0.00    -0.00   0.00   0.00
   7   6     0.07  -0.02   0.00    -0.01   0.00  -0.00    -0.00   0.00   0.00
   8   6     0.07   0.06  -0.00    -0.01  -0.01   0.00    -0.00  -0.00   0.00
   9   6     0.00   0.00  -0.00    -0.00  -0.00  -0.00     0.00   0.00   0.00
  10   7     0.00  -0.00   0.00    -0.00  -0.00   0.00    -0.00   0.00  -0.00
  11   6    -0.00  -0.00  -0.00     0.00   0.00   0.00    -0.00  -0.00  -0.00
  12   6    -0.00  -0.00  -0.01     0.00   0.00   0.01     0.00   0.00   0.00
  13   6     0.00   0.00  -0.01    -0.00  -0.00   0.00    -0.00  -0.00   0.00
  14   6     0.01   0.00  -0.00    -0.00  -0.00   0.00     0.00   0.00  -0.00
  15   6     0.00   0.00   0.01    -0.00  -0.00  -0.00    -0.00  -0.00  -0.00
  16   6    -0.00  -0.00   0.01     0.00   0.00  -0.01     0.00   0.00  -0.00
  17   6    -0.00   0.00   0.00    -0.01   0.00   0.00     0.00   0.00   0.00
  18   6    -0.02  -0.01  -0.00    -0.23  -0.14  -0.00    -0.00  -0.00  -0.00
  19   6     0.00  -0.00  -0.00     0.00  -0.08  -0.00    -0.00  -0.00  -0.00
  20   6     0.00   0.00   0.00     0.00   0.00   0.00     0.00  -0.00   0.00
  21   6     0.00   0.01   0.00    -0.00  -0.02  -0.00     0.00  -0.00  -0.00
  22   6    -0.00   0.00  -0.00     0.00  -0.00   0.00     0.00  -0.00   0.00
  23   9     0.00  -0.00   0.00    -0.00   0.00  -0.00    -0.00   0.00  -0.00
  24   6    -0.01  -0.01   0.00     0.01   0.01  -0.00     0.03   0.02   0.00
  25   6     0.00   0.00   0.00     0.00  -0.00   0.00     0.01   0.27  -0.00
  26   6    -0.00   0.00   0.00     0.00   0.00  -0.00    -0.01   0.01   0.00
  27   6     0.00   0.00  -0.00     0.00   0.00  -0.00    -0.00   0.00  -0.00
  28   1     0.02   0.04   0.01    -0.00  -0.01  -0.00     0.00   0.01   0.00
  29   1     0.00  -0.00  -0.00    -0.00   0.00   0.00    -0.01   0.00   0.00
  30   1    -0.01  -0.00  -0.01     0.00   0.00   0.00    -0.01   0.00  -0.00
  31   1     0.02   0.04  -0.01    -0.00  -0.01   0.00     0.00   0.01  -0.00
  32   1     0.00  -0.00   0.00    -0.00   0.00  -0.00    -0.01   0.00  -0.00
  33   1    -0.01  -0.00   0.01     0.00   0.00  -0.00    -0.01   0.00   0.00
  34   1     0.63   0.49  -0.00    -0.04  -0.03   0.00     0.00   0.00   0.00
  35   1    -0.04   0.33  -0.00     0.00  -0.03   0.00     0.00  -0.00   0.00
  36   1    -0.21   0.08  -0.00     0.02  -0.01   0.00     0.00  -0.00   0.00
  37   1    -0.26  -0.20   0.00     0.02   0.02  -0.00     0.00   0.00  -0.00
  38   1     0.01   0.01   0.02    -0.01  -0.01  -0.03    -0.00  -0.00  -0.00
  39   1    -0.01  -0.01   0.02     0.00   0.00  -0.01     0.00   0.00  -0.00
  40   1    -0.02  -0.01   0.00     0.01   0.01  -0.00    -0.00  -0.00  -0.00
  41   1    -0.01  -0.01  -0.02     0.00   0.00   0.01     0.00   0.00  -0.00
  42   1     0.01   0.01  -0.02    -0.01  -0.01   0.03    -0.00  -0.00   0.00
  43   1     0.06   0.04   0.00     0.79   0.48   0.00     0.00   0.00  -0.00
  44   1    -0.00   0.01   0.00    -0.01   0.24   0.00     0.00   0.01  -0.00
  45   1    -0.00  -0.02  -0.00    -0.00   0.06   0.00     0.00   0.00  -0.00
  46   1     0.04   0.02  -0.00    -0.03  -0.02   0.00    -0.09  -0.05   0.00
  47   1     0.00  -0.00   0.00    -0.00   0.01  -0.00    -0.03  -0.96   0.00
