      -----------------------------------------------------------      
     |                   =====================                   |     
     |                           x T B                           |     
     |                   =====================                   |     
     |                         S. Grimme                         |     
     |          Mulliken Center for Theoretical Chemistry        |     
     |                    University of Bonn                     |     
      -----------------------------------------------------------      

   * xtb version 6.7.1 (edcfbbe) compiled by 'albert@albert-system' on 2024-07-22

   xtb is free software: you can redistribute it and/or modify it under
   the terms of the GNU Lesser General Public License as published by
   the Free Software Foundation, either version 3 of the License, or
   (at your option) any later version.
   
   xtb is distributed in the hope that it will be useful,
   but WITHOUT ANY WARRANTY; without even the implied warranty of
   MERCHANTABILITY or FITNESS FOR A PARTICULAR PURPOSE.  See the
   GNU Lesser General Public License for more details.
   
   Cite this work as:
   * C. Bannwarth, E. Caldeweyher, S. Ehlert, A. Hansen, P. Pracht,
     J. Seibert, S. Spicher, S. Grimme, WIREs Comput. Mol. Sci., 2020, 11,
     e01493. DOI: 10.1002/wcms.1493
   
   for GFN2-xTB:
   * C. Bannwarth, S. Ehlert and S. Grimme., J. Chem. Theory Comput., 2019,
     15, 1652-1671. DOI: 10.1021/acs.jctc.8b01176
   for GFN1-xTB:
   * S. Grimme, C. Bannwarth, P. Shushkov, J. Chem. Theory Comput., 2017,
     13, 1989-2009. DOI: 10.1021/acs.jctc.7b00118
   for GFN0-xTB:
   * P. Pracht, E. Caldeweyher, S. Ehlert, S. Grimme, ChemRxiv, 2019, preprint.
     DOI: 10.26434/chemrxiv.8326202.v1
   for GFN-FF:
   * S. Spicher and S. Grimme, Angew. Chem. Int. Ed., 2020, 59, 15665-15673.
     DOI: 10.1002/anie.202004239
   
   for ALPB and GBSA implicit solvation:
   * S. Ehlert, M. Stahn, S. Spicher, S. Grimme, J. Chem. Theory Comput.,
     2021, 17, 4250-4261. DOI: 10.1021/acs.jctc.1c00471
   
   for ddCOSMO and CPCM-X implicit solvation:
   * M. Stahn, S. Ehlert, S. Grimme, J. Phys. Chem. A,
     2023, XX, XXXX-XXXX. DOI: 10.1021/acs.jpca.3c04382
   
   for DFT-D4:
   * E. Caldeweyher, C. Bannwarth and S. Grimme, J. Chem. Phys., 2017,
     147, 034112. DOI: 10.1063/1.4993215
   * E. Caldeweyher, S. Ehlert, A. Hansen, H. Neugebauer, S. Spicher,
     C. Bannwarth and S. Grimme, J. Chem. Phys., 2019, 150, 154122.
     DOI: 10.1063/1.5090222
   * E. Caldeweyher, J.-M. Mewes, S. Ehlert and S. Grimme, Phys. Chem. Chem. Phys.
     2020, 22, 8499-8512. DOI: 10.1039/D0CP00502A
   
   for sTDA-xTB:
   * S. Grimme and C. Bannwarth, J. Chem. Phys., 2016, 145, 054103.
     DOI: 10.1063/1.4959605
   
   in the mass-spec context:
   * V. Asgeirsson, C. Bauer and S. Grimme, Chem. Sci., 2017, 8, 4879.
     DOI: 10.1039/c7sc00601b
   * J. Koopman and S. Grimme, ACS Omega 2019, 4, 12, 15120-15133.
     DOI: 10.1021/acsomega.9b02011
   
   for metadynamics refer to:
   * S. Grimme, J. Chem. Theory Comput., 2019, 155, 2847-2862
     DOI: 10.1021/acs.jctc.9b00143
   
   for SPH calculations refer to:
   * S. Spicher and S. Grimme, J. Chem. Theory Comput., 2021, 17, 1701-1714
     DOI: 10.1021/acs.jctc.0c01306
   
   for ONIOM refer to:
   * C. Plett, A. Katbashev, S. Ehlert, S. Grimme, M. Bursch,
     Phys. Chem. Chem. Phys., 2023, 25, 17860-17868. DOI: 10.1039/D3CP02178E
   
   for DIPRO refer to:
   * J. Kohn, N. Gildemeister, S. Grimme, D. Fazzi, A. Hansen,
     J. Chem. Phys., 2023, just accepted.
   
   for PTB refer to:
   * S. Grimme, M. Mueller, A. Hansen, J. Chem. Phys., 2023, 158, 124111.
     DOI: 10.1063/5.0137838
   
   with help from (in alphabetical order)
   P. Atkinson, C. Bannwarth, F. Bohle, G. Brandenburg, E. Caldeweyher
   M. Checinski, S. Dohm, S. Ehlert, S. Ehrlich, I. Gerasimov, C. Hölzer
   A. Katbashev, J. Kohn, J. Koopman, C. Lavigne, S. Lehtola, F. März, M. Müller,
   F. Musil, H. Neugebauer, J. Pisarek, C. Plett, P. Pracht, F. Pultar,
   J. Seibert, P. Shushkov, S. Spicher, M. Stahn, M. Steiner, T. Strunk,
   J. Stückrath, T. Rose, and J. Unsleber
   
 * started run on 2025/07/18 at 12:42:53.086     
   ID    Z sym.   atoms
    1    6 C      1-9, 11-22, 24-27
    2    7 N      10
    3    9 F      23
    4    1 H      28-47

           -------------------------------------------------
          |                Calculation Setup                |
           -------------------------------------------------

          program call               : xtb data2507/toluene/BACF/BACF.xyz --gfn 2 --gbsa toluene --ohess vtight --parallel 40 --molden --ceasefiles --namespace data2507/toluene/BACF/BACF_toluene_S0_preOpt
          calculation namespace      : data2507/toluene/BACF/BACF_toluene_S0_preOpt
          coordinate file            : data2507/toluene/BACF/BACF.xyz
          omp threads                :                    40


           -------------------------------------------------
          |                 G F N 2 - x T B                 |
           -------------------------------------------------

        Reference                      10.1021/acs.jctc.8b01176
      * Hamiltonian:
        H0-scaling (s, p, d)           1.850000    2.230000    2.230000
        zeta-weighting                 0.500000
      * Dispersion:
        s8                             2.700000
        a1                             0.520000
        a2                             5.000000
        s9                             5.000000
      * Repulsion:
        kExp                           1.500000    1.000000
        rExp                           1.000000
      * Coulomb:
        alpha                          2.000000
        third order                    shell-resolved
        anisotropic                    true
        a3                             3.000000
        a5                             4.000000
        cn-shift                       1.200000
        cn-exp                         4.000000
        max-rad                        5.000000

      * Solvation model:               GBSA
        Solvent                        toluene
        Parameter file                 internal GFN2-xTB/GBSA
        Dielectric constant                7.0000E+00
        Reference state                gsolv [1 M gas/solution]
        Free energy shift                  4.5239E-03 Eh       2.8388E+00 kcal/mol
        Temperature                        2.9815E+02 K
        Density                            8.6700E-01 kg/L
        Solvent mass                       9.2140E+01 g/mol
        Interaction kernel             Still
        Born radius scaling (c1)           1.5686E+00
        Born radii integrator          GBOBC
        Born offset                        0.0000E+00 a0       0.0000E+00 AA
        H-bond correction              false
        Ion screening                  false
        Surface tension                    1.0000E-05 Eh       1.5569E+01 dyn/cm
        Grid points                               230 per atom

          ...................................................
          :                      SETUP                      :
          :.................................................:
          :  # basis functions                 128          :
          :  # atomic orbitals                 128          :
          :  # shells                           74          :
          :  # electrons                       132          :
          :  max. iterations                   250          :
          :  Hamiltonian                  GFN2-xTB          :
          :  restarted?                      false          :
          :  GBSA solvation                   true          :
          :  PC potential                    false          :
          :  electronic temp.          300.0000000     K    :
          :  accuracy                    1.0000000          :
          :  -> integral cutoff          0.2500000E+02      :
          :  -> integral neglect         0.1000000E-07      :
          :  -> SCF convergence          0.1000000E-05 Eh   :
          :  -> wf. convergence          0.1000000E-03 e    :
          :  Broyden damping             0.4000000          :
          :  net charge                          0          :
          :  unpaired electrons                  0          :
          ...................................................

 iter      E             dE          RMSdq      gap      omega  full diag
   1    -72.5187698 -0.725188E+02  0.437E+00    1.94       0.0  T
   2    -72.5575419 -0.387721E-01  0.266E+00    2.08       1.0  T
   3    -72.5235975  0.339443E-01  0.122E+00    2.16       1.0  T
   4    -72.5682870 -0.446895E-01  0.269E-01    2.09       1.0  T
   5    -72.5698212 -0.153415E-02  0.140E-01    2.11       1.0  T
   6    -72.5704750 -0.653807E-03  0.439E-02    2.10       1.0  T
   7    -72.5705034 -0.284563E-04  0.226E-02    2.10       1.0  T
   8    -72.5705091 -0.569278E-05  0.802E-03    2.10       1.8  T
   9    -72.5705102 -0.109213E-05  0.263E-03    2.10       5.5  T
  10    -72.5705103 -0.104728E-06  0.115E-03    2.10      12.6  T
  11    -72.5705103 -0.142577E-07  0.467E-04    2.10      31.2  T
  12    -72.5705103 -0.317539E-08  0.263E-04    2.10      55.4  T

   *** convergence criteria satisfied after 12 iterations ***

         #    Occupation            Energy/Eh            Energy/eV
      -------------------------------------------------------------
         1        2.0000           -0.8210548             -22.3420
       ...           ...                  ...                  ...
        60        2.0000           -0.4117982             -11.2056
        61        2.0000           -0.4070430             -11.0762
        62        2.0000           -0.4042701             -11.0008
        63        2.0000           -0.4038160             -10.9884
        64        2.0000           -0.3911963             -10.6450
        65        2.0000           -0.3821339             -10.3984
        66        2.0000           -0.3468407              -9.4380 (HOMO)
        67                         -0.2697572              -7.3405 (LUMO)
        68                         -0.2368555              -6.4452
        69                         -0.2345184              -6.3816
        70                         -0.2311953              -6.2911
        71                         -0.2232633              -6.0753
       ...                                ...                  ...
       128                          0.6656454              18.1131
      -------------------------------------------------------------
                  HL-Gap            0.0770835 Eh            2.0975 eV
             Fermi-level           -0.3082989 Eh           -8.3892 eV

 SCC (total)                   0 d,  0 h,  0 min,  0.101 sec
 SCC setup                      ...        0 min,  0.002 sec (  1.530%)
 Dispersion                     ...        0 min,  0.002 sec (  2.021%)
 classical contributions        ...        0 min,  0.001 sec (  0.632%)
 integral evaluation            ...        0 min,  0.004 sec (  4.381%)
 iterations                     ...        0 min,  0.085 sec ( 83.945%)
 molecular gradient             ...        0 min,  0.007 sec (  6.952%)
 printout                       ...        0 min,  0.000 sec (  0.456%)

         :::::::::::::::::::::::::::::::::::::::::::::::::::::
         ::                     SUMMARY                     ::
         :::::::::::::::::::::::::::::::::::::::::::::::::::::
         :: total energy             -71.422849075446 Eh    ::
         :: total w/o Gsasa/hb       -71.398325701392 Eh    ::
         :: gradient norm              0.088085556778 Eh/a0 ::
         :: HOMO-LUMO gap              2.097549324028 eV    ::
         ::.................................................::
         :: SCC energy               -72.569935203905 Eh    ::
         :: -> isotropic ES            0.020784189828 Eh    ::
         :: -> anisotropic ES          0.007440360431 Eh    ::
         :: -> anisotropic XC          0.035757102723 Eh    ::
         :: -> dispersion             -0.060838111268 Eh    ::
         :: -> Gsolv                  -0.027442470270 Eh    ::
         ::    -> Gelec               -0.002919096216 Eh    ::
         ::    -> Gsasa               -0.029047253925 Eh    ::
         ::    -> Ghb                  0.000000000000 Eh    ::
         ::    -> Gshift               0.004523879872 Eh    ::
         :: repulsion energy           1.147086128459 Eh    ::
         :: add. restraining           0.000000000000 Eh    ::
         :: total charge              -0.000000000000 e     ::
         :::::::::::::::::::::::::::::::::::::::::::::::::::::

      ----------------------------------------------------------- 
     |                   =====================                   |
     |                        A N C O P T                        |
     |                   =====================                   |
     |               Approximate Normal Coordinate               |
     |                Rational Function Optimizer                |
      ----------------------------------------------------------- 

Optimization log is written to '/dev/null'
      ----------------------------------------------------------- 
     |                   =====================                   |
     |                        A N C O P T                        |
     |                   =====================                   |
     |               Approximate Normal Coordinate               |
     |                Rational Function Optimizer                |
      ----------------------------------------------------------- 

          ...................................................
          :                      SETUP                      :
          :.................................................:
          :   optimization level         verytight          :
          :   max. optcycles                   940          :
          :   ANC micro-cycles                  20          :
          :   degrees of freedom               135          :
          :.................................................:
          :   RF solver                   davidson          :
          :   write xtbopt.log                true          :
          :   linear?                        false          :
          :   energy convergence         0.1000000E-06 Eh   :
          :   grad. convergence          0.2000000E-03 Eh/α :
          :   maxmium RF displ.          1.0000000          :
          :   Hlow (freq-cutoff)         0.1000000E-01      :
          :   Hmax (freq-cutoff)         5.0000000          :
          :   S6 in model hess.         20.0000000          :
          ...................................................

generating ANC from exact Hessian ...
Using Lindh-Hessian (1995)
 Shifting diagonal of input Hessian by   9.609590749770381E-003
 Lowest  eigenvalues of input Hessian
    0.000000    0.000000    0.000000    0.000000    0.000000    0.000000
    0.010000    0.010190    0.010571    0.010807    0.010966    0.011975
    0.012982    0.013174    0.014318    0.015503    0.016769    0.016893
 Highest eigenvalues
    1.930072    1.934842    1.973875    2.007511    2.034438    2.124125
 

........................................................................
.............................. CYCLE    1 ..............................
........................................................................

 iter      E             dE          RMSdq      gap      omega  full diag
   1    -72.5705103 -0.725705E+02  0.135E-04    2.10       0.0  T
   2    -72.5705103 -0.111697E-09  0.941E-05    2.10     155.1  T
   3    -72.5705103 -0.705569E-10  0.688E-05    2.10     212.0  T
     SCC iter.                  ...        0 min,  0.020 sec
     gradient                   ...        0 min,  0.005 sec
 * total energy  :   -71.4228491 Eh     change       -0.1285812E-08 Eh
   gradient norm :     0.0880844 Eh/α   predicted     0.0000000E+00 (-100.00%)
   displ. norm   :     0.4604203 α      lambda       -0.1797673E-01
   maximum displ.:     0.2387006 α      in ANC's #19, #28, #23, ...

........................................................................
.............................. CYCLE    2 ..............................
........................................................................

 iter      E             dE          RMSdq      gap      omega  full diag
   1    -72.6312956 -0.726313E+02  0.195E-01    2.14       0.0  T
   2    -72.6315229 -0.227260E-03  0.132E-01    2.19       1.0  T
   3    -72.6315479 -0.249478E-04  0.731E-02    2.17       1.0  T
   4    -72.6316326 -0.847423E-04  0.175E-02    2.18       1.0  T
   5    -72.6316438 -0.111869E-04  0.698E-03    2.18       2.1  T
   6    -72.6316454 -0.164751E-05  0.219E-03    2.18       6.7  T
   7    -72.6316455 -0.304901E-07  0.126E-03    2.18      11.6  T
   8    -72.6316455 -0.379560E-07  0.437E-04    2.18      33.4  T
   9    -72.6316455 -0.865583E-09  0.180E-04    2.18      81.2  T
     SCC iter.                  ...        0 min,  0.057 sec
     gradient                   ...        0 min,  0.006 sec
 * total energy  :   -71.4360194 Eh     change       -0.1317034E-01 Eh
   gradient norm :     0.0398000 Eh/α   predicted    -0.1090513E-01 ( -17.20%)
   displ. norm   :     0.4323073 α      lambda       -0.7330717E-02
   maximum displ.:     0.2812102 α      in ANC's #19, #28, #23, ...

........................................................................
.............................. CYCLE    3 ..............................
........................................................................

 iter      E             dE          RMSdq      gap      omega  full diag
   1    -72.6731238 -0.726731E+02  0.152E-01    2.20       0.0  T
   2    -72.6733484 -0.224595E-03  0.108E-01    2.25       1.0  T
   3    -72.6734316 -0.831851E-04  0.598E-02    2.24       1.0  T
   4    -72.6734563 -0.246815E-04  0.177E-02    2.25       1.0  T
   5    -72.6734654 -0.915207E-05  0.599E-03    2.24       2.4  T
   6    -72.6734667 -0.124785E-05  0.170E-03    2.24       8.6  T
   7    -72.6734667 -0.218647E-07  0.943E-04    2.24      15.5  T
   8    -72.6734667 -0.227982E-07  0.322E-04    2.24      45.3  T
     SCC iter.                  ...        0 min,  0.055 sec
     gradient                   ...        0 min,  0.006 sec
 * total energy  :   -71.4403821 Eh     change       -0.4362659E-02 Eh
   gradient norm :     0.0092689 Eh/α   predicted    -0.4350963E-02 (  -0.27%)
   displ. norm   :     0.1868975 α      lambda       -0.7845190E-03
   maximum displ.:     0.1409290 α      in ANC's #19, #12, #23, ...

........................................................................
.............................. CYCLE    4 ..............................
........................................................................

 iter      E             dE          RMSdq      gap      omega  full diag
   1    -72.6792900 -0.726793E+02  0.618E-02    2.24       0.0  T
   2    -72.6793053 -0.152957E-04  0.403E-02    2.25       1.0  T
   3    -72.6792995  0.577120E-05  0.221E-02    2.25       1.0  T
   4    -72.6793127 -0.131713E-04  0.440E-03    2.25       3.3  T
   5    -72.6793133 -0.673595E-06  0.157E-03    2.25       9.3  T
   6    -72.6793134 -0.863077E-07  0.546E-04    2.25      26.7  T
   7    -72.6793134 -0.178132E-08  0.284E-04    2.25      51.4  T
     SCC iter.                  ...        0 min,  0.038 sec
     gradient                   ...        0 min,  0.006 sec
 * total energy  :   -71.4408938 Eh     change       -0.5117626E-03 Eh
   gradient norm :     0.0061204 Eh/α   predicted    -0.4060863E-03 ( -20.65%)
   displ. norm   :     0.1190911 α      lambda       -0.2275243E-03
   maximum displ.:     0.0801577 α      in ANC's #12, #19, #13, ...

........................................................................
.............................. CYCLE    5 ..............................
........................................................................

 iter      E             dE          RMSdq      gap      omega  full diag
   1    -72.6794841 -0.726795E+02  0.381E-02    2.24       0.0  T
   2    -72.6794851 -0.974187E-06  0.229E-02    2.24       1.0  T
   3    -72.6794824  0.276253E-05  0.813E-03    2.24       1.8  T
   4    -72.6794855 -0.318037E-05  0.136E-03    2.24      10.7  T
   5    -72.6794856 -0.559285E-07  0.572E-04    2.24      25.5  T
   6    -72.6794856 -0.549360E-08  0.283E-04    2.24      51.6  T
     SCC iter.                  ...        0 min,  0.033 sec
     gradient                   ...        0 min,  0.005 sec
 * total energy  :   -71.4410383 Eh     change       -0.1444911E-03 Eh
   gradient norm :     0.0025861 Eh/α   predicted    -0.1154072E-03 ( -20.13%)
   displ. norm   :     0.0802781 α      lambda       -0.6800408E-04
   maximum displ.:     0.0627871 α      in ANC's #12, #13, #19, ...

........................................................................
.............................. CYCLE    6 ..............................
........................................................................

 iter      E             dE          RMSdq      gap      omega  full diag
   1    -72.6789908 -0.726790E+02  0.179E-02    2.24       0.0  T
   2    -72.6789910 -0.209849E-06  0.106E-02    2.24       1.4  T
   3    -72.6789906  0.409154E-06  0.361E-03    2.24       4.0  T
   4    -72.6789911 -0.500549E-06  0.478E-04    2.24      30.5  T
   5    -72.6789911 -0.418734E-08  0.274E-04    2.24      53.2  T
     SCC iter.                  ...        0 min,  0.024 sec
     gradient                   ...        0 min,  0.005 sec
 * total energy  :   -71.4410898 Eh     change       -0.5150137E-04 Eh
   gradient norm :     0.0018202 Eh/α   predicted    -0.3422208E-04 ( -33.55%)
   displ. norm   :     0.2224418 α      lambda       -0.9137916E-04
   maximum displ.:     0.1643125 α      in ANC's #12, #13, #15, ...

........................................................................
.............................. CYCLE    7 ..............................
........................................................................

 iter      E             dE          RMSdq      gap      omega  full diag
   1    -72.6773549 -0.726774E+02  0.389E-02    2.24       0.0  T
   2    -72.6773563 -0.132936E-05  0.232E-02    2.24       1.0  T
   3    -72.6773538  0.248883E-05  0.889E-03    2.24       1.6  T
   4    -72.6773567 -0.297023E-05  0.137E-03    2.24      10.6  T
   5    -72.6773568 -0.524201E-07  0.658E-04    2.24      22.2  T
   6    -72.6773568 -0.634569E-08  0.374E-04    2.24      39.0  T
     SCC iter.                  ...        0 min,  0.022 sec
     gradient                   ...        0 min,  0.005 sec
 * total energy  :   -71.4411693 Eh     change       -0.7948260E-04 Eh
   gradient norm :     0.0057062 Eh/α   predicted    -0.4669582E-04 ( -41.25%)
   displ. norm   :     0.1000958 α      lambda       -0.7315462E-04
   maximum displ.:     0.0627557 α      in ANC's #13, #12, #15, ...

........................................................................
.............................. CYCLE    8 ..............................
........................................................................

 iter      E             dE          RMSdq      gap      omega  full diag
   1    -72.6774783 -0.726775E+02  0.155E-02    2.24       0.0  T
   2    -72.6774783 -0.764689E-07  0.940E-03    2.24       1.6  T
   3    -72.6774780  0.345096E-06  0.292E-03    2.24       5.0  T
   4    -72.6774784 -0.393484E-06  0.447E-04    2.24      32.7  T
   5    -72.6774784 -0.418414E-08  0.229E-04    2.24      63.8  T
     SCC iter.                  ...        0 min,  0.018 sec
     gradient                   ...        0 min,  0.005 sec
 * total energy  :   -71.4412354 Eh     change       -0.6606706E-04 Eh
   gradient norm :     0.0053828 Eh/α   predicted    -0.3694852E-04 ( -44.07%)
   displ. norm   :     0.3788205 α      lambda       -0.2760049E-03
   maximum displ.:     0.2356273 α      in ANC's #13, #12, #8, ...

........................................................................
.............................. CYCLE    9 ..............................
........................................................................

 iter      E             dE          RMSdq      gap      omega  full diag
   1    -72.6760649 -0.726761E+02  0.593E-02    2.24       0.0  T
   2    -72.6760661 -0.123492E-05  0.357E-02    2.24       1.0  T
   3    -72.6760632  0.290728E-05  0.867E-03    2.24       1.7  T
   4    -72.6760666 -0.337168E-05  0.183E-03    2.24       8.0  T
   5    -72.6760667 -0.821247E-07  0.878E-04    2.24      16.6  T
   6    -72.6760667 -0.421463E-08  0.419E-04    2.24      34.8  T
     SCC iter.                  ...        0 min,  0.022 sec
     gradient                   ...        0 min,  0.005 sec
 * total energy  :   -71.4414020 Eh     change       -0.1666288E-03 Eh
   gradient norm :     0.0072394 Eh/α   predicted    -0.1578108E-03 (  -5.29%)
   displ. norm   :     0.0921581 α      lambda       -0.1642380E-03
   maximum displ.:     0.0492744 α      in ANC's #8, #13, #10, ...

........................................................................
.............................. CYCLE   10 ..............................
........................................................................

 iter      E             dE          RMSdq      gap      omega  full diag
   1    -72.6793232 -0.726793E+02  0.261E-02    2.25       0.0  T
   2    -72.6793253 -0.211109E-05  0.148E-02    2.24       1.0  T
   3    -72.6793252  0.106250E-06  0.466E-03    2.24       3.1  T
   4    -72.6793254 -0.201315E-06  0.147E-03    2.25      10.0  T
   5    -72.6793255 -0.767261E-07  0.608E-04    2.25      24.0  T
   6    -72.6793255  0.506120E-09  0.301E-04    2.25      48.5  T
     SCC iter.                  ...        0 min,  0.022 sec
     gradient                   ...        0 min,  0.005 sec
 * total energy  :   -71.4414714 Eh     change       -0.6943707E-04 Eh
   gradient norm :     0.0032150 Eh/α   predicted    -0.8281784E-04 (  19.27%)
   displ. norm   :     0.2126160 α      lambda       -0.8678195E-04
   maximum displ.:     0.1309784 α      in ANC's #12, #13, #8, ...

........................................................................
.............................. CYCLE   11 ..............................
........................................................................

 iter      E             dE          RMSdq      gap      omega  full diag
   1    -72.6775296 -0.726775E+02  0.350E-02    2.24       0.0  T
   2    -72.6775305 -0.921200E-06  0.209E-02    2.25       1.0  T
   3    -72.6775300  0.532330E-06  0.430E-03    2.25       3.4  T
   4    -72.6775306 -0.629054E-06  0.135E-03    2.25      10.8  T
   5    -72.6775307 -0.648378E-07  0.532E-04    2.25      27.4  T
   6    -72.6775307 -0.949811E-09  0.300E-04    2.25      48.6  T
     SCC iter.                  ...        0 min,  0.022 sec
     gradient                   ...        0 min,  0.005 sec
 * total energy  :   -71.4415264 Eh     change       -0.5493640E-04 Eh
   gradient norm :     0.0044906 Eh/α   predicted    -0.4538529E-04 ( -17.39%)
   displ. norm   :     0.1070641 α      lambda       -0.4775606E-04
   maximum displ.:     0.0695523 α      in ANC's #12, #13, #8, ...

........................................................................
.............................. CYCLE   12 ..............................
........................................................................

 iter      E             dE          RMSdq      gap      omega  full diag
   1    -72.6776434 -0.726776E+02  0.198E-02    2.24       0.0  T
   2    -72.6776435 -0.108056E-06  0.118E-02    2.24       1.2  T
   3    -72.6776433  0.156802E-06  0.219E-03    2.24       6.7  T
   4    -72.6776435 -0.194982E-06  0.457E-04    2.24      31.9  T
   5    -72.6776435 -0.252072E-08  0.249E-04    2.24      58.6  T
     SCC iter.                  ...        0 min,  0.018 sec
     gradient                   ...        0 min,  0.005 sec
 * total energy  :   -71.4415610 Eh     change       -0.3463052E-04 Eh
   gradient norm :     0.0037657 Eh/α   predicted    -0.2415778E-04 ( -30.24%)
   displ. norm   :     0.0867559 α      lambda       -0.5035061E-04
   maximum displ.:     0.0546230 α      in ANC's #12, #13, #8, ...

........................................................................
.............................. CYCLE   13 ..............................
........................................................................

 iter      E             dE          RMSdq      gap      omega  full diag
   1    -72.6789456 -0.726789E+02  0.181E-02    2.24       0.0  T
   2    -72.6789460 -0.339900E-06  0.106E-02    2.24       1.4  T
   3    -72.6789458  0.160181E-06  0.276E-03    2.24       5.3  T
   4    -72.6789460 -0.216416E-06  0.656E-04    2.24      22.2  T
   5    -72.6789460 -0.959932E-08  0.312E-04    2.24      46.7  T
     SCC iter.                  ...        0 min,  0.023 sec
     gradient                   ...        0 min,  0.005 sec
 * total energy  :   -71.4415911 Eh     change       -0.3007573E-04 Eh
   gradient norm :     0.0016934 Eh/α   predicted    -0.2536552E-04 ( -15.66%)
   displ. norm   :     0.3896958 α      lambda       -0.4851576E-04
   maximum displ.:     0.2314753 α      in ANC's #12, #13, #8, ...

........................................................................
.............................. CYCLE   14 ..............................
........................................................................

 iter      E             dE          RMSdq      gap      omega  full diag
   1    -72.6751423 -0.726751E+02  0.636E-02    2.24       0.0  T
   2    -72.6751454 -0.305916E-05  0.380E-02    2.24       1.0  T
   3    -72.6751416  0.376355E-05  0.113E-02    2.24       1.3  T
   4    -72.6751459 -0.429178E-05  0.269E-03    2.24       5.4  T
   5    -72.6751462 -0.231363E-06  0.981E-04    2.24      14.9  T
   6    -72.6751462 -0.463992E-08  0.562E-04    2.24      26.0  T
     SCC iter.                  ...        0 min,  0.022 sec
     gradient                   ...        0 min,  0.005 sec
 * total energy  :   -71.4415541 Eh     change        0.3696924E-04 Eh
   gradient norm :     0.0085436 Eh/α   predicted    -0.2589631E-04 (-170.05%)
   displ. norm   :     0.1354477 α      lambda       -0.1469447E-03
   maximum displ.:     0.0834342 α      in ANC's #12, #13, #8, ...

........................................................................
.............................. CYCLE   15 ..............................
........................................................................

 iter      E             dE          RMSdq      gap      omega  full diag
   1    -72.6781317 -0.726781E+02  0.273E-02    2.24       0.0  T
   2    -72.6781331 -0.144868E-05  0.159E-02    2.24       1.0  T
   3    -72.6781326  0.533519E-06  0.531E-03    2.24       2.7  T
   4    -72.6781332 -0.605218E-06  0.184E-03    2.24       7.9  T
   5    -72.6781333 -0.118502E-06  0.557E-04    2.24      26.2  T
   6    -72.6781333 -0.136875E-08  0.317E-04    2.24      46.1  T
     SCC iter.                  ...        0 min,  0.022 sec
     gradient                   ...        0 min,  0.005 sec
 * total energy  :   -71.4416323 Eh     change       -0.7822226E-04 Eh
   gradient norm :     0.0024310 Eh/α   predicted    -0.7482208E-04 (  -4.35%)
   displ. norm   :     0.0377905 α      lambda       -0.1624598E-04
   maximum displ.:     0.0221989 α      in ANC's #13, #12, #15, ...

........................................................................
.............................. CYCLE   16 ..............................
........................................................................

 iter      E             dE          RMSdq      gap      omega  full diag
   1    -72.6788438 -0.726788E+02  0.725E-03    2.25       0.0  T
   2    -72.6788439 -0.713980E-07  0.427E-03    2.25       3.4  T
   3    -72.6788438  0.185439E-07  0.105E-03    2.25      13.8  T
   4    -72.6788439 -0.261829E-07  0.357E-04    2.25      40.9  T
   5    -72.6788439 -0.339146E-08  0.164E-04    2.25      89.1  T
     SCC iter.                  ...        0 min,  0.018 sec
     gradient                   ...        0 min,  0.005 sec
 * total energy  :   -71.4416447 Eh     change       -0.1234891E-04 Eh
   gradient norm :     0.0010741 Eh/α   predicted    -0.8137266E-05 ( -34.11%)
   displ. norm   :     0.1576440 α      lambda       -0.1818981E-04
   maximum displ.:     0.0942616 α      in ANC's #13, #12, #15, ...

........................................................................
.............................. CYCLE   17 ..............................
........................................................................

 iter      E             dE          RMSdq      gap      omega  full diag
   1    -72.6791941 -0.726792E+02  0.250E-02    2.25       0.0  T
   2    -72.6791943 -0.130257E-06  0.150E-02    2.25       1.0  T
   3    -72.6791941  0.120526E-06  0.197E-03    2.25       7.4  T
   4    -72.6791943 -0.170798E-06  0.507E-04    2.25      28.8  T
   5    -72.6791943 -0.123593E-08  0.272E-04    2.25      53.6  T
     SCC iter.                  ...        0 min,  0.018 sec
     gradient                   ...        0 min,  0.005 sec
 * total energy  :   -71.4416643 Eh     change       -0.1960342E-04 Eh
   gradient norm :     0.0008122 Eh/α   predicted    -0.9195585E-05 ( -53.09%)
   displ. norm   :     0.2972600 α      lambda       -0.2009133E-04
   maximum displ.:     0.1776071 α      in ANC's #12, #13, #15, ...

........................................................................
.............................. CYCLE   18 ..............................
........................................................................

 iter      E             dE          RMSdq      gap      omega  full diag
   1    -72.6766076 -0.726766E+02  0.486E-02    2.25       0.0  T
   2    -72.6766090 -0.139690E-05  0.290E-02    2.25       1.0  T
   3    -72.6766085  0.458890E-06  0.467E-03    2.25       3.1  T
   4    -72.6766091 -0.571781E-06  0.167E-03    2.25       8.7  T
   5    -72.6766092 -0.941923E-07  0.660E-04    2.25      22.1  T
   6    -72.6766092 -0.205917E-08  0.337E-04    2.25      43.3  T
     SCC iter.                  ...        0 min,  0.022 sec
     gradient                   ...        0 min,  0.005 sec
 * total energy  :   -71.4416368 Eh     change        0.2749581E-04 Eh
   gradient norm :     0.0051920 Eh/α   predicted    -0.1045108E-04 (-138.01%)
   displ. norm   :     0.1365909 α      lambda       -0.6936088E-04
   maximum displ.:     0.0821565 α      in ANC's #13, #12, #15, ...

........................................................................
.............................. CYCLE   19 ..............................
........................................................................

 iter      E             dE          RMSdq      gap      omega  full diag
   1    -72.6784372 -0.726784E+02  0.239E-02    2.25       0.0  T
   2    -72.6784378 -0.635864E-06  0.141E-02    2.25       1.0  T
   3    -72.6784376  0.239522E-06  0.330E-03    2.25       4.4  T
   4    -72.6784379 -0.266349E-06  0.117E-03    2.25      12.5  T
   5    -72.6784379 -0.537471E-07  0.380E-04    2.25      38.4  T
   6    -72.6784379 -0.758391E-09  0.205E-04    2.25      71.2  T
     SCC iter.                  ...        0 min,  0.022 sec
     gradient                   ...        0 min,  0.005 sec
 * total energy  :   -71.4416726 Eh     change       -0.3579106E-04 Eh
   gradient norm :     0.0012237 Eh/α   predicted    -0.3533992E-04 (  -1.26%)
   displ. norm   :     0.0118352 α      lambda       -0.2467361E-05
   maximum displ.:     0.0073487 α      in ANC's #13, #12, #15, ...

........................................................................
.............................. CYCLE   20 ..............................
........................................................................

 iter      E             dE          RMSdq      gap      omega  full diag
   1    -72.6789402 -0.726789E+02  0.396E-03    2.25       0.0  T
   2    -72.6789402 -0.415634E-07  0.225E-03    2.25       6.5  T
   3    -72.6789402  0.300589E-08  0.671E-04    2.25      21.7  T
   4    -72.6789402 -0.479065E-08  0.227E-04    2.25      64.2  T
     SCC iter.                  ...        0 min,  0.015 sec
     gradient                   ...        0 min,  0.005 sec
 * total energy  :   -71.4416743 Eh     change       -0.1707223E-05 Eh
   gradient norm :     0.0003627 Eh/α   predicted    -0.1233925E-05 ( -27.72%)
   displ. norm   :     0.0131665 α      lambda       -0.8543448E-06
   maximum displ.:     0.0059625 α      in ANC's #14, #12, #8, ...
 * RMSD in coord.:     0.3306430 α      energy gain  -0.1882522E-01 Eh

generating ANC from exact Hessian ...
Using Lindh-Hessian (1995)
 Shifting diagonal of input Hessian by   9.424141802313232E-003
 Lowest  eigenvalues of input Hessian
    0.000000    0.000000    0.000000    0.000000    0.000000    0.000000
    0.010000    0.010188    0.010521    0.010975    0.011111    0.012313
    0.013256    0.013373    0.014827    0.016131    0.017500    0.017553
 Highest eigenvalues
    2.011537    2.020613    2.044231    2.111374    2.153411    2.181134
 

........................................................................
.............................. CYCLE   21 ..............................
........................................................................

 iter      E             dE          RMSdq      gap      omega  full diag
   1    -72.6790529 -0.726791E+02  0.391E-03    2.25       0.0  T
   2    -72.6790529 -0.495557E-07  0.218E-03    2.25       6.7  T
   3    -72.6790529 -0.245643E-08  0.657E-04    2.25      22.2  T
   4    -72.6790529 -0.120468E-08  0.157E-04    2.25      92.7  T
     SCC iter.                  ...        0 min,  0.015 sec
     gradient                   ...        0 min,  0.005 sec
 * total energy  :   -71.4416733 Eh     change        0.9483509E-06 Eh
   gradient norm :     0.0010274 Eh/α   predicted     0.0000000E+00 (-100.00%)
   displ. norm   :     0.0048274 α      lambda       -0.2216062E-05
   maximum displ.:     0.0021158 α      in ANC's #90, #3, #75, ...

........................................................................
.............................. CYCLE   22 ..............................
........................................................................

 iter      E             dE          RMSdq      gap      omega  full diag
   1    -72.6789382 -0.726789E+02  0.358E-03    2.25       0.0  T
   2    -72.6789383 -0.530617E-07  0.197E-03    2.25       7.4  T
   3    -72.6789383 -0.260451E-08  0.665E-04    2.25      21.9  T
   4    -72.6789383 -0.102430E-08  0.200E-04    2.25      72.8  T
     SCC iter.                  ...        0 min,  0.015 sec
     gradient                   ...        0 min,  0.005 sec
 * total energy  :   -71.4416746 Eh     change       -0.1226254E-05 Eh
   gradient norm :     0.0002426 Eh/α   predicted    -0.1121846E-05 (  -8.51%)
   displ. norm   :     0.0020499 α      lambda        0.3434736E-06
   maximum displ.:     0.0010965 α      in ANC's #3, #13, #36, ...

........................................................................
.............................. CYCLE   23 ..............................
........................................................................

 iter      E             dE          RMSdq      gap      omega  full diag
   1    -72.6789517 -0.726790E+02  0.128E-03    2.25       0.0  T
   2    -72.6789517 -0.261772E-08  0.749E-04    2.25      19.5  T
   3    -72.6789517  0.320028E-09  0.176E-04    2.25      82.9  T
     SCC iter.                  ...        0 min,  0.011 sec
     gradient                   ...        0 min,  0.005 sec
 * total energy  :   -71.4416747 Eh     change       -0.1412567E-06 Eh
   gradient norm :     0.0000502 Eh/α   predicted    -0.9243668E-07 ( -34.56%)
   displ. norm   :     0.0019658 α      lambda        0.4179707E-07
   maximum displ.:     0.0015377 α      in ANC's #3, #8, #13, ...

........................................................................
.............................. CYCLE   24 ..............................
........................................................................

 iter      E             dE          RMSdq      gap      omega  full diag
   1    -72.6789552 -0.726790E+02  0.608E-04    2.25       0.0  T
   2    -72.6789552 -0.849383E-10  0.359E-04    2.25      40.6  T
   3    -72.6789552  0.926292E-09  0.161E-04    2.25      90.4  T
     SCC iter.                  ...        0 min,  0.011 sec
     gradient                   ...        0 min,  0.005 sec
 * total energy  :   -71.4416747 Eh     change       -0.2720367E-07 Eh
   gradient norm :     0.0000330 Eh/α   predicted    -0.1125230E-07 ( -58.64%)
   displ. norm   :     0.0037846 α      lambda       -0.2801794E-07
   maximum displ.:     0.0025764 α      in ANC's #3, #13, #8, ...

   *** GEOMETRY OPTIMIZATION CONVERGED AFTER 24 ITERATIONS ***

------------------------------------------------------------------------
 total energy gain   :        -0.0188257 Eh      -11.8133 kcal/mol
 total RMSD          :         0.3309747 a0        0.1751 Å
 total power (kW/mol):        -2.0594491 (step)  -59.7289 (real)
------------------------------------------------------------------------

 ANCopt (total)                0 d,  0 h,  0 min,  0.828 sec
 optimizer setup                ...        0 min,  0.000 sec (  0.023%)
 model hessian                  ...        0 min,  0.047 sec (  5.647%)
 ANC generation                 ...        0 min,  0.007 sec (  0.811%)
 coordinate transformation      ...        0 min,  0.002 sec (  0.284%)
 single point calculation       ...        0 min,  0.760 sec ( 91.850%)
 optimization log               ...        0 min,  0.004 sec (  0.460%)
 hessian update                 ...        0 min,  0.003 sec (  0.387%)
 rational function              ...        0 min,  0.002 sec (  0.272%)

================
 final structure:
================
47
 xtb: 6.7.1 (edcfbbe)
C           -1.77601665458414       -2.05907080980909        1.29771159828143
C           -1.12421039976343       -1.51689597940992       -0.00001780950724
C           -1.77527046371973       -2.05867825481087       -1.29829857416416
C            0.30264662076265       -2.03983960842465        0.00013934073924
C            0.51383805476670       -3.41205923034137        0.00031102441491
C            1.78673103939272       -3.95328601966669        0.00035907428230
C            2.88286802919793       -3.10851630793808        0.00027268802005
C            2.69812193597165       -1.74111051217552        0.00014360648480
C            1.41196625120009       -1.19440332091796        0.00008419381980
N            1.23624646418581        0.17972752525939       -0.00005192873032
C            2.39667922998496        1.00962655123261       -0.00008430594247
C            2.96475749866527        1.40774997166758       -1.20401629690022
C            4.09558218297309        2.20593726665917       -1.20029538061501
C            4.66136250378136        2.60500170432353       -0.00020083615261
C            4.09567195679180        2.20599074529509        1.19995559736225
C            2.96484740987359        1.40780131705197        1.20379370379222
C           -0.01881743522753        0.75868594710218        0.00004856094595
C           -0.08128706311528        2.17355912735082        0.00012186207516
C           -1.27248633136869        2.82532816542373        0.00016759392405
C           -2.48131458771387        2.10312328745477        0.00012773778038
C           -3.70994713755019        2.79281243223980        0.00012135382172
C           -4.87541360249513        2.08842753879540        0.00006834057089
F           -6.06950485951287        2.74848841747086        0.00001413674372
C           -4.88313918105547        0.69136987892378        0.00010067429103
C           -3.69618950251704        0.01279800549609        0.00013706643421
C           -2.44188905382026        0.67837021736174        0.00011716588145
C           -1.18499919036164        0.00459569357179        0.00007044394895
H           -2.21084337636860       -3.04256554267600        1.13906836849932
H           -2.54423156129293       -1.39647638202340        1.68156475087964
H           -1.01297850570852       -2.15051081577372        2.06985565348610
H           -2.20746192061347       -3.04352176504385       -1.14094066033598
H           -2.54536535596149       -1.39754254469224       -1.68083732328643
H           -1.01234443027336       -2.14704784465695       -2.07090164231950
H           -0.33611835029309       -4.07638396480607        0.00044199339970
H            1.92041114357717       -5.02473469260242        0.00046396133137
H            3.88517694512480       -3.51157523939274        0.00029306190312
H            3.55702638042317       -1.08770926123596        0.00009872076741
H            2.51539480452839        1.09037750854015       -2.13369356022347
H            4.53543923005812        2.51595413976007       -2.13661488307549
H            5.54394164581019        3.22716593852305       -0.00024642575043
H            4.53559718370572        2.51604922634802        2.13623186408138
H            2.51555540887395        1.09047162835346        2.13352240497151
H            0.83801792347649        2.73760601810952        0.00015287260121
H           -1.30589434778251        3.90470466347335        0.00020063393445
H           -3.72011900893908        3.87213797576955        0.00013375563625
H           -5.82758533435079        0.16920843710051        0.00009908757067
H           -3.74445318873668       -1.06114123226066        0.00020673432671
 
 Bond Distances (Angstroems)
 ---------------------------
C1-C2=1.5501         C1-H28=1.0870        C1-H29=1.0847        C1-H30=1.0894        C2-C1=1.5501         C2-C3=1.5501         
C2-C4=1.5197         C2-C27=1.5227        C3-C2=1.5501         C3-H31=1.0870        C3-H32=1.0847        C3-H33=1.0894        
C4-C2=1.5197         C4-C5=1.3884         C4-C9=1.3948         C5-C4=1.3884         C5-C6=1.3832         C5-H34=1.0788        
C6-C5=1.3832         C6-C7=1.3839         C6-H35=1.0798        C7-C6=1.3839         C7-C8=1.3798         C7-H36=1.0803        
C8-C7=1.3798         C8-C9=1.3975         C8-H37=1.0792        C9-C4=1.3948         C9-C8=1.3975         C9-N10=1.3853        
N10-C9=1.3853        N10-C11=1.4267       N10-C17=1.3822       C11-N10=1.4267       C11-C12=1.3895       C11-C16=1.3895       
C12-C11=1.3895       C12-C13=1.3842       C12-H38=1.0803       C13-C12=1.3842       C13-C14=1.3855       C13-H39=1.0799       
C14-C13=1.3855       C14-C15=1.3855       C14-H40=1.0798       C15-C14=1.3855       C15-C16=1.3842       C15-H41=1.0799       
C16-C11=1.3895       C16-C15=1.3842       C16-H42=1.0803       C17-N10=1.3822       C17-C18=1.4163       C17-C27=1.3888       
C18-C17=1.4163       C18-C19=1.3579       C18-H43=1.0786       C19-C18=1.3579       C19-C20=1.4081       C19-H44=1.0799       
C20-C19=1.4081       C20-C21=1.4090       C20-C26=1.4253       C21-C20=1.4090       C21-C22=1.3618       C21-H45=1.0794       
C22-C21=1.3618       C22-F23=1.3644       C22-C24=1.3971       F23-C22=1.3644       C24-C22=1.3971       C24-C25=1.3672       
C24-H46=1.0792       C25-C24=1.3672       C25-C26=1.4199       C25-H47=1.0750       C26-C20=1.4253       C26-C25=1.4199       
C26-C27=1.4261       C27-C2=1.5227        C27-C17=1.3888       C27-C26=1.4261       H28-C1=1.0870        H29-C1=1.0847        
H30-C1=1.0894        H31-C3=1.0870        H32-C3=1.0847        H33-C3=1.0894        H34-C5=1.0788        H35-C6=1.0798        
H36-C7=1.0803        H37-C8=1.0792        H38-C12=1.0803       H39-C13=1.0799       H40-C14=1.0798       H41-C15=1.0799       
H42-C16=1.0803       H43-C18=1.0786       H44-C19=1.0799       H45-C21=1.0794       H46-C24=1.0792       H47-C25=1.0750       
 C  H  Rav=1.0816 sigma=0.0038  Rmin=1.0750  Rmax=1.0894    20
 C  C  Rav=1.4136 sigma=0.0539  Rmin=1.3579  Rmax=1.5501    27
 N  C  Rav=1.3980 sigma=0.0203  Rmin=1.3822  Rmax=1.4267     3
 F  C  Rav=1.3644 sigma=0.0000  Rmin=1.3644  Rmax=1.3644     1
 
 selected bond angles (degree)
 --------------------
H28-C1-C2=111.25               H29-C1-C2=112.36               H29-C1-H28=108.73              H30-C1-C2=109.16               
H30-C1-H28=107.92              H30-C1-H29=107.25              C3-C2-C1=113.72                C4-C2-C1=105.92                
C4-C2-C3=105.91                C27-C2-C1=109.43               C27-C2-C3=109.42               C27-C2-C4=112.42               
H31-C3-C2=111.25               H32-C3-C2=112.37               H32-C3-H31=108.73              H33-C3-C2=109.16               
H33-C3-H31=107.92              H33-C3-H32=107.25              C5-C4-C2=118.88                C9-C4-C2=122.56                
C9-C4-C5=118.56                C6-C5-C4=121.78                H34-C5-C4=119.26               H34-C5-C6=118.95               
C7-C6-C5=119.34                H35-C6-C5=120.15               H35-C6-C7=120.51               C8-C7-C6=119.93                
H36-C7-C6=120.47               H36-C7-C8=119.60               C9-C8-C7=120.72                H37-C8-C7=119.57               
H37-C8-C9=119.71               C8-C9-C4=119.66                N10-C9-C4=120.02               N10-C9-C8=120.32               
C11-N10-C9=118.28              C17-N10-C9=122.05              C17-N10-C11=119.67             
 
 selected dihedral angles (degree)
 ---------------------------------
C3-C2-C1-H28= 28.15           C3-C2-C1-H29=265.98           C3-C2-C1-H30=147.14           C4-C2-C1-H28=272.25           
C4-C2-C1-H29=150.08           C4-C2-C1-H30= 31.24           C27-C2-C1-H28=150.84          C27-C2-C1-H29= 28.67          
C27-C2-C1-H30=269.83          H31-C3-C2-C1=331.67           H31-C3-C2-C4= 87.58           H31-C3-C2-C27=208.98          
H32-C3-C2-C1= 93.85           H32-C3-C2-C4=209.75           H32-C3-C2-C27=331.15          H33-C3-C2-C1=212.69           
H33-C3-C2-C4=328.60           H33-C3-C2-C27= 90.00          C5-C4-C2-C1= 60.52            C5-C4-C2-C3=299.44            
C5-C4-C2-C27=179.99           C9-C4-C2-C1=240.52            C9-C4-C2-C3=119.43            C9-C4-C2-C27=  0.00           
C6-C5-C4-C2=180.00            C6-C5-C4-C9=  0.00            H34-C5-C4-C2=  0.00           H34-C5-C4-C9=179.99           
C7-C6-C5-C4=  0.00            C7-C6-C5-H34=180.00           H35-C6-C5-C4=180.00           H35-C6-C5-H34=  0.00          
C8-C7-C6-C5=  0.00            C8-C7-C6-H35=180.00           H36-C7-C6-C5=180.00           H36-C7-C6-H35=  0.00          
C9-C8-C7-C6=  0.00            C9-C8-C7-H36=180.00           H37-C8-C7-C6=180.00           H37-C8-C7-H36=  0.00          
C8-C9-C4-C2=180.00            C8-C9-C4-C5=  0.00            N10-C9-C4-C2=  0.00           N10-C9-C4-C5=180.00           
C4-C9-C8-C7=  0.00            C4-C9-C8-H37=180.00           N10-C9-C8-C7=180.00           N10-C9-C8-H37=  0.00          
C11-N10-C9-C4=180.00          C11-N10-C9-C8=  0.00          C17-N10-C9-C4=  0.00          C17-N10-C9-C8=180.01          
           -------------------------------------------------
          |                Final Singlepoint                |
           -------------------------------------------------

          ...................................................
          :                      SETUP                      :
          :.................................................:
          :  # basis functions                 128          :
          :  # atomic orbitals                 128          :
          :  # shells                           74          :
          :  # electrons                       132          :
          :  max. iterations                   250          :
          :  Hamiltonian                  GFN2-xTB          :
          :  restarted?                      false          :
          :  GBSA solvation                   true          :
          :  PC potential                    false          :
          :  electronic temp.          300.0000000     K    :
          :  accuracy                    1.0000000          :
          :  -> integral cutoff          0.2500000E+02      :
          :  -> integral neglect         0.1000000E-07      :
          :  -> SCF convergence          0.1000000E-05 Eh   :
          :  -> wf. convergence          0.1000000E-03 e    :
          :  Broyden damping             0.4000000          :
          :  net charge                          0          :
          :  unpaired electrons                  0          :
          ...................................................

 iter      E             dE          RMSdq      gap      omega  full diag
   1    -72.6789552 -0.726790E+02  0.105E-05    2.25       0.0  T
   2    -72.6789552 -0.724754E-12  0.670E-06    2.25    2176.9  T
   3    -72.6789552 -0.270006E-12  0.418E-06    2.25    3488.2  T

   *** convergence criteria satisfied after 3 iterations ***

         #    Occupation            Energy/Eh            Energy/eV
      -------------------------------------------------------------
         1        2.0000           -0.8130303             -22.1237
       ...           ...                  ...                  ...
        60        2.0000           -0.4131551             -11.2425
        61        2.0000           -0.4077216             -11.0947
        62        2.0000           -0.4033484             -10.9757
        63        2.0000           -0.4030694             -10.9681
        64        2.0000           -0.3941188             -10.7245
        65        2.0000           -0.3864402             -10.5156
        66        2.0000           -0.3452133              -9.3937 (HOMO)
        67                         -0.2625257              -7.1437 (LUMO)
        68                         -0.2355091              -6.4085
        69                         -0.2341107              -6.3705
        70                         -0.2318031              -6.3077
        71                         -0.2174638              -5.9175
       ...                                ...                  ...
       128                          0.6915694              18.8186
      -------------------------------------------------------------
                  HL-Gap            0.0826876 Eh            2.2500 eV
             Fermi-level           -0.3038695 Eh           -8.2687 eV

 SCC (total)                   0 d,  0 h,  0 min,  0.019 sec
 SCC setup                      ...        0 min,  0.000 sec (  1.917%)
 Dispersion                     ...        0 min,  0.000 sec (  1.969%)
 classical contributions        ...        0 min,  0.000 sec (  0.159%)
 integral evaluation            ...        0 min,  0.002 sec (  9.104%)
 iterations                     ...        0 min,  0.011 sec ( 58.996%)
 molecular gradient             ...        0 min,  0.005 sec ( 26.235%)
 printout                       ...        0 min,  0.000 sec (  1.177%)

         :::::::::::::::::::::::::::::::::::::::::::::::::::::
         ::                     SUMMARY                     ::
         :::::::::::::::::::::::::::::::::::::::::::::::::::::
         :: total energy             -71.441674742278 Eh    ::
         :: total w/o Gsasa/hb       -71.417840922396 Eh    ::
         :: gradient norm              0.000035036995 Eh/a0 ::
         :: HOMO-LUMO gap              2.250043869272 eV    ::
         ::.................................................::
         :: SCC energy               -72.678323884199 Eh    ::
         :: -> isotropic ES            0.022507830882 Eh    ::
         :: -> anisotropic ES          0.005362389469 Eh    ::
         :: -> anisotropic XC          0.034280919117 Eh    ::
         :: -> dispersion             -0.062507994344 Eh    ::
         :: -> Gsolv                  -0.027385958187 Eh    ::
         ::    -> Gelec               -0.003552138305 Eh    ::
         ::    -> Gsasa               -0.028357699753 Eh    ::
         ::    -> Ghb                  0.000000000000 Eh    ::
         ::    -> Gshift               0.004523879872 Eh    ::
         :: repulsion energy           1.236649141922 Eh    ::
         :: add. restraining           0.000000000000 Eh    ::
         :: total charge              -0.000000000000 e     ::
         :::::::::::::::::::::::::::::::::::::::::::::::::::::

           ------------------------------------------------- 
          |                Numerical Hessian                |
           ------------------------------------------------- 
step length          :   0.00500
SCC accuracy         :   0.30000
Hessian scale factor :   1.00000
frozen atoms in %    :   0.00000    0
RMS gradient         :   0.00004
estimated CPU  time      2.45 min
estimated wall time      0.06 min

writing file <hessian>.

 projected vibrational frequencies (cm⁻¹)
eigval :       -0.00    -0.00    -0.00    -0.00     0.00     0.00
eigval :      -78.86    22.52    36.31    43.24    64.52    68.54
eigval :      100.77   107.25   151.85   159.76   169.56   200.93
eigval :      220.92   234.76   243.00   266.17   286.26   313.90
eigval :      335.15   347.00   363.71   378.30   389.16   393.92
eigval :      403.83   426.52   453.67   469.83   481.52   503.06
eigval :      518.31   520.96   537.54   566.67   580.38   589.16
eigval :      591.54   612.64   631.75   637.31   674.78   694.89
eigval :      695.34   720.79   734.53   762.15   777.23   797.58
eigval :      810.99   831.77   837.95   863.22   871.23   878.00
eigval :      902.30   910.52   911.65   914.44   920.64   922.47
eigval :      931.93   935.14   936.27   961.72   967.19   972.05
eigval :      994.63  1031.31  1064.53  1077.57  1083.36  1108.85
eigval :     1112.59  1132.70  1143.24  1146.96  1158.92  1177.09
eigval :     1177.80  1184.02  1185.25  1201.40  1228.39  1231.22
eigval :     1241.08  1255.66  1269.26  1273.04  1305.93  1306.99
eigval :     1314.37  1331.44  1334.57  1377.76  1393.64  1404.39
eigval :     1406.77  1428.11  1430.60  1437.43  1462.39  1471.25
eigval :     1487.11  1489.57  1496.13  1502.67  1509.44  1518.23
eigval :     1553.01  1581.13  1586.12  1591.69  1592.76  1600.39
eigval :     1613.68  3014.24  3015.98  3031.50  3035.12  3068.24
eigval :     3069.17  3072.15  3076.64  3078.33  3079.31  3082.04
eigval :     3085.33  3089.26  3094.45  3095.86  3096.72  3098.25
eigval :     3100.82  3105.91  3147.76
           -------------------------------------------------
          |                Property Printout                |
           -------------------------------------------------

    * Orbital Energies and Occupations

         #    Occupation            Energy/Eh            Energy/eV
      -------------------------------------------------------------
         1        2.0000           -0.8130302             -22.1237
       ...           ...                  ...                  ...
        54        2.0000           -0.4404258             -11.9846
        55        2.0000           -0.4389084             -11.9433
        56        2.0000           -0.4304218             -11.7124
        57        2.0000           -0.4260697             -11.5939
        58        2.0000           -0.4196655             -11.4197
        59        2.0000           -0.4157465             -11.3130
        60        2.0000           -0.4131551             -11.2425
        61        2.0000           -0.4077216             -11.0947
        62        2.0000           -0.4033484             -10.9757
        63        2.0000           -0.4030694             -10.9681
        64        2.0000           -0.3941188             -10.7245
        65        2.0000           -0.3864402             -10.5156
        66        2.0000           -0.3452133              -9.3937 (HOMO)
        67                         -0.2625257              -7.1437 (LUMO)
        68                         -0.2355091              -6.4085
        69                         -0.2341107              -6.3705
        70                         -0.2318031              -6.3077
        71                         -0.2174639              -5.9175
        72                         -0.2041559              -5.5554
        73                         -0.1897018              -5.1620
        74                         -0.1419568              -3.8628
        75                         -0.1053423              -2.8665
        76                         -0.0827799              -2.2526
        77                         -0.0616895              -1.6787
       ...                                ...                  ...
       128                          0.6915694              18.8186
      -------------------------------------------------------------
                  HL-Gap            0.0826876 Eh            2.2500 eV
             Fermi-level           -0.3038695 Eh           -8.2687 eV

     #   Z          covCN         q      C6AA      α(0)
     1   6 C        3.760    -0.108    22.605     6.778
     2   6 C        3.905     0.021    20.160     6.382
     3   6 C        3.760    -0.108    22.605     6.778
     4   6 C        2.987    -0.013    28.341     8.733
     5   6 C        2.928    -0.039    28.963     8.826
     6   6 C        2.917    -0.046    29.143     8.853
     7   6 C        2.919    -0.035    28.883     8.813
     8   6 C        2.923    -0.059    29.470     8.902
     9   6 C        2.930     0.057    26.717     8.477
    10   7 N        2.756    -0.070    22.587     7.059
    11   6 C        2.928     0.068    26.480     8.439
    12   6 C        2.921    -0.038    28.936     8.821
    13   6 C        2.920    -0.027    28.687     8.783
    14   6 C        2.919    -0.030    28.743     8.792
    15   6 C        2.920    -0.027    28.687     8.783
    16   6 C        2.921    -0.038    28.936     8.821
    17   6 C        2.921     0.061    26.640     8.464
    18   6 C        2.920    -0.052    29.293     8.875
    19   6 C        2.918    -0.039    28.960     8.825
    20   6 C        2.994     0.003    27.949     8.672
    21   6 C        2.919    -0.058    29.431     8.896
    22   6 C        2.781     0.156    24.611     8.126
    23   9 F        0.786    -0.268    11.964     4.086
    24   6 C        2.912    -0.053    29.325     8.880
    25   6 C        2.922    -0.043    29.075     8.843
    26   6 C        2.978     0.004    27.929     8.669
    27   6 C        2.969    -0.024    28.590     8.771
    28   1 H        0.925     0.041     2.436     2.441
    29   1 H        0.925     0.045     2.382     2.414
    30   1 H        0.925     0.033     2.538     2.492
    31   1 H        0.925     0.041     2.436     2.441
    32   1 H        0.925     0.045     2.382     2.414
    33   1 H        0.925     0.033     2.539     2.492
    34   1 H        0.926     0.036     2.496     2.471
    35   1 H        0.926     0.025     2.651     2.546
    36   1 H        0.926     0.026     2.644     2.543
    37   1 H        0.926     0.025     2.652     2.547
    38   1 H        0.926     0.042     2.423     2.434
    39   1 H        0.926     0.043     2.412     2.429
    40   1 H        0.926     0.042     2.419     2.432
    41   1 H        0.926     0.043     2.412     2.429
    42   1 H        0.926     0.042     2.423     2.434
    43   1 H        0.926     0.037     2.493     2.469
    44   1 H        0.926     0.038     2.479     2.462
    45   1 H        0.926     0.049     2.338     2.391
    46   1 H        0.926     0.049     2.336     2.390
    47   1 H        0.926     0.069     2.102     2.267

 Mol. C6AA /au·bohr⁶  :      29030.297302
 Mol. C8AA /au·bohr⁸  :     721661.015975
 Mol. α(0) /au        :        272.081627


MOs/occ written to file <molden.input>


molecular dipole:
                 x           y           z       tot (Debye)
 q only:        1.832      -0.432       0.000
   full:        1.817      -0.348      -0.000       4.701
molecular quadrupole (traceless):
                xx          xy          yy          xz          yz          zz
 q only:      -14.083      24.986       5.182      -0.001      -0.000       8.901
  q+dip:      -10.742      27.722       7.721      -0.000      -0.000       3.021
   full:      -13.553      25.412       5.872      -0.000       0.000       7.680

           -------------------------------------------------
          |                Geometry Summary                 |
           -------------------------------------------------

      molecular mass/u    :      353.4323189
   center of mass at/Å    :       -0.2182142       0.2675324       0.0000283
  moments of inertia/u·Å² :        0.1642585E+04   0.3507141E+04   0.4859280E+04
rotational constants/cm⁻¹ :        0.1026287E-01   0.4806660E-02   0.3469163E-02

 * 46 selected distances

     #   Z          #   Z                                           value/Å
     4   6 C        5   6 C                                       1.3883764
     5   6 C        6   6 C                                       1.3831787
     6   6 C        7   6 C                                       1.3838904
     7   6 C        8   6 C                                       1.3798297
     4   6 C        9   6 C                                       1.3947591
     8   6 C        9   6 C                                       1.3975284
     9   6 C       10   7 N                                       1.3853207
    10   7 N       11   6 C                                       1.4266524 (max)
    11   6 C       12   6 C                                       1.3894847
    12   6 C       13   6 C                                       1.3841538
    13   6 C       14   6 C                                       1.3854916
    14   6 C       15   6 C                                       1.3854932
    11   6 C       16   6 C                                       1.3894894
    15   6 C       16   6 C                                       1.3841552
    10   7 N       17   6 C                                       1.3821645
    17   6 C       18   6 C                                       1.4162517
    18   6 C       19   6 C                                       1.3578508
    19   6 C       20   6 C                                       1.4081356
    20   6 C       21   6 C                                       1.4089746
    21   6 C       22   6 C                                       1.3617894
    22   6 C       24   6 C                                       1.3970792
    24   6 C       25   6 C                                       1.3672270
    20   6 C       26   6 C                                       1.4252986
    25   6 C       26   6 C                                       1.4199494
    17   6 C       27   6 C                                       1.3887521
    26   6 C       27   6 C                                       1.4260942
     1   6 C       28   1 H                                       1.0869701
     1   6 C       29   1 H                                       1.0846792
     1   6 C       30   1 H                                       1.0894013
     3   6 C       31   1 H                                       1.0869535
     3   6 C       32   1 H                                       1.0846579
     3   6 C       33   1 H                                       1.0893948
     5   6 C       34   1 H                                       1.0787741
     6   6 C       35   1 H                                       1.0797559
     7   6 C       36   1 H                                       1.0803147
     8   6 C       37   1 H                                       1.0791896
    12   6 C       38   1 H                                       1.0802556
    13   6 C       39   1 H                                       1.0799440
    14   6 C       40   1 H                                       1.0798308
    15   6 C       41   1 H                                       1.0799463
    16   6 C       42   1 H                                       1.0802579
    18   6 C       43   1 H                                       1.0785503
    19   6 C       44   1 H                                       1.0798935
    21   6 C       45   1 H                                       1.0793736
    24   6 C       46   1 H                                       1.0791809
    25   6 C       47   1 H                                       1.0750233 (min)

 * 3 distinct bonds (by element types)

   Z      Z             #   av. dist./Å        max./Å        min./Å
   1 H    6 C          20     1.0816174     1.0894013     1.0750233
   6 C    6 C          23     1.3923145     1.4260942     1.3578508
   6 C    7 N           3     1.3980458     1.4266524     1.3821645

           -------------------------------------------------
          |               Frequency Printout                |
           -------------------------------------------------
 projected vibrational frequencies (cm⁻¹)
eigval :       -0.00    -0.00    -0.00    -0.00     0.00     0.00
eigval :      -78.86    22.52    36.31    43.24    64.52    68.54
eigval :      100.77   107.25   151.85   159.76   169.56   200.93
eigval :      220.92   234.76   243.00   266.17   286.26   313.90
eigval :      335.15   347.00   363.71   378.30   389.16   393.92
eigval :      403.83   426.52   453.67   469.83   481.52   503.06
eigval :      518.31   520.96   537.54   566.67   580.38   589.16
eigval :      591.54   612.64   631.75   637.31   674.78   694.89
eigval :      695.34   720.79   734.53   762.15   777.23   797.58
eigval :      810.99   831.77   837.95   863.22   871.23   878.00
eigval :      902.30   910.52   911.65   914.44   920.64   922.47
eigval :      931.93   935.14   936.27   961.72   967.19   972.05
eigval :      994.63  1031.31  1064.53  1077.57  1083.36  1108.85
eigval :     1112.59  1132.70  1143.24  1146.96  1158.92  1177.09
eigval :     1177.80  1184.02  1185.25  1201.40  1228.39  1231.22
eigval :     1241.08  1255.66  1269.26  1273.04  1305.93  1306.99
eigval :     1314.37  1331.44  1334.57  1377.76  1393.64  1404.39
eigval :     1406.77  1428.11  1430.60  1437.43  1462.39  1471.25
eigval :     1487.11  1489.57  1496.13  1502.67  1509.44  1518.23
eigval :     1553.01  1581.13  1586.12  1591.69  1592.76  1600.39
eigval :     1613.68  3014.24  3015.98  3031.50  3035.12  3068.24
eigval :     3069.17  3072.15  3076.64  3078.33  3079.31  3082.04
eigval :     3085.33  3089.26  3094.45  3095.86  3096.72  3098.25
eigval :     3100.82  3105.91  3147.76
 reduced masses (amu)
   1: 11.48   2: 11.84   3: 12.56   4: 11.70   5: 12.18   6: 11.56   7:  3.78   8: 10.24
   9: 11.26  10: 11.51  11: 11.31  12: 10.86  13:  6.30  14: 11.37  15:  8.24  16:  7.67
  17:  9.70  18: 11.18  19: 11.43  20: 10.26  21: 10.71  22: 10.77  23: 13.13  24:  9.83
  25:  9.52  26: 10.21  27: 10.91  28:  8.88  29:  9.99  30: 11.62  31: 11.36  32:  9.70
  33: 11.05  34: 11.63  35: 10.39  36: 11.52  37: 11.32  38: 10.22  39: 10.06  40: 10.94
  41: 10.92  42: 10.40  43: 11.28  44: 11.52  45: 11.16  46: 11.15  47:  9.28  48: 11.03
  49: 11.50  50: 11.63  51: 11.39  52:  6.21  53:  3.55  54:  9.31  55:  4.27  56: 10.98
  57:  4.10  58:  3.51  59:  3.66  60:  3.32  61:  5.01  62:  3.27  63:  3.87  64: 10.28
  65:  3.01  66:  8.72  67:  4.15  68:  3.12  69:  3.12  70: 11.42  71:  9.15  72:  4.36
  73: 10.41  74:  3.03  75:  9.35  76:  6.80  77:  7.64  78:  6.22  79:  3.91  80:  5.09
  81:  5.22  82:  9.92  83:  5.64  84:  4.15  85:  1.37  86:  2.33  87:  1.38  88:  5.71
  89:  7.61  90:  8.69  91:  6.09  92:  5.68  93:  6.23  94:  3.71  95: 11.73  96: 10.56
  97: 10.34  98: 11.64  99:  9.37 100: 10.53 101: 10.30 102: 11.43 103:  2.79 104:  3.11
 105:  8.88 106:  9.62 107:  9.87 108:  9.60 109:  1.56 110:  9.88 111:  3.45 112:  9.07
 113:  1.58 114:  1.79 115: 11.85 116: 11.52 117: 11.66 118: 11.50 119: 11.51 120: 11.59
 121: 11.63 122:  1.86 123:  1.82 124:  1.68 125:  1.69 126:  1.62 127:  1.63 128:  1.76
 129:  1.75 130:  1.79 131:  1.81 132:  1.83 133:  1.83 134:  1.88 135:  1.83 136:  1.84
 137:  1.93 138:  1.83 139:  1.87 140:  1.85 141:  1.84
 IR intensities (km·mol⁻¹)
   1:  0.13   2:  0.07   3:  0.04   4:  0.01   5:  0.14   6:  0.06   7:  0.05   8:  0.18
   9:  0.51  10:  0.35  11:  0.15  12:  0.17  13:  0.18  14:  0.79  15:  0.28  16:  0.12
  17:  0.00  18:  0.31  19:  0.02  20:  0.68  21:  0.26  22:  1.47  23:  2.01  24:  0.92
  25:  0.01  26:  0.00  27:  1.73  28:  0.01  29:  2.59  30:  5.34  31:  6.11  32:  0.03
  33:  3.47  34:  6.65  35:  0.46  36: 22.31  37: 12.18  38:  0.41  39:  0.80  40:  1.88
  41:  1.54  42:  4.87  43:  0.35  44:  4.17  45:  1.51  46:  0.81  47: 14.05  48:  3.04
  49:  3.48  50:  0.14  51: 21.08  52: 13.58  53: 21.98  54:  2.46  55:  1.61  56:  5.69
  57: 48.00  58:  0.03  59:  0.82  60:  0.01  61:  4.52  62:  0.25  63:  0.65  64: 13.86
  65:  0.09  66:  1.76  67:  0.01  68:  2.39  69:  0.01  70:146.87  71:  6.49  72:  0.05
  73:  6.26  74:  0.36  75: 15.26  76:  0.86  77:  7.32  78:  2.19  79:  1.27  80:130.08
  81: 15.08  82: 10.98  83: 24.46  84: 15.34  85:  0.00  86:  1.44  87:  1.83  88:  5.64
  89:  8.63  90: 54.10  91: 20.88  92: 48.66  93: 26.14  94:  0.11  95:  0.29  96:145.75
  97: 58.64  98:113.09  99:243.43 100:140.79 101:652.10 102: 93.17 103:  1.64 104: 14.60
 105:  1.57 106:165.56 107: 90.37 108:153.71 109:  0.35 110:210.06 111: 19.14 112: 22.74
 113:  2.35 114:  4.21 115: 77.81 116:  1.86 117: 59.39 118: 54.27 119: 72.97 120: 26.88
 121:193.62 122: 40.43 123: 34.89 124:  2.08 125: 97.39 126: 21.43 127: 46.26 128: 14.86
 129:  5.35 130:  2.65 131: 33.81 132: 91.08 133: 69.58 134:111.62 135: 48.49 136:102.88
 137: 74.92 138: 43.78 139: 85.76 140: 57.24 141: 10.07
 Raman intensities (Ä⁴*amu⁻¹)
   1:  0.00   2:  0.00   3:  0.00   4:  0.00   5:  0.00   6:  0.00   7:  0.00   8:  0.00
   9:  0.00  10:  0.00  11:  0.00  12:  0.00  13:  0.00  14:  0.00  15:  0.00  16:  0.00
  17:  0.00  18:  0.00  19:  0.00  20:  0.00  21:  0.00  22:  0.00  23:  0.00  24:  0.00
  25:  0.00  26:  0.00  27:  0.00  28:  0.00  29:  0.00  30:  0.00  31:  0.00  32:  0.00
  33:  0.00  34:  0.00  35:  0.00  36:  0.00  37:  0.00  38:  0.00  39:  0.00  40:  0.00
  41:  0.00  42:  0.00  43:  0.00  44:  0.00  45:  0.00  46:  0.00  47:  0.00  48:  0.00
  49:  0.00  50:  0.00  51:  0.00  52:  0.00  53:  0.00  54:  0.00  55:  0.00  56:  0.00
  57:  0.00  58:  0.00  59:  0.00  60:  0.00  61:  0.00  62:  0.00  63:  0.00  64:  0.00
  65:  0.00  66:  0.00  67:  0.00  68:  0.00  69:  0.00  70:  0.00  71:  0.00  72:  0.00
  73:  0.00  74:  0.00  75:  0.00  76:  0.00  77:  0.00  78:  0.00  79:  0.00  80:  0.00
  81:  0.00  82:  0.00  83:  0.00  84:  0.00  85:  0.00  86:  0.00  87:  0.00  88:  0.00
  89:  0.00  90:  0.00  91:  0.00  92:  0.00  93:  0.00  94:  0.00  95:  0.00  96:  0.00
  97:  0.00  98:  0.00  99:  0.00 100:  0.00 101:  0.00 102:  0.00 103:  0.00 104:  0.00
 105:  0.00 106:  0.00 107:  0.00 108:  0.00 109:  0.00 110:  0.00 111:  0.00 112:  0.00
 113:  0.00 114:  0.00 115:  0.00 116:  0.00 117:  0.00 118:  0.00 119:  0.00 120:  0.00
 121:  0.00 122:  0.00 123:  0.00 124:  0.00 125:  0.00 126:  0.00 127:  0.00 128:  0.00
 129:  0.00 130:  0.00 131:  0.00 132:  0.00 133:  0.00 134:  0.00 135:  0.00 136:  0.00
 137:  0.00 138:  0.00 139:  0.00 140:  0.00 141:  0.00
 output can be read by thermo (or use thermo option).
 writing <g98.out> molden fake output.
 recommended (thermochemical) frequency scaling factor: 1.0
           -------------------------------------------------
          |             Thermodynamic Functions             |
           -------------------------------------------------

Molecule has the following symmetry elements: (sigma) 
It seems to be the Cs point group
cs  symmetry found (for desy threshold:  0.10E+00) used in thermo

          ...................................................
          :                      SETUP                      :
          :.................................................:
          :  # frequencies                         134      :
          :  # imaginary freq.                       1      :
          :  linear?                             false      :
          :  only rotor calc.                    false      :
          :  symmetry                               cs      :
          :  rotational number                       1      :
          :  scaling factor                  1.0000000      :
          :  rotor cutoff                   50.0000000 cm⁻¹ :
          :  imag. cutoff                  -20.0000000 cm⁻¹ :
          :.................................................:

    mode    ω/cm⁻¹     T·S(HO)/kcal·mol⁻¹    T·S(FR)/kcal·mol⁻¹   T·S(vib)
   ------------------------------------------------------------------------
       1     22.52    -1.90776 (  3.95%)    -1.29278 ( 96.05%)    -1.31709
       2     36.31    -1.62510 ( 21.77%)    -1.15125 ( 78.23%)    -1.25440
       3     43.24    -1.52203 ( 35.87%)    -1.09956 ( 64.13%)    -1.25108
       4     64.52    -1.28621 ( 73.49%)    -0.98101 ( 26.51%)    -1.20531
       5     68.54    -1.25068 ( 77.93%)    -0.96309 ( 22.07%)    -1.18721
       6    100.77    -1.02545 ( 94.29%)    -0.84893 (  5.71%)    -1.01536
       7    107.25    -0.98928 ( 95.49%)    -0.83046 (  4.51%)    -0.98211
       8    151.85    -0.78979 ( 98.84%)    -0.72746 (  1.16%)    -0.78906
       9    159.76    -0.76108 ( 99.05%)    -0.71242 (  0.95%)    -0.76061
      10    169.56    -0.72760 ( 99.25%)    -0.69478 (  0.75%)    -0.72735
      11    200.93    -0.63344 ( 99.62%)    -0.64449 (  0.38%)    -0.63348
      12    220.92    -0.58185 ( 99.74%)    -0.61639 (  0.26%)    -0.58194
      13    234.76    -0.54926 ( 99.79%)    -0.59839 (  0.21%)    -0.54936
      14    243.00    -0.53094 ( 99.82%)    -0.58817 (  0.18%)    -0.53105
      15    266.17    -0.48328 ( 99.88%)    -0.56119 (  0.12%)    -0.48337
      16    286.26    -0.44603 ( 99.91%)    -0.53964 (  0.09%)    -0.44612
   ------------------------------------------------------------------------

   temp. (K)  partition function   enthalpy   heat capacity  entropy
                                   cal/mol     cal/K/mol   cal/K/mol   J/K/mol
 298.15  VIB  0.472E+08            11727.178     79.670     69.770
         ROT  0.128E+08              888.752      2.981     35.499
         INT  0.603E+15            12615.930     82.650    105.269
         TR   0.643E+28             1481.254      4.968     43.462
         TOT                       14097.1842    87.6186   148.7307   622.2892

       T/K    H(0)-H(T)+PV         H(T)/Eh          T*S/Eh         G(T)/Eh
   ------------------------------------------------------------------------
    298.15    0.224653E-01    0.391762E+00    0.706668E-01    0.321095E+00
   ------------------------------------------------------------------------

         :::::::::::::::::::::::::::::::::::::::::::::::::::::
         ::                  THERMODYNAMIC                  ::
         :::::::::::::::::::::::::::::::::::::::::::::::::::::
         :: total free energy         -71.120579652414 Eh   ::
         ::.................................................::
         :: total energy              -71.441674739174 Eh   ::
         :: zero point energy           0.369296546094 Eh   ::
         :: G(RRHO) w/o ZPVE           -0.048201459335 Eh   ::
         :: G(RRHO) contrib.            0.321095086759 Eh   ::
         :::::::::::::::::::::::::::::::::::::::::::::::::::::
imag cut-off (cm-1) :    5.00
 found            1  significant imaginary frequency
 writing imag mode distorted coords to xtbhess.xyz
 for further optimization.

optimized geometry written to: xtbopt.xyz


           -------------------------------------------------
          | TOTAL ENERGY              -71.441674739174 Eh   |
          | TOTAL ENTHALPY            -71.049912900034 Eh   |
          | TOTAL FREE ENERGY         -71.120579652414 Eh   |
          | GRADIENT NORM               0.000035034361 Eh/α |
          | HOMO-LUMO GAP               2.250044119841 eV   |
           -------------------------------------------------

------------------------------------------------------------------------
 * finished run on 2025/07/18 at 12:42:55.010     
------------------------------------------------------------------------
 total:
 * wall-time:     0 d,  0 h,  0 min,  1.923 sec
 *  cpu-time:     0 d,  0 h,  1 min, 12.563 sec
 * ratio c/w:    37.731 speedup
 SCF:
 * wall-time:     0 d,  0 h,  0 min,  0.102 sec
 *  cpu-time:     0 d,  0 h,  0 min,  3.277 sec
 * ratio c/w:    32.242 speedup
 ANC optimizer:
 * wall-time:     0 d,  0 h,  0 min,  0.848 sec
 *  cpu-time:     0 d,  0 h,  0 min, 33.221 sec
 * ratio c/w:    39.184 speedup
 analytical hessian:
 * wall-time:     0 d,  0 h,  0 min,  0.900 sec
 *  cpu-time:     0 d,  0 h,  0 min, 33.688 sec
 * ratio c/w:    37.424 speedup

