$hessian                                                                        
        1.1854232334   0.3048373652   0.0391460650  -1.1263241861  -0.2861461470
       -0.0368673103  -0.0664647388  -0.0255826777  -0.0043077620   0.0077303419
        0.0176137857   0.0057639446  -0.0084549211  -0.0091601919  -0.0022114758
        0.0067297107   0.0090234035   0.0018137825  -0.0067692031  -0.0027154264
       -0.0002818448  -0.0003359094   0.0017649482   0.0001902922  -0.0002766430
       -0.0007565745  -0.0000118389  -0.0000089941   0.0003575676   0.0000404697
       -0.0000153816  -0.0002378496  -0.0000809594   0.0001862336   0.0003757245
        0.0001982634   0.0001012479  -0.0007013623  -0.0002577625   0.0020197889
        0.0029122721   0.0019219130  -0.0003447562  -0.0006890668  -0.0001841731
        0.0000781787   0.0003050048   0.0002229069  -0.0000178535   0.0001189184
        0.0000202005  -0.0001908545  -0.0000470236   0.0000968727   0.0005986120
       -0.0003510687  -0.0002805463  -0.0001751013  -0.0001749733   0.0000060113
       -0.0002070398  -0.0000305605  -0.0000075711  -0.0000811474   0.0000987677
        0.0000277962   0.0001067864   0.0000752317   0.0000011153   0.0002593185
        0.0000104873  -0.0000038132   0.0001671708  -0.0001271406   0.0000425435
        0.0006073986   0.0005009792  -0.0000444449   0.0006911390   0.0009814418
       -0.0001707223   0.0000763960  -0.0007482734  -0.0000584166  -0.0001346218
       -0.0000908801   0.0000630848  -0.0001559025  -0.0001863083   0.0000433263
        0.0000511543  -0.0001078356  -0.0000409322   0.0001071427  -0.0000434401
       -0.0000594149   0.0000179580   0.0002284568   0.0000032124  -0.0000099616
        0.0001389910   0.0000273148  -0.0007085031  -0.0003330065   0.0000644681
        0.0000832067   0.0002344535   0.0000123090   0.0000672199  -0.0000798764
        0.0000563201   0.0000403681   0.0000141158   0.0000346882   0.0000023657
        0.0000358467  -0.0000111714  -0.0000422010   0.0000023044  -0.0000428017
       -0.0001312750  -0.0000607443   0.0000021651   0.0006132768  -0.0011050317
       -0.0001091472  -0.0007069818   0.0003168424   0.0001770085   0.0000058179
        0.0001491755  -0.0000088690  -0.0001119382   0.0002465657   0.0000077832
       -0.0001357870  -0.0000028200   0.0000427948  -0.0001177388  -0.0000874942
        0.0000650026   0.0002005399  -0.0001259615  -0.0000375845   0.0001126227
       -0.0000627856  -0.0000471341   0.0000555234   0.0007622301   0.0000580235
        0.0001561936  -0.0001700497  -0.0000527807   0.0000236233   0.0001394940
        0.0000171003   0.0000227535   0.0000368129   0.0000467325   0.0000315071
       -0.0000237464   0.0000007293  -0.0000224202  -0.0000396568  -0.0000523531
       -0.0001161733  -0.0000161047  -0.0000572931  -0.0012600003   0.0000779914
        0.0002236599   0.0000340807  -0.0001685096  -0.0000767733   0.0002810454
       -0.0001884150  -0.0001542250  -0.0099500482  -0.0077945599  -0.0034303591
        0.0127721945   0.0135045358   0.0047577429  -0.0147437708  -0.0122806894
       -0.0038849286   0.0196355807  -0.0003404563  -0.0009989951  -0.0027429935
       -0.0083003737  -0.0027761148   0.0019312448   0.0052959535   0.0018049303
        0.0000556399  -0.0005019333  -0.0001727000  -0.0000717604   0.0000658428
        0.0000000664  -0.0000671545  -0.0000647711   0.0000429513  -0.0000191439
       -0.0000389516   0.0000032139   0.0000176414  -0.0000727603  -0.0000644464
        0.0000343345  -0.0000099172  -0.0000479746   0.0000547626  -0.0000433610
       -0.0000075965  -0.0000499498  -0.0000328940   0.0000033039   0.0000635467
       -0.0000030434   0.0000031013   0.0000285109  -0.0000558054  -0.0000071224
       -0.0000324378  -0.0000564364  -0.0000160821  -0.0000414207   0.0000055926
        0.0000019058   0.0000220716   0.0000302513  -0.0000049571  -0.0000314611
        0.0000515538   0.0000213551  -0.0000629034   0.0000058808   0.0000258611
       -0.0000262111  -0.0000438927   0.0000096267   0.0000020947   0.0000334528
        0.0000014440  -0.0000250257  -0.0000225352  -0.0000153060  -0.0000058749
       -0.0000252204   0.0000000585   0.0000195994  -0.0000298071   0.0000085803
        0.0000192792   0.0000186445  -0.0000400423   0.0000294245  -0.0000371384
        0.0000017500   0.0000826763  -0.0000058128  -0.0000066082   0.0000398060
        0.0000521756  -0.0000156874  -0.0000290891   0.0000454884   0.0000030889
        0.0000134560  -0.0000335205   0.0000374637  -0.0000319372  -0.0000024333
       -0.0000100674  -0.0000185227   0.0000111074  -0.0000013244  -0.0000062603
        0.0000355918   0.0000173281   0.0000295808  -0.0000335742  -0.0000054364
       -0.0000565647   0.0000339849  -0.0000183022   0.0000497081   0.0000347225
        0.0000417791  -0.0002503441  -0.0003930661  -0.0001802786
        0.3048373652   0.0962570532   0.0101535210  -0.2846499115  -0.1087295112
       -0.0103183719  -0.0221681009   0.0109258911   0.0002424795   0.0048408864
        0.0044332223   0.0007406303  -0.0020218575  -0.0017158280   0.0001811978
        0.0019554445   0.0024863013   0.0004509159  -0.0016268183  -0.0006346375
       -0.0000463059  -0.0000697884   0.0004151072   0.0000559194  -0.0000808014
       -0.0001748676   0.0000008317  -0.0000082793   0.0000857318   0.0000047984
       -0.0000091055  -0.0000570715  -0.0000143518   0.0000369474   0.0000883874
        0.0000473611   0.0000455401  -0.0001540254  -0.0000909232   0.0005130608
        0.0009465123   0.0005686524  -0.0001252604  -0.0001823097  -0.0000444287
        0.0000430362   0.0000869528   0.0000617287  -0.0000205810   0.0000382876
        0.0000036691  -0.0000330667  -0.0000064593   0.0000313910   0.0001516635
       -0.0000891530  -0.0000775263  -0.0000539134  -0.0000528162   0.0000031378
       -0.0000467451  -0.0000114868  -0.0000024061  -0.0000158856   0.0000244164
        0.0000055647   0.0000224533   0.0000206939   0.0000007914   0.0000630453
        0.0000000007  -0.0000005510   0.0000488044  -0.0000347731   0.0000100793
        0.0001675660   0.0001350806  -0.0000137476   0.0001769476   0.0002668810
       -0.0000439619   0.0000233215  -0.0002032553  -0.0000175475  -0.0000431709
       -0.0000211453   0.0000182560  -0.0000399898  -0.0000481429   0.0000105351
        0.0000124813  -0.0000262717  -0.0000119002   0.0000260686  -0.0000116945
       -0.0000146974   0.0000001098   0.0000599881   0.0000019492   0.0000025474
        0.0000360623   0.0000069606  -0.0001858164  -0.0000795306   0.0000165570
        0.0000192558   0.0000515222   0.0000062847   0.0000185306  -0.0000179224
        0.0000126544   0.0000090872   0.0000044672   0.0000094600  -0.0000001072
        0.0000090028  -0.0000020025  -0.0000089793   0.0000003893  -0.0000091984
       -0.0000341567  -0.0000128865  -0.0000007747   0.0001704055  -0.0003098051
       -0.0000293577  -0.0001961930   0.0000917288   0.0000498027   0.0000053500
        0.0000470418  -0.0000062112  -0.0000245322   0.0000603665   0.0000009918
       -0.0000383949   0.0000025591   0.0000139099  -0.0000277608  -0.0000287031
        0.0000201389   0.0000529072  -0.0000286175  -0.0000084114   0.0000333653
       -0.0000189121  -0.0000150697   0.0000183882   0.0002172078   0.0000194024
        0.0000353935  -0.0000400472  -0.0000166966   0.0000073285   0.0000366416
        0.0000028095   0.0000061350   0.0000106100   0.0000108812   0.0000097170
       -0.0000053580  -0.0000004300  -0.0000055677  -0.0000093461  -0.0000143766
       -0.0000306972  -0.0000046761  -0.0000154430  -0.0003359532   0.0000115785
        0.0000574038  -0.0000019958  -0.0000515706  -0.0000228607   0.0000938365
       -0.0000472248  -0.0000484796  -0.0025649505  -0.0021033571  -0.0010376653
        0.0031812003   0.0037373879   0.0013196261  -0.0046386930  -0.0026710871
       -0.0003457847   0.0026377263  -0.0015501721  -0.0012528621  -0.0014441854
       -0.0031141108  -0.0011289538   0.0013617661   0.0016736582   0.0004690519
        0.0002979077   0.0002271353  -0.0000475320  -0.0000158524   0.0000124721
        0.0000008469  -0.0000143160  -0.0000131460   0.0000122520  -0.0000034737
       -0.0000066620   0.0000037272   0.0000058725  -0.0000075972  -0.0000066030
        0.0000157200  -0.0000060560   0.0000029634   0.0000143886  -0.0000099216
        0.0000054137  -0.0000103623  -0.0000101411   0.0000031704   0.0000144269
       -0.0000004901   0.0000017777   0.0000067323  -0.0000126026  -0.0000009631
       -0.0000074920  -0.0000125777  -0.0000037956  -0.0000109698   0.0000016334
        0.0000002842   0.0000046850   0.0000081951  -0.0000019300  -0.0000074669
        0.0000127344   0.0000059966  -0.0000151949   0.0000038186   0.0000059044
       -0.0000057116  -0.0000088930   0.0000019320  -0.0000000303   0.0000075000
       -0.0000004924  -0.0000061196  -0.0000049524  -0.0000033010  -0.0000014904
       -0.0000042702  -0.0000016454   0.0000041223  -0.0000054731   0.0000016011
        0.0000048479   0.0000028166  -0.0000101368   0.0000086609  -0.0000082999
        0.0000013918   0.0000210879  -0.0000061271  -0.0000033305   0.0000060777
        0.0000181343  -0.0000069446  -0.0000094711   0.0000125275   0.0000004566
        0.0000040951  -0.0000071565   0.0000104597  -0.0000084711   0.0000001220
       -0.0000019767  -0.0000041705   0.0000034593  -0.0000006498  -0.0000019868
        0.0000106400   0.0000046148   0.0000078554  -0.0000091204  -0.0000011596
       -0.0000165781   0.0000073121  -0.0000044827   0.0000139294   0.0000055668
        0.0000078270  -0.0003676754  -0.0002145364   0.0000662766
        0.0391460650   0.0101535210   0.0175915158  -0.0364183395  -0.0102370840
       -0.0331913187  -0.0031280828   0.0004475189   0.0143566030   0.0013703706
       -0.0000072474   0.0014339863  -0.0003254825   0.0003920646  -0.0012569120
        0.0003067181   0.0003267304   0.0002251127  -0.0001703864  -0.0000792013
       -0.0000464862   0.0000022323   0.0000786045  -0.0000081474  -0.0000094891
       -0.0000249820   0.0000048186   0.0000003726   0.0000114235   0.0000044770
       -0.0000069806  -0.0000126901   0.0000041881   0.0000048544   0.0000105890
        0.0000108455   0.0000234536  -0.0000216388  -0.0000154453   0.0000455791
        0.0000748590   0.0000272769   0.0000194614   0.0000036851  -0.0000065504
       -0.0000079878  -0.0000139757  -0.0000144502   0.0000196794  -0.0000065819
        0.0000020200  -0.0000436103  -0.0000068902  -0.0000050777   0.0000212650
        0.0000078209   0.0000139001   0.0000037294  -0.0000027754  -0.0000026404
        0.0000029557   0.0000037374  -0.0000033275  -0.0000070800  -0.0000062386
        0.0000102450   0.0000102934  -0.0000058605  -0.0000041181   0.0000035687
        0.0000149881   0.0000014194   0.0000058540  -0.0000231680  -0.0000095465
       -0.0000020074   0.0000313631   0.0000008681   0.0000146478   0.0000004057
       -0.0000097580   0.0000089102   0.0000072849   0.0000013372   0.0000049820
       -0.0000020679  -0.0000021315  -0.0000009006  -0.0000047479   0.0000000274
       -0.0000000946  -0.0000032799   0.0000064106   0.0000012260   0.0000059934
       -0.0000027518   0.0000088713  -0.0000033358  -0.0000036510  -0.0000065361
        0.0000107860   0.0000035956  -0.0000029213  -0.0000138536  -0.0000036682
        0.0000006101   0.0000042572  -0.0000008465   0.0000030681  -0.0000035104
        0.0000005729   0.0000016631  -0.0000020532  -0.0000021009  -0.0000008379
        0.0000009558  -0.0000012699  -0.0000024243   0.0000003513  -0.0000021018
       -0.0000030322  -0.0000011234   0.0000007061  -0.0000062023  -0.0000430404
        0.0000033114  -0.0000067188   0.0000220224  -0.0000031922  -0.0000095538
       -0.0000075496   0.0000082335   0.0000000346   0.0000071300   0.0000003658
        0.0000060078  -0.0000115660  -0.0000005651  -0.0000110278   0.0000060738
        0.0000067407   0.0000025406   0.0000000756  -0.0000002038  -0.0000071249
       -0.0000011988  -0.0000026638   0.0000098363   0.0000315065   0.0000049115
        0.0000010125  -0.0000039343  -0.0000048549  -0.0000004503   0.0000026336
        0.0000019756   0.0000030702  -0.0000012556  -0.0000012127  -0.0000012483
       -0.0000006498   0.0000036586   0.0000009802  -0.0000002115  -0.0000027557
       -0.0000039483  -0.0000011353  -0.0000012361  -0.0000199388  -0.0000145095
        0.0000125131   0.0000003570   0.0000137783   0.0000070372  -0.0000129943
       -0.0000163905   0.0000057518  -0.0004001186  -0.0002924707   0.0001910279
        0.0004609027   0.0005155627   0.0001967313  -0.0008462395   0.0002130935
       -0.0010468800  -0.0001048141  -0.0011205553   0.0012635408  -0.0003187490
       -0.0007439459   0.0001062766   0.0003894722   0.0002378227   0.0002104413
        0.0001194650   0.0000043630   0.0002940364  -0.0000095269   0.0000019090
        0.0000005816  -0.0000041731  -0.0000031355   0.0000020979  -0.0000021122
       -0.0000029957  -0.0000019273   0.0000023452   0.0000062759  -0.0000011991
        0.0000061590   0.0000075347  -0.0000035386   0.0000009627   0.0000055396
        0.0000022814   0.0000048983  -0.0000003592   0.0000008599   0.0000009254
        0.0000017363  -0.0000012591   0.0000008333  -0.0000002762  -0.0000012563
       -0.0000000593  -0.0000004526  -0.0000020308  -0.0000012759   0.0000015346
       -0.0000007766   0.0000001715  -0.0000002165  -0.0000008860  -0.0000014409
        0.0000013213   0.0000000829  -0.0000023322  -0.0000002105   0.0000003686
       -0.0000007726  -0.0000021865  -0.0000003095   0.0000005816   0.0000020909
        0.0000003870  -0.0000008673  -0.0000005573  -0.0000019592  -0.0000004476
       -0.0000015990   0.0000006604   0.0000012175  -0.0000034758  -0.0000015556
       -0.0000052737   0.0000018592   0.0000007286   0.0000039458   0.0000019941
       -0.0000030342   0.0000039360   0.0000004131  -0.0000007589   0.0000044721
       -0.0000023912  -0.0000017050  -0.0000009409   0.0000019925  -0.0000017479
       -0.0000008368  -0.0000015277   0.0000011568  -0.0000034847   0.0000004311
        0.0000009537   0.0000002050   0.0000003442   0.0000000794  -0.0000013779
        0.0000013289   0.0000002873   0.0000030834  -0.0000014966  -0.0000006418
        0.0000004620   0.0000061556  -0.0000010949  -0.0000018546  -0.0000009258
       -0.0000004585  -0.0001362102   0.0000790626  -0.0003450015
       -1.1263241861  -0.2846499115  -0.0364183395   1.4450982741   0.3545676375
        0.0451242720  -0.2449869326  -0.0437380285  -0.0041012968  -0.0352583315
       -0.0451820748  -0.0138056420   0.0154931628   0.0114551531   0.0026407829
       -0.0115774916  -0.0142153828  -0.0028686133   0.0105154850   0.0039774128
        0.0004028881   0.0003863739  -0.0027040687  -0.0002916885   0.0003943771
        0.0011548922   0.0000442550   0.0000148960  -0.0005809843  -0.0000573251
        0.0000117126   0.0003562832   0.0001304762  -0.0002903457  -0.0006115337
       -0.0003041891  -0.0001369268   0.0010795266   0.0003535595  -0.0033713562
       -0.0044741426  -0.0030088224   0.0007192806   0.0010506658   0.0002693018
       -0.0001056293  -0.0004798983  -0.0003154245  -0.0000006597  -0.0001867970
       -0.0000605399   0.0003704841   0.0000876445  -0.0001318796  -0.0008343913
        0.0004840202   0.0003553463   0.0002108798   0.0001954520  -0.0000029919
        0.0003469563   0.0000540510   0.0000102129   0.0001305381  -0.0001716017
       -0.0000426800  -0.0002030458  -0.0001168998   0.0000019700  -0.0004170008
       -0.0000574818   0.0000034802  -0.0002371075   0.0002439274  -0.0000549351
       -0.0008250216  -0.0007994556   0.0000530606  -0.0010176481  -0.0013440195
        0.0002404159  -0.0001406846   0.0009928479   0.0000877196   0.0001531714
        0.0001402862  -0.0000711571   0.0002324479   0.0003201647  -0.0000597242
       -0.0000601871   0.0001975682   0.0000571278  -0.0001879760   0.0000013905
        0.0000936294  -0.0001028633  -0.0003217208   0.0000318968   0.0000722660
       -0.0002554766  -0.0000654852   0.0009604736   0.0005447325  -0.0000681046
       -0.0001377193  -0.0004186449   0.0000024898  -0.0000967579   0.0001379995
       -0.0000932801  -0.0000708760  -0.0000287509  -0.0000549355  -0.0000059265
       -0.0000637873   0.0000206316   0.0000709622  -0.0000083131   0.0000727245
        0.0002039911   0.0001080431  -0.0000039184  -0.0008145140   0.0017578185
        0.0001286314   0.0010005252  -0.0005879091  -0.0002447645   0.0000573216
       -0.0001316923  -0.0000144361   0.0001333083  -0.0004165327  -0.0000004036
        0.0002154972   0.0000543498  -0.0000826803   0.0002146856   0.0001229658
       -0.0001145913  -0.0003415436   0.0001866379   0.0000655071  -0.0000826574
        0.0000796331   0.0000466448  -0.0001443963  -0.0012340545  -0.0000622192
       -0.0002709168   0.0002965700   0.0000768503  -0.0000311843  -0.0002263872
       -0.0000277911  -0.0000502954  -0.0000544839  -0.0000779256  -0.0000579645
        0.0000400042  -0.0000056733   0.0000294694   0.0000677917   0.0000832460
        0.0001828955   0.0000155648   0.0000917666   0.0017710319   0.0000197575
       -0.0003154802  -0.0000506866   0.0002528551   0.0001243004  -0.0003870223
        0.0003125785   0.0002358748   0.0177908886   0.0123717108   0.0054323638
       -0.0222064830  -0.0219107268  -0.0077467675   0.0221039294   0.0242918889
        0.0082280297  -0.0689149728   0.0020001409   0.0043500709   0.0041865594
        0.0115162789   0.0036524271  -0.0034432485  -0.0083382347  -0.0027452713
        0.0008269851   0.0020591613   0.0005200666   0.0001420970  -0.0000909131
       -0.0000357143   0.0001181555   0.0001117518  -0.0000735389   0.0000349049
        0.0000780940  -0.0000068238  -0.0000268504   0.0001250834   0.0001047124
       -0.0000762794   0.0000366181   0.0001005627  -0.0000892377   0.0000730856
        0.0000240073   0.0000731810   0.0000506400  -0.0000066025  -0.0001069552
        0.0000126558  -0.0000045160  -0.0000442898   0.0000932664   0.0000132589
        0.0000537574   0.0000931648   0.0000254938   0.0000662551  -0.0000096027
       -0.0000010233  -0.0000370239  -0.0000553179   0.0000035020   0.0000548518
       -0.0000860225  -0.0000358045   0.0001049162  -0.0000100594  -0.0000416163
        0.0000468401   0.0000739501  -0.0000152394  -0.0000037328  -0.0000541476
        0.0000018742   0.0000402489   0.0000349441   0.0000281104   0.0000105208
        0.0000411650   0.0000034542  -0.0000300665   0.0000475634  -0.0000120211
       -0.0000284085  -0.0000300528   0.0000636158  -0.0000414531   0.0000703430
       -0.0000049132  -0.0001295898   0.0000070684   0.0000162552  -0.0000609185
       -0.0000859835   0.0000205969   0.0000480786  -0.0000725002  -0.0000075392
       -0.0000219587   0.0000549036  -0.0000568049   0.0000524696   0.0000026255
        0.0000180138   0.0000284146  -0.0000231168   0.0000003082   0.0000090843
       -0.0000545158  -0.0000297016  -0.0000485961   0.0000502003   0.0000043336
        0.0000890311  -0.0000491490   0.0000279073  -0.0000639575  -0.0000540165
       -0.0000896621  -0.0008773678   0.0003318635   0.0002524709
       -0.2861461470  -0.1087295112  -0.0102370840   0.3545676375   0.1947204387
        0.0219078997  -0.0513269336  -0.0693717582  -0.0047735394  -0.0339393009
       -0.0191983267  -0.0047343885   0.0019848379  -0.0007675133  -0.0031606901
       -0.0035673986  -0.0039850095  -0.0007198979   0.0016986718   0.0005809331
        0.0000476657  -0.0000028341  -0.0005210550  -0.0000695365   0.0000945667
        0.0001933726  -0.0000010843  -0.0000000158  -0.0001194502  -0.0000057054
        0.0000002586   0.0000643677   0.0000268932  -0.0000606497  -0.0001303592
       -0.0000622122  -0.0000613086   0.0001886523   0.0001044489  -0.0008212393
       -0.0018951968  -0.0010388776   0.0003920554   0.0002857724   0.0000562339
       -0.0001255952  -0.0001791659  -0.0001451863   0.0000819612  -0.0000715559
       -0.0000203042   0.0000063082   0.0000110399  -0.0000436225  -0.0002013289
        0.0001317445   0.0001182373   0.0000667032   0.0000704206  -0.0000145321
        0.0000759596   0.0000138309   0.0000051773   0.0000219941  -0.0000388934
       -0.0000113774  -0.0000366593  -0.0000302923  -0.0000003479  -0.0000974860
        0.0000073092   0.0000038006  -0.0000736313   0.0000449649  -0.0000182079
       -0.0002426276  -0.0001914727   0.0000249869  -0.0002673814  -0.0004010524
        0.0000677270  -0.0000329316   0.0002998069   0.0000251484   0.0000541920
        0.0000333671  -0.0000247195   0.0000568561   0.0000780557  -0.0000138361
       -0.0000157923   0.0000423032   0.0000133027  -0.0000389161   0.0000152964
        0.0000234741  -0.0000081381  -0.0000854499  -0.0000000915   0.0000056640
       -0.0000606366  -0.0000107116   0.0002727697   0.0001235992  -0.0000222176
       -0.0000275716  -0.0000768574  -0.0000077319  -0.0000254931   0.0000306646
       -0.0000206970  -0.0000154539  -0.0000033742  -0.0000113374  -0.0000015743
       -0.0000133646   0.0000052528   0.0000159311   0.0000013892   0.0000154849
        0.0000489842   0.0000225053  -0.0000010562  -0.0002461283   0.0004629527
        0.0000386280   0.0002909665  -0.0001343307  -0.0000725437  -0.0000041327
       -0.0000575906   0.0000044909   0.0000438119  -0.0000924880  -0.0000031629
        0.0000524331   0.0000039313  -0.0000197293   0.0000463477   0.0000373632
       -0.0000276559  -0.0000796172   0.0000488746   0.0000137099  -0.0000406544
        0.0000243622   0.0000189651  -0.0000342670  -0.0003197185  -0.0000198039
       -0.0000561252   0.0000618221   0.0000229685  -0.0000107501  -0.0000542660
       -0.0000055088  -0.0000079837  -0.0000126789  -0.0000173794  -0.0000102954
        0.0000086852   0.0000001118   0.0000087053   0.0000146967   0.0000211545
        0.0000471368   0.0000084240   0.0000240635   0.0004811408  -0.0000133571
       -0.0000816054   0.0000369416   0.0001029539   0.0000610308  -0.0001948887
        0.0000919716   0.0000959428   0.0042119158   0.0035082305   0.0020217960
       -0.0048481886  -0.0063258290  -0.0022236762   0.0092385889   0.0034383122
       -0.0013040357   0.0074175736   0.0069840327   0.0025138308   0.0024721212
        0.0034642377   0.0020959616  -0.0015511613  -0.0025922995  -0.0009942026
       -0.0007864249  -0.0002350453   0.0008108198   0.0000325574  -0.0000141460
       -0.0000144509   0.0000224491   0.0000192541  -0.0000174565   0.0000084729
        0.0000112993  -0.0000064973  -0.0000045904   0.0000167106   0.0000099885
       -0.0000237370   0.0000269021   0.0000169031  -0.0000091063   0.0000212242
        0.0000058778   0.0000167637   0.0000150645  -0.0000084097  -0.0000184157
        0.0000054877  -0.0000006070  -0.0000087454   0.0000157776   0.0000019511
        0.0000111788   0.0000194448   0.0000066153   0.0000143598  -0.0000015802
        0.0000002969  -0.0000067946  -0.0000113809   0.0000010823   0.0000138611
       -0.0000197934  -0.0000065715   0.0000215258  -0.0000008015  -0.0000076558
        0.0000100513   0.0000162827  -0.0000025985   0.0000002433  -0.0000133530
        0.0000014982   0.0000091234   0.0000083999   0.0000076031   0.0000014970
        0.0000099458   0.0000009253  -0.0000065341   0.0000119658  -0.0000013954
       -0.0000080260  -0.0000076629   0.0000145191  -0.0000070382   0.0000089578
       -0.0000009579  -0.0000302429   0.0000025543   0.0000017698  -0.0000143826
       -0.0000242441   0.0000072466   0.0000115546  -0.0000189561  -0.0000008305
       -0.0000042277   0.0000128229  -0.0000143857   0.0000112631   0.0000004408
        0.0000034613   0.0000068667  -0.0000042902   0.0000001227   0.0000041502
       -0.0000140552  -0.0000070130  -0.0000120659   0.0000109231  -0.0000000415
        0.0000193317  -0.0000106548   0.0000066805  -0.0000254567  -0.0000179907
       -0.0000199768   0.0011781047   0.0004126651  -0.0002286039
       -0.0368673103  -0.0103183719  -0.0331913187   0.0451242720   0.0219078997
        0.0786373813  -0.0067363271  -0.0051536417  -0.0492140997  -0.0099882739
       -0.0039990743  -0.0011586843   0.0001967594  -0.0031549135   0.0060736014
       -0.0005971116  -0.0007521634  -0.0005307737  -0.0000459233   0.0001254074
       -0.0000461628  -0.0000288952  -0.0001438046   0.0000318955   0.0000140072
        0.0000344679   0.0000010454  -0.0000047996  -0.0000262971  -0.0000005745
        0.0000025642   0.0000221208   0.0000045843  -0.0000017749  -0.0000266640
       -0.0000211501  -0.0000518793   0.0000402838   0.0000288062   0.0000776377
       -0.0003343612  -0.0001028450  -0.0000961922  -0.0000398798   0.0000562917
        0.0000384225   0.0000567255   0.0000603890  -0.0000746241   0.0000353152
        0.0000136735   0.0001235567   0.0000236966   0.0000225843  -0.0001166160
       -0.0000261986  -0.0000296126   0.0000292601   0.0000392571   0.0000418749
       -0.0000022594  -0.0000071013  -0.0000048899   0.0000143065   0.0000090747
        0.0000067637  -0.0000268990   0.0000164026   0.0000028640  -0.0000028431
       -0.0000326155  -0.0000087569  -0.0000157145   0.0000491216   0.0000014192
       -0.0000037127  -0.0000636133  -0.0000169398  -0.0000320291   0.0000102880
        0.0000052757  -0.0000069933  -0.0000045948  -0.0000001090  -0.0000011746
        0.0000082865   0.0000003321   0.0000108306   0.0000011255  -0.0000051723
       -0.0000051328  -0.0000006659   0.0000081171  -0.0000037275   0.0000036203
       -0.0000000826  -0.0000023046  -0.0000048229   0.0000015050   0.0000029116
       -0.0000071191  -0.0000002313   0.0000185001   0.0000102097   0.0000045082
       -0.0000019047  -0.0000014511  -0.0000008547  -0.0000011795   0.0000000037
        0.0000005771   0.0000003480  -0.0000007818  -0.0000018190  -0.0000015271
        0.0000006382  -0.0000000799   0.0000001625   0.0000011918   0.0000016882
        0.0000051556   0.0000019274   0.0000014920  -0.0000025778   0.0000303951
        0.0000067052   0.0000078886  -0.0000233822  -0.0000074263   0.0000079474
       -0.0000046948  -0.0000033050  -0.0000063122  -0.0000115848  -0.0000047453
       -0.0000085714   0.0000134134   0.0000047962   0.0000123567  -0.0000037672
       -0.0000021896  -0.0000105499  -0.0000013618   0.0000002989   0.0000046635
        0.0000085222  -0.0000039532  -0.0000036546  -0.0000227624  -0.0000042062
       -0.0000003453   0.0000025103   0.0000037784  -0.0000016506  -0.0000037975
       -0.0000010950   0.0000022709  -0.0000016100  -0.0000038293  -0.0000018849
        0.0000008047   0.0000026044   0.0000036298   0.0000024616  -0.0000012384
        0.0000044228   0.0000033507   0.0000006652   0.0000534468   0.0000015057
       -0.0000212141  -0.0000190078  -0.0000586059  -0.0000322858   0.0000425174
        0.0000452354  -0.0000313119   0.0004758547   0.0008964363  -0.0010210525
       -0.0004876027  -0.0010359240  -0.0004056429   0.0023052262  -0.0023536333
        0.0050041932   0.0064875019   0.0028232578  -0.0008663737   0.0004684043
        0.0016486492  -0.0021213442  -0.0003132732  -0.0006365798   0.0001179089
       -0.0005108137   0.0006236577  -0.0021495578   0.0000149620  -0.0000052109
       -0.0000089888   0.0000058217   0.0000027320  -0.0000037374   0.0000028283
        0.0000010419  -0.0000035525   0.0000019736  -0.0000061315   0.0000023834
       -0.0000012414  -0.0000041491   0.0000044835  -0.0000004809  -0.0000122215
       -0.0000042316  -0.0000007177  -0.0000088622  -0.0000014173  -0.0000024912
        0.0000014354   0.0000017147  -0.0000010307  -0.0000017389   0.0000013284
        0.0000004396  -0.0000003265   0.0000005135  -0.0000015727  -0.0000007223
       -0.0000014388  -0.0000018944  -0.0000030457   0.0000008587   0.0000011273
       -0.0000002976  -0.0000004062   0.0000040817   0.0000002327  -0.0000001521
        0.0000014217   0.0000008446   0.0000010219  -0.0000005225   0.0000012288
        0.0000003133  -0.0000008486   0.0000010109   0.0000005540  -0.0000001585
        0.0000003727   0.0000028137   0.0000003785   0.0000006931  -0.0000001732
       -0.0000049583   0.0000010996   0.0000043104  -0.0000050206  -0.0000049922
        0.0000019777  -0.0000023295  -0.0000011267  -0.0000017907  -0.0000033592
        0.0000017818  -0.0000015988   0.0000016270  -0.0000000175  -0.0000016867
       -0.0000026798  -0.0000018180  -0.0000001579  -0.0000029627  -0.0000003302
        0.0000013004   0.0000000142   0.0000004947  -0.0000000176  -0.0000004828
       -0.0000015805  -0.0000003030   0.0000006044   0.0000009080   0.0000006006
        0.0000072510  -0.0000063422   0.0000022047   0.0000090875   0.0000029728
       -0.0000053773   0.0005296810  -0.0001993605   0.0008759587
       -0.0664647388  -0.0221681009  -0.0031280828  -0.2449869326  -0.0513269336
       -0.0067363271   0.6235894609   0.0171010174  -0.0241476286  -0.0733116404
       -0.0526540712  -0.0166174681  -0.0245081814  -0.0412725414  -0.0121322866
        0.0043495499   0.0124684870   0.0027847683  -0.0069369449  -0.0060713267
       -0.0007169139  -0.0004650172   0.0022007660   0.0001483300  -0.0004599823
       -0.0009240734  -0.0000558690  -0.0000098351   0.0003907521   0.0000521751
       -0.0000604495  -0.0002726611  -0.0000558883   0.0002784324   0.0004723203
        0.0002261985   0.0001542382  -0.0009412264  -0.0003587856   0.0045972128
        0.0106892229   0.0051154530  -0.0021455101  -0.0007999765  -0.0004190722
        0.0006991461   0.0007421859   0.0006221178  -0.0004740928   0.0001918482
        0.0000515186  -0.0000320859  -0.0000284496   0.0001011812   0.0006322146
       -0.0002362933  -0.0002418674  -0.0001263837  -0.0002324054  -0.0000245346
       -0.0001539056   0.0000121083  -0.0000027591  -0.0000662904   0.0000759763
        0.0000246466   0.0000506454   0.0000846126   0.0000091610   0.0001774971
       -0.0000527388  -0.0000079085   0.0001601297  -0.0000358250   0.0000355121
        0.0005006029   0.0003013199  -0.0000426085   0.0004101469   0.0007560899