$hessian                                                                        
        0.5602396792  -0.1849715515   0.1271704260  -0.2156712004  -0.0127596443
       -0.1570962544  -0.0537478461   0.0341168902  -0.0026116588  -0.0068484511
       -0.0138965033  -0.0211635528  -0.0014508117   0.0008164657   0.0008440701
        0.0001336003  -0.0000809131   0.0004175952  -0.0001754003   0.0001164269
       -0.0000526227   0.0001079823  -0.0000113955   0.0000600309  -0.0000043938
        0.0001319797   0.0000080515  -0.0001306248  -0.0001181519  -0.0000443421
        0.0002135106   0.0000160828   0.0000313153  -0.0000927583  -0.0001134904
       -0.0000269941   0.0000697995   0.0000380341   0.0000412806  -0.0000112774
       -0.0000258310  -0.0000023925   0.0000300564  -0.0000242797   0.0000596262
       -0.0000191341   0.0000678188  -0.0000536939   0.0001715647  -0.0003621369
       -0.0005212643   0.0145146345   0.0092408885   0.0237685274  -0.0021096458
        0.0052166818  -0.0004245893  -0.0000704909   0.0000790420   0.0002376449
        0.0001860398  -0.0001855940   0.0002177122  -0.0000256183  -0.0000260621
       -0.0000668101   0.0002693758  -0.0001910049   0.0004156672   0.0002034313
        0.0000351353   0.0001394004   0.0000728972  -0.0000387606  -0.0001299229
       -0.0000051442   0.0001034245  -0.0000347684  -0.0000310203  -0.0000071517
        0.0001315506  -0.0001257497  -0.0001687730   0.0000296434   0.0000482863
       -0.0000041570  -0.0000256603   0.0000192799   0.0000584572   0.0000075015
       -0.0000832375  -0.0000695791  -0.0000252547   0.0000464213   0.0000561386
        0.0000086638  -0.0000413430   0.0000105223   0.0000106131   0.0000212283
       -0.0000324301  -0.0000020221   0.0000033124  -0.0000435236   0.0000037940
        0.0000132060   0.0000099685   0.0000232161  -0.0001944778   0.0000461268
        0.0000162774  -0.0855107350   0.0460371878   0.0291983856  -0.2088558786
        0.1248044506   0.0193473163   0.0007238359  -0.0006109501  -0.0002565478
       -0.0018308047   0.0055430517  -0.0011279175  -0.0000472419   0.0000852215
       -0.0000439248  -0.0000117303  -0.0000076831   0.0000144367  -0.0000175810
       -0.0000001990  -0.0000087894  -0.0000036090   0.0000066303  -0.0000119296
       -0.0000039158  -0.0000036700   0.0000077494   0.0000130030   0.0000205893
       -0.0000213362   0.0000154246   0.0000033710  -0.0000102135   0.0000001450
        0.0000688639   0.0000099836  -0.0000785140   0.0002193736  -0.0000982449
        0.0000020329  -0.0000213570   0.0000097416  -0.0000368710   0.0000640626
       -0.0000776670   0.0000105537   0.0000278700  -0.0000581887  -0.0000713816
       -0.0000826633   0.0001600771   0.0000570940   0.0000075277  -0.0000144459
        0.0000236208   0.0000001645   0.0000117912   0.0000131602   0.0000212334
        0.0000069160   0.0000130995   0.0000006266   0.0000024359  -0.0000053381
       -0.0000035199  -0.0000036272   0.0000165436   0.0000035658  -0.0000071447
       -0.0000048766  -0.0000208527  -0.0000083185   0.0000642839  -0.0131920454
       -0.0183813424
       -0.1849715515   0.3899542608   0.2093634921   0.0295285399  -0.0709418032
       -0.0057006315   0.0025889946   0.0160052740   0.0219374307  -0.0131865480
       -0.0099050641  -0.0181647655   0.0007817649  -0.0008523715   0.0004392080
       -0.0003647592  -0.0000082749  -0.0002820706   0.0000142748   0.0000609041
       -0.0000816648   0.0000126409  -0.0000310214   0.0000621678  -0.0000099641
        0.0000132167  -0.0000039271  -0.0000143499   0.0000099823   0.0000225649
       -0.0000082756  -0.0000716331   0.0000097191  -0.0000087830   0.0000600128
       -0.0000070814  -0.0000331308  -0.0000618222  -0.0000238934   0.0000371549
        0.0000072208  -0.0000024547  -0.0000076530   0.0000362399   0.0000125802
       -0.0000486744  -0.0000397238  -0.0000326847  -0.0000276780   0.0001557777
        0.0002832383   0.0389407549  -0.0314826498  -0.0114826800   0.0051601857
        0.0031191666  -0.0016941095  -0.0004524551   0.0007257505   0.0003571742
        0.0001767818  -0.0000107587   0.0002610648  -0.0000660409  -0.0000089989
        0.0000315787   0.0004698260   0.0000459298  -0.0001032669   0.0006516535
       -0.0011799076  -0.0013686849  -0.0004329762  -0.0000695122  -0.0000180667
       -0.0000149254  -0.0001502640   0.0000017697   0.0000747433  -0.0000668013
        0.0004003440  -0.0001461669   0.0000213011   0.0000396555  -0.0000035135
        0.0000048878  -0.0000226931  -0.0000118291  -0.0000155521  -0.0000109600
        0.0000066119   0.0000405371  -0.0000428497  -0.0000260634  -0.0000547173
        0.0000030045   0.0000361958   0.0000118841   0.0000007415  -0.0000028155
        0.0000220728   0.0000018213   0.0000062947   0.0000292488   0.0000003983
       -0.0000219986  -0.0000246044  -0.0000094846   0.0000493143  -0.0000215542
       -0.0000039867   0.0043844078  -0.1681462965  -0.1553112822   0.1247604691
       -0.1271839773  -0.0196700860  -0.0130863482  -0.0011002056  -0.0136166866
        0.0058072947   0.0021642802  -0.0028197218   0.0001006835  -0.0000086501
       -0.0000166020   0.0000001798   0.0000135486   0.0000031692   0.0000138434
        0.0000028549  -0.0000143100   0.0000005804  -0.0000049345   0.0000050571
        0.0000109605  -0.0000007167  -0.0000042798   0.0000019097  -0.0000144187
       -0.0000027620  -0.0000006473  -0.0000043774   0.0000023359   0.0001057616
        0.0000079077  -0.0000105588  -0.0001434222  -0.0000849398  -0.0000262260
        0.0000200033   0.0000467175   0.0000547293  -0.0000297322   0.0000480095
       -0.0000153188  -0.0000183655  -0.0000535783  -0.0000803140  -0.0000540884
        0.0000268969  -0.0001400396  -0.0000316229   0.0000453600   0.0000088584
       -0.0000295516  -0.0000006543   0.0000064922  -0.0000209978  -0.0000043539
        0.0000154818   0.0000003294   0.0000024374   0.0000038892   0.0000078700
        0.0000095974   0.0000024982  -0.0000015900   0.0000037048   0.0000022629
        0.0000164456   0.0000490458   0.0000061044  -0.0004899528  -0.0011398905
       -0.0025546884
        0.1271704260   0.2093634921   0.4979632319  -0.0999027566  -0.0424728541
       -0.1863252858  -0.0438520470   0.0490117058   0.0291274973  -0.0188920605
       -0.0180326376  -0.0479701914  -0.0000858793  -0.0000192883   0.0012240462
       -0.0003016753  -0.0001101745  -0.0000434939  -0.0002629972   0.0000763101
       -0.0000690507   0.0001417542  -0.0000284389   0.0001864465  -0.0000436119
        0.0001561506  -0.0000114359  -0.0001494001  -0.0001063074  -0.0000085671
        0.0002115914  -0.0000630471   0.0000445655  -0.0001244663   0.0000006894
       -0.0000145029   0.0000120315  -0.0000480574   0.0000234249   0.0000193166
        0.0000089251  -0.0000002815   0.0000154833   0.0000103638   0.0001002671
       -0.0000573418   0.0000220971  -0.0000696708   0.0000588413  -0.0001311067
       -0.0001150577   0.0659626625  -0.0357525950   0.0058796826  -0.0007265639
       -0.0013279884   0.0041492864  -0.0006419478  -0.0002538962  -0.0006948654
       -0.0002144253   0.0002621693   0.0004261296   0.0000710655  -0.0000598265
       -0.0001189148  -0.0001341519   0.0002588975   0.0000664955   0.0004326131
       -0.0002274185   0.0000317454   0.0001254606  -0.0000578364  -0.0000151671
       -0.0000120100  -0.0001740769  -0.0000780856   0.0001975498  -0.0001286698
        0.0002172786  -0.0000971455  -0.0000155331  -0.0000731398   0.0000074428
       -0.0000365850  -0.0000254788  -0.0000153052   0.0000265405  -0.0000030359
       -0.0000364725  -0.0000269968  -0.0000575501   0.0000519488   0.0000270603
        0.0000049824  -0.0000068288   0.0000067058  -0.0000048463   0.0000144577
       -0.0000074411   0.0000091448   0.0000012308   0.0000078223   0.0000002881
        0.0000176978  -0.0000488779   0.0000144335  -0.0002042815   0.0000680489
        0.0001088411  -0.0282256803  -0.1205042497  -0.2273302828   0.0194854295
       -0.0194592130  -0.0435781491  -0.0177415246  -0.0032206157  -0.0175443708
       -0.0008255178  -0.0031194120   0.0029937235  -0.0000437965   0.0001483984
       -0.0000737136  -0.0000169196   0.0000106817   0.0000070914  -0.0000031539
        0.0000119223  -0.0000460485  -0.0000052425   0.0000055183  -0.0000024443
        0.0000057518   0.0000016634   0.0000035258   0.0000098529   0.0000026126
       -0.0000148957   0.0000153586  -0.0000000612   0.0000010202   0.0001623593
        0.0000152049  -0.0000373843  -0.0001478655  -0.0001435506  -0.0002103134
        0.0000113988  -0.0000765720   0.0000266088  -0.0000079198  -0.0000022354
       -0.0000028126  -0.0000175122   0.0000218112   0.0000070207  -0.0000278125
        0.0000019110  -0.0001444684  -0.0000100921   0.0000229337   0.0000201200
       -0.0000087963   0.0000015086   0.0000029082   0.0000070202   0.0000078794
        0.0000046953   0.0000116551   0.0000061673  -0.0000022227   0.0000141339
        0.0000001535  -0.0000034926   0.0000113159  -0.0000059144  -0.0000010604
        0.0000031429   0.0000435689   0.0000031791  -0.0014057909  -0.0139474364
       -0.0179573998
       -0.2156712004   0.0295285399  -0.0999027566   0.5440991322  -0.1761254264
        0.1274490718  -0.2408407255   0.1123088900  -0.0169577299   0.0115674492
        0.0404723853   0.0675692356   0.0057398728   0.0000923494  -0.0032664627
       -0.0003757058  -0.0004118448  -0.0008451083   0.0004609925  -0.0000869326
        0.0001789744  -0.0002212154  -0.0000224871  -0.0000837514   0.0000668666
       -0.0002797579  -0.0000083344   0.0001538399   0.0002202964   0.0000885807
       -0.0000670398  -0.0004134181  -0.0000307096   0.0004232908   0.0004180773
        0.0001699543  -0.0001947020  -0.0001051683  -0.0000518343   0.0001402893
        0.0000312185   0.0000124070  -0.0000860041   0.0002087070  -0.0001130093
       -0.0001052776  -0.0002452362   0.0000577974  -0.0006692682   0.0014233191
        0.0006116677  -0.0508136810   0.0168376728  -0.0160189212  -0.0003686803
       -0.0000912268  -0.0000391427  -0.0001528055  -0.0003331715  -0.0000620243
       -0.0000233696   0.0000650770  -0.0000713091   0.0000214526  -0.0000029293
       -0.0000201571  -0.0000575531  -0.0000866501  -0.0000487495  -0.0000653928
        0.0000193413   0.0001691380   0.0000557517   0.0001030205   0.0000474264
        0.0000316267   0.0001120043   0.0000290365  -0.0002678377   0.0000396029
       -0.0000533341   0.0001565465   0.0000253078   0.0000308154  -0.0000645102
        0.0000264970   0.0000148253  -0.0000219192  -0.0000232895  -0.0000044578
        0.0000127712   0.0000323910   0.0000199385  -0.0000247604  -0.0000031864
       -0.0000124177   0.0000102081  -0.0000258996  -0.0000068257  -0.0000220053
        0.0000222740  -0.0000060887  -0.0000308086   0.0000256089   0.0000087446
       -0.0000055285   0.0000319619  -0.0000394407   0.0001359184  -0.0000317203
       -0.0000588524   0.0274409079  -0.0529880015  -0.0502388043  -0.0204733878
        0.0008845556  -0.0161000094  -0.0423062723   0.0121388103   0.0084022266
       -0.0203315798   0.0136230549   0.0003530426  -0.0004561884   0.0000021099
        0.0001268214   0.0000170817   0.0000466476  -0.0000034443   0.0000381793
        0.0000067080   0.0000275634   0.0000333691  -0.0000312131   0.0000215367
        0.0000331544   0.0000114395  -0.0000071921   0.0000035009  -0.0000295112
        0.0000279903  -0.0000234676   0.0000015849   0.0000019606  -0.0001090557
       -0.0000825074   0.0000436649   0.0002373241   0.0000098001  -0.0000353582
        0.0000356634   0.0000283426  -0.0000145380   0.0000458196  -0.0000111943
        0.0000227862   0.0000065021   0.0000250593   0.0000297230   0.0001095490
       -0.0000456379  -0.0001564812   0.0000230442   0.0000174134  -0.0000227486
        0.0000201459   0.0000046747  -0.0000057334   0.0000050134  -0.0000136669
       -0.0000000508  -0.0000042024   0.0000027374   0.0000054620   0.0000025616
       -0.0000002584   0.0000065564  -0.0000045375  -0.0000037866   0.0000095268
        0.0000079596  -0.0000243438   0.0000075526   0.0027228976   0.0026709858
       -0.0012582496
       -0.0127596443  -0.0709418032  -0.0424728541  -0.1761254264   0.3895777625
        0.2184994195   0.1541374884  -0.1565156176  -0.0173782492   0.0089325834
       -0.0328979668  -0.0349742662   0.0022533499   0.0013878129  -0.0045229599
        0.0003477519  -0.0004437865  -0.0000970726  -0.0004823273   0.0000124193
        0.0000926079   0.0001326086   0.0000395011   0.0001203615  -0.0000503372
        0.0002047211  -0.0000210131  -0.0001159233  -0.0001876983   0.0000093591
        0.0003146798  -0.0000722717   0.0001687179  -0.0000164627   0.0000404018
        0.0001305258  -0.0000097390  -0.0000062561   0.0001120280   0.0000021061
       -0.0000384521  -0.0000184524   0.0000230583  -0.0000311240   0.0001160968
       -0.0001416097   0.0000684245  -0.0000124287  -0.0000102967  -0.0001973123
       -0.0010466659   0.0163984319  -0.0069453997   0.0108761696   0.0000097684
       -0.0009513947  -0.0006607506   0.0003350586   0.0001813295   0.0001560545
        0.0000269960  -0.0000119868  -0.0000571427   0.0000025587   0.0000623393
        0.0000639544  -0.0000583126  -0.0000477597  -0.0000455099  -0.0002501765
        0.0001930682   0.0001447830  -0.0000463883  -0.0000082584  -0.0000035338
        0.0000291753  -0.0001761030  -0.0000566475  -0.0000107231  -0.0000152472
        0.0001451023  -0.0000036806   0.0000753355  -0.0000000601   0.0000226413
        0.0000400677   0.0000010803   0.0000030304  -0.0000164318   0.0000043116
        0.0000772910   0.0000247509  -0.0000023374  -0.0000069038  -0.0000486579
       -0.0000032848   0.0000307649   0.0000130583   0.0000036763   0.0000071798
        0.0000138699   0.0000031894   0.0000107456   0.0000090517   0.0000011658
       -0.0000150199  -0.0000282248   0.0000106081   0.0000369391   0.0000032453
        0.0000206858  -0.0220860008   0.0117721148  -0.0050615539   0.0138567489
        0.0001938345   0.0110327536   0.0115269078  -0.1368478408  -0.1289056311
        0.0014473604   0.0003824730   0.0000718083   0.0002434013   0.0002242893
       -0.0001298029  -0.0000193973  -0.0000136486   0.0000132718  -0.0000318277
        0.0000048651  -0.0000322452  -0.0000224462   0.0000255536  -0.0000043587
       -0.0000282851   0.0000235744   0.0000133018  -0.0000042614   0.0000179794
       -0.0000320660   0.0000104655   0.0000311680  -0.0000052550   0.0001175897
       -0.0000080569  -0.0000878683  -0.0000438428   0.0000207747  -0.0000114396
       -0.0000096702   0.0000089665  -0.0000034593  -0.0000084377   0.0000026936
       -0.0000051730  -0.0000008422  -0.0000023434   0.0000130625  -0.0001029314
       -0.0000507316  -0.0000145336  -0.0000136031   0.0000183595  -0.0000051182
       -0.0000192553   0.0000031741   0.0000028148  -0.0000152269   0.0000024044
        0.0000025466   0.0000016292  -0.0000000240  -0.0000035833  -0.0000027175
        0.0000082561  -0.0000025464  -0.0000071492   0.0000093893  -0.0000047891
        0.0000039104   0.0000401609  -0.0000049128   0.0021766454   0.0017672076
       -0.0061418916
       -0.1570962544  -0.0057006315  -0.1863252858   0.1274490718   0.2184994195
        0.5145437421   0.0389133891  -0.0532386034  -0.0846102485   0.0253428306
       -0.0083609648   0.0095969246  -0.0022775995  -0.0059311219  -0.0018236402
        0.0002911167   0.0004857598   0.0003688913   0.0000350344  -0.0001832607
        0.0000351554   0.0001162000   0.0000152491  -0.0000777269  -0.0000037164
       -0.0000268961  -0.0000037626   0.0000700810   0.0000644371  -0.0000008658
       -0.0002072057   0.0000647144  -0.0000703203  -0.0000416308  -0.0004083962
        0.0000697729   0.0000862090  -0.0000347530   0.0000701809  -0.0000509961
        0.0000363975   0.0000061972   0.0000219113  -0.0000609434   0.0000033215
        0.0000084542   0.0001239295   0.0001016929   0.0011934224  -0.0010918077
       -0.0004804115  -0.0184976789   0.0113925024  -0.0039823872  -0.0002154592
       -0.0009040447  -0.0011801041   0.0003159782  -0.0001664901   0.0002402329
        0.0000693359   0.0000303894  -0.0001197303   0.0000213665   0.0000625680
        0.0000504441  -0.0001131119  -0.0001652684  -0.0000984802  -0.0003463536
        0.0002771418   0.0003040931   0.0000196943   0.0000504268   0.0000007575
        0.0000198844  -0.0001035858   0.0000166250  -0.0000300482   0.0001077683
       -0.0001320122   0.0000746758   0.0000451899   0.0000543557  -0.0000163453
        0.0000218963   0.0000077851  -0.0000392270  -0.0000005000   0.0000026662
        0.0000385178   0.0000408244   0.0000230528  -0.0000187184  -0.0000327851
       -0.0000069730   0.0000449176  -0.0000056427  -0.0000050349   0.0000002962
        0.0000183386   0.0000127946  -0.0000015191   0.0000251666   0.0000121435
       -0.0000021754  -0.0000263481  -0.0000127517   0.0000622396  -0.0000024747
       -0.0000061976  -0.0068446055  -0.0322700578  -0.0480601052   0.0008792064
        0.0002226999   0.0018431541   0.0088245364  -0.1287156759  -0.2002315691
       -0.0166688471   0.0116425045   0.0013897425   0.0000284321   0.0000730563
        0.0000999989  -0.0000507945  -0.0000102665  -0.0000030267  -0.0000268688
        0.0000037023   0.0000162464  -0.0000474514   0.0000135674   0.0000062242
        0.0000006189  -0.0000090746   0.0000011824  -0.0000084048   0.0000097719
        0.0000145316   0.0000002723   0.0000322896   0.0000016932   0.0000141488
       -0.0000394694  -0.0000512938   0.0001727524   0.0000244379  -0.0001027876
        0.0000144253   0.0000244193  -0.0000082778   0.0000249524  -0.0000163022
        0.0000037582   0.0000003859  -0.0000048001   0.0000395655  -0.0000062931
       -0.0000941664  -0.0001215515  -0.0000041296   0.0000330602  -0.0000070673
       -0.0000121261  -0.0000024879  -0.0000063690  -0.0000063319  -0.0000086734
       -0.0000067140  -0.0000061850   0.0000013607  -0.0000055613   0.0000058926
        0.0000024521   0.0000026102  -0.0000092000  -0.0000056271   0.0000067167
       -0.0000024578   0.0000219870   0.0000011178  -0.0015085148  -0.0058463091
       -0.0014071153
       -0.0537478461   0.0025889946  -0.0438520470  -0.2408407255   0.1541374884
        0.0389133891   0.5626433291  -0.1935818657   0.1353754936  -0.0786803354
       -0.0029404653  -0.0296067425  -0.0117600197   0.0291539349   0.0208424241
        0.0012431269   0.0012074026   0.0022916695  -0.0016063784   0.0003892392
       -0.0000081806   0.0005081063  -0.0000636909   0.0002996428  -0.0001376399
        0.0003326537  -0.0000283265  -0.0000836094  -0.0002550504  -0.0001821922
        0.0003122773   0.0006249963   0.0000493716  -0.0011634908   0.0011308832
       -0.0005094383  -0.0001128671  -0.0001148185  -0.0002313569  -0.0001793702
        0.0000290646   0.0000004634   0.0002453673  -0.0004147562  -0.0001458384
        0.0001509199   0.0004953768   0.0000490851  -0.0028001046  -0.0026200074
        0.0018762401   0.0246312726  -0.0196054712  -0.0059409852  -0.0014630830
        0.0017205693  -0.0050011380   0.0002884558   0.0001860885   0.0001230331
        0.0002677412  -0.0004746942   0.0001422522  -0.0000556877   0.0000589648
        0.0001094655   0.0002318096  -0.0002481281   0.0000267510  -0.0005251208
       -0.0002933022  -0.0002010354  -0.0000855766   0.0002051819  -0.0000264295
        0.0000275483  -0.0001664174  -0.0000800494   0.0000271448  -0.0000156155
        0.0001690677  -0.0000277672   0.0000211972   0.0000098847   0.0000459504
       -0.0000049196  -0.0000043714  -0.0000273314   0.0000077536  -0.0000028877
        0.0000533814   0.0000435493  -0.0000321403   0.0000149443   0.0000258476
       -0.0000074567   0.0000432711   0.0000094613   0.0000073314   0.0000260881
       -0.0000020590   0.0000099984   0.0000185482  -0.0000052684   0.0000202671
        0.0000110901  -0.0000639552   0.0000225607  -0.0000949189   0.0000463704
       -0.0000134284  -0.0148010563   0.0210562518   0.0197115027  -0.0015334276
        0.0021240791  -0.0050496244  -0.0027135359   0.0030339873   0.0016145375
       -0.1778342540   0.0020441477  -0.1314809434  -0.0004418468  -0.0005652475
        0.0003164041  -0.0000423932  -0.0000531092   0.0000292053  -0.0000685007
       -0.0000083085  -0.0000536820  -0.0000460846   0.0000400292  -0.0000330711
       -0.0000893552   0.0001464516   0.0000160737  -0.0000072767   0.0000744700
        0.0000396475   0.0000417645   0.0000986841  -0.0000018358   0.0001321576
        0.0000883569   0.0000234810  -0.0000976413   0.0001287802  -0.0000961559
       -0.0000267530   0.0000035453  -0.0000211417  -0.0000481038   0.0000702392
       -0.0000744849   0.0000105588  -0.0000372348  -0.0000408293  -0.0000846418
       -0.0000571107   0.0000177287  -0.0000392076   0.0000128207  -0.0000095989
       -0.0000123532   0.0000049329   0.0000017568  -0.0000086331   0.0000050674
        0.0000039289  -0.0000094485   0.0000068635  -0.0000041052  -0.0000013252
        0.0000115702  -0.0000036370  -0.0000010175   0.0000062786  -0.0000056120
       -0.0000145575   0.0000262752  -0.0000308043   0.0003384326   0.0001936470
        0.0006669131
        0.0341168902   0.0160052740   0.0490117058   0.1123088900  -0.1565156176
       -0.0532386034  -0.1935818657   0.3771924963   0.1905511049   0.0318940295
       -0.1425424538  -0.0999255130   0.0220395142  -0.0271972726  -0.0197505615
       -0.0029301232  -0.0013537814  -0.0023268914  -0.0000168748  -0.0002190648
        0.0000636289  -0.0002615110   0.0000150087   0.0001284628  -0.0000098515
       -0.0002204511  -0.0000700481   0.0000457052   0.0002701142   0.0001658289
       -0.0004330027  -0.0007001602   0.0001302180   0.0008475235  -0.0003098815
        0.0005370222  -0.0000183208  -0.0001282794   0.0000319111   0.0001815314
        0.0000699760   0.0000055631  -0.0001205716   0.0003122281  -0.0000391978
        0.0001962600  -0.0000908374   0.0000947354   0.0022541270   0.0023033726
       -0.0006031703  -0.0475269120   0.0096085294  -0.0287755622   0.0020543475
        0.0046106312  -0.0013030051  -0.0006648063   0.0001183192   0.0003135848
        0.0001814733   0.0000556820   0.0002582460   0.0000886648  -0.0000495642
       -0.0001654320   0.0002354647  -0.0002126961   0.0001187633   0.0005634465
       -0.0005882475  -0.0005912500  -0.0002768088   0.0000612499   0.0001125348
        0.0000330423   0.0000349105   0.0000042497  -0.0001609113   0.0000099711
        0.0000053017   0.0001265802   0.0001622944   0.0000390412  -0.0000947090
        0.0000634582   0.0000183767   0.0000627955  -0.0000988356   0.0000011064
        0.0000933812   0.0000690197   0.0000007165  -0.0001213827  -0.0001065968
       -0.0000064519   0.0000070004  -0.0000201941   0.0000027320  -0.0000386197
        0.0000358087  -0.0000200648  -0.0000629884  -0.0000152146  -0.0000072715
       -0.0000522519   0.0000459433  -0.0000551564   0.0003040209  -0.0001137168
       -0.0000802489   0.0197885445  -0.0332134595  -0.0219981242   0.0018552885
        0.0042140322  -0.0025309944   0.0157650897  -0.0123861484  -0.0046930214
        0.0012864533  -0.0393254740  -0.0053061163  -0.0002211334   0.0004906998
        0.0000766837   0.0000375576   0.0000582559   0.0000368799   0.0000102059
        0.0000541129  -0.0000294031   0.0000451285  -0.0000007690   0.0000477421
        0.0000530647  -0.0001090837  -0.0000236998  -0.0000091238  -0.0000502006
        0.0000085522  -0.0000377621  -0.0000743705   0.0000044109  -0.0002834277
       -0.0001276574  -0.0000030821   0.0001279435   0.0000584851  -0.0000644215
        0.0000790192   0.0000847041   0.0000752291  -0.0000027383   0.0000695668
        0.0000169625  -0.0000217718   0.0000242045   0.0000011618   0.0000299961
        0.0000200411  -0.0001607607   0.0000215099   0.0000002746  -0.0000082233
        0.0000020984  -0.0000211246  -0.0000022635  -0.0000213130  -0.0000077223
       -0.0000004449   0.0000064171  -0.0000077608   0.0000119836  -0.0000216436
        0.0000089083   0.0000075467  -0.0000056208   0.0000282716   0.0000078094
        0.0000365299   0.0000004221   0.0000222963   0.0002165107  -0.0003496299
       -0.0001331091
       -0.0026116588   0.0219374307   0.0291274973  -0.0169577299  -0.0173782492
       -0.0846102485   0.1353754936   0.1905511049   0.4977177099   0.0216046169
       -0.1339664900  -0.2115404932   0.0111738498  -0.0114775677  -0.0039615683
       -0.0008365834   0.0004883181  -0.0004491155   0.0002679365   0.0001908264
       -0.0005801607  -0.0000748064  -0.0001179863  -0.0001509104   0.0000448668
       -0.0001502841   0.0000578237   0.0001375191   0.0001355269   0.0000135703
       -0.0006278836   0.0000935271   0.0000865546   0.0001789633  -0.0001490460
        0.0001219850   0.0000458338   0.0000668119  -0.0000743661  -0.0001228064
        0.0000062327   0.0000067748  -0.0000027626  -0.0000984913  -0.0000891915
        0.0001277315   0.0001729713   0.0001088113  -0.0002406213   0.0015694359
        0.0007774272  -0.0431658029  -0.0044723265  -0.0449491196  -0.0045238198
       -0.0012473763   0.0017885021  -0.0006791117  -0.0012858666  -0.0014118892
       -0.0004156857  -0.0001008446   0.0000633448   0.0000475787  -0.0000464722
       -0.0000954540  -0.0000236564   0.0001163385   0.0001540088   0.0005417763
        0.0000014691   0.0002333753  -0.0002708292  -0.0000436655   0.0002137920
        0.0001116682   0.0001368233  -0.0000147441  -0.0000935080  -0.0000420082
       -0.0000823111   0.0001245979   0.0001133687   0.0000587955  -0.0000216173
        0.0000336303   0.0000190779   0.0000540845  -0.0000541776   0.0000154573
        0.0000281868   0.0000325493   0.0000109327  -0.0000950095  -0.0000770435
        0.0000033949  -0.0000040904   0.0000127676   0.0000065525  -0.0000163337
       -0.0000071851  -0.0000123459  -0.0000161213  -0.0000353583   0.0000019571
       -0.0000550472   0.0000298503  -0.0000006691   0.0003078733  -0.0000640204
       -0.0001080553   0.0179742003  -0.0204573728  -0.0170230106  -0.0052063624
       -0.0025612070  -0.0001179665   0.0186497917  -0.0154014956  -0.0043305601
       -0.1319912331  -0.0058649564  -0.1610204978   0.0007406752  -0.0000782951
        0.0000071125   0.0000180516  -0.0000387467  -0.0000054705  -0.0000045376
       -0.0000211176   0.0000325219  -0.0000076226   0.0000152440  -0.0000090309
       -0.0000364604  -0.0000060370  -0.0000177952  -0.0000245657   0.0000220416
        0.0000244714  -0.0000007237  -0.0000037526   0.0000059881  -0.0002471571
       -0.0002313506  -0.0000640254   0.0002048511  -0.0000010844  -0.0001174983
        0.0000324694  -0.0000473922  -0.0000629116   0.0000293485   0.0000007574
        0.0000369388  -0.0000234099   0.0000499328   0.0000431224   0.0000149452
       -0.0000485070  -0.0000955925  -0.0000065509  -0.0000011638  -0.0000028360
       -0.0000037760  -0.0000302851  -0.0000053549  -0.0000372436  -0.0000099732
       -0.0000020198  -0.0000130137  -0.0000216706   0.0000059441  -0.0000323558
        0.0000049210   0.0000022698  -0.0000058309   0.0000236499   0.0000024552
        0.0000140952  -0.0000133949  -0.0000060676   0.0006453238  -0.0001532676
        0.0002631111
       -0.0068484511  -0.0131865480  -0.0188920605   0.0115674492   0.0089325834
        0.0253428306  -0.0786803354   0.0318940295   0.0216046169   0.5256625042
       -0.1427066130   0.1257667255  -0.1855133083   0.0793296830   0.0037396648
       -0.0337353779   0.0122063464  -0.0044126754   0.0014686778   0.0011232358
        0.0004533360  -0.0011341271  -0.0000027528   0.0001457731   0.0002519667
       -0.0005637254  -0.0000904183  -0.0008158974   0.0018495016   0.0002015497
       -0.0044780682  -0.0031488382  -0.0002293624   0.0024953577  -0.0011820393
        0.0005016301  -0.0007155743  -0.0000877687  -0.0003989350   0.0006200075
        0.0000376018   0.0000716216  -0.0006228299   0.0012427216  -0.0004940325
        0.0008456758  -0.0027169381  -0.0000329897  -0.0005158128   0.0154807377
        0.0059259625  -0.1785974011  -0.0110288168  -0.1299289124   0.0006677088
       -0.0072104344  -0.0112731343   0.0013602712   0.0022742985   0.0020418487
        0.0001955711  -0.0006639984  -0.0004356098  -0.0000624061   0.0002538420
        0.0003469713  -0.0005259816  -0.0005557818  -0.0005515499   0.0006147629
        0.0027769055   0.0021164525  -0.0011111601  -0.0003062849  -0.0006952542
       -0.0000194042  -0.0002794262   0.0005702844   0.0005772521  -0.0005186550
        0.0004698448  -0.0000282528   0.0003764211   0.0000240230  -0.0003855025
        0.0000860303  -0.0000445694  -0.0000105308  -0.0003488252  -0.0001321410
       -0.0000206048   0.0001435242  -0.0000990234  -0.0004092549  -0.0003111551
        0.0000019302  -0.0000877312   0.0000477385  -0.0000709805  -0.0000649892
        0.0000266476  -0.0000545581  -0.0000238942   0.0001232766  -0.0000862432
       -0.0002344969   0.0003408487  -0.0002806060   0.0004449876  -0.0002567916
        0.0002058772  -0.0495664384   0.0317653906  -0.0008946188   0.0006482683
       -0.0005884955  -0.0003842160  -0.0012445846   0.0052990578  -0.0015619457
       -0.0007368709  -0.0126116441  -0.0184450539  -0.0000378166  -0.0000964818
       -0.0001327134   0.0003698087   0.0003569075   0.0000557854   0.0004327172
        0.0000895213  -0.0000291346   0.0000228216  -0.0003190412   0.0000224463
        0.0004301868  -0.0003533328  -0.0000889231   0.0000502145  -0.0004308433
        0.0001181053  -0.0002026786  -0.0005074271  -0.0000151099  -0.0002148223
       -0.0007376508   0.0002797540  -0.0003736951  -0.0001992587  -0.0000311343
        0.0001428499   0.0001961480   0.0001655568  -0.0000390943   0.0001141960
        0.0001116713  -0.0000400872   0.0000066795   0.0003258657  -0.0005400318
        0.0001924958  -0.0002323906  -0.0000163322   0.0000698925   0.0000103624
       -0.0000364686  -0.0000116904   0.0000114811  -0.0000321439  -0.0000326289