$hessian                                                                        
        0.5039553380  -0.0267335464  -0.0159639580  -0.1113970627  -0.0413657366
       -0.0516884673  -0.0246413254  -0.0146253012  -0.0206951346  -0.0026475696
        0.0028141114  -0.0002176117  -0.0015695181  -0.0007214166  -0.0008897174
        0.0001454784   0.0004671670  -0.0001934831   0.0000206078  -0.0001987019
        0.0000549167   0.0000194336   0.0000030220   0.0000092490  -0.0000367443
       -0.0000232637   0.0000042636  -0.0000123998   0.0000681233  -0.0000003597
       -0.0002580182  -0.0000197405   0.0000204280  -0.0001474111   0.0000349666
       -0.0000087425  -0.0000260199  -0.0000555796   0.0000182758  -0.0000305371
        0.0000502252  -0.0000116017   0.0000314979  -0.0000392287   0.0000255443
        0.0001027047   0.0001562414   0.0000123254   0.0002275960  -0.0005384400
        0.0000695228  -0.0008382239  -0.0004572704  -0.0005271402   0.0004870719
        0.0034308223   0.0008823152   0.0065151529   0.0020055950   0.0027189870
       -0.0001884493   0.0004939704   0.0014676485  -0.0000126663   0.0003379163
        0.0002795126   0.0001107866   0.0000700636  -0.0000537848   0.0002182277
       -0.0001176521   0.0000304737  -0.0001598363   0.0000693504  -0.0000081634
        0.0000033506  -0.0000923485   0.0000016130   0.0000107150   0.0000487687
        0.0000124227   0.0000137657   0.0000013907   0.0000013293   0.0000093452
        0.0000320631   0.0000083089  -0.0000125315  -0.0000443331  -0.0000122565
       -0.0000409366   0.0000447057   0.0000090828  -0.0000300026   0.0000111558
        0.0000060400   0.0000018012   0.0000963819   0.0000158205  -0.0000095068
       -0.0000783654  -0.0000043797  -0.0000325241   0.0001633293   0.0001571183
        0.0000172251  -0.0001820270  -0.0001599793  -0.0000077465  -0.0000062683
       -0.0000129186  -0.0000205141   0.0000140242   0.0000137536  -0.0000069540
       -0.0000228834  -0.0000037183  -0.0000351251   0.0000084366   0.0000199625
       -0.0000312100   0.0000098625   0.0000048460   0.0000665854   0.0000719827
       -0.0000349272   0.0000010991  -0.0000566073   0.0000075987   0.0000677000
        0.0000179119  -0.0000304822  -0.0000441770   0.0000506580   0.0000082873
       -0.0000133620  -0.0000490321   0.0000179818  -0.0000731041   0.0001238646
        0.0000049027   0.0001327975  -0.0000223727  -0.0000538076  -0.0001025602
       -0.0000974556   0.0000555576  -0.0000040759   0.0000528153  -0.0000058470
       -0.0000494698  -0.0000284072   0.0000271909   0.0000582798  -0.0000429648
       -0.0000156863   0.0000083731   0.0000553345  -0.0000102463   0.0000453143
       -0.0000996266   0.0000034184  -0.0000104591   0.0000163454   0.0000032943
       -0.0000207962   0.0000045703   0.0000025518   0.0000399169   0.0000088194
        0.0000018348   0.0000885762  -0.0001045968  -0.0000135271   0.0000297821
        0.0000524079  -0.0000091041   0.0000421471  -0.0000972733  -0.0000074987
        0.0001471196   0.0000139137   0.0004686160  -0.0001485871  -0.0000287450
       -0.0000119552  -0.1263640532  -0.0865477809   0.0737563576  -0.1174740685
        0.0842161716  -0.0742027911  -0.1270578655   0.0785678719   0.0846642591
        0.0007424204  -0.0016478879  -0.0005822602  -0.0000400699   0.0000813284
       -0.0000281401  -0.0000151067  -0.0000068021  -0.0000023064  -0.0000153198
       -0.0000028811  -0.0000045493  -0.0000281125  -0.0000040883  -0.0000031163
       -0.0000127309   0.0000140857  -0.0000051162  -0.0000149754   0.0000123060
       -0.0000088757  -0.0000110805   0.0000355575  -0.0000137006  -0.0000921323
       -0.0000903630  -0.0000176817   0.0000314924  -0.0002562275   0.0002530483
        0.0002619216   0.0004337648   0.0005600108  -0.0000640468   0.0001488921
       -0.0000465049   0.0000082772  -0.0000081468  -0.0000281463  -0.0000024335
        0.0000006570  -0.0000009379  -0.0000047518  -0.0000000167  -0.0000015268
        0.0000007480  -0.0000000519   0.0000001901   0.0000011978   0.0000020423
        0.0000000816   0.0000021099  -0.0000011725  -0.0000057177   0.0000057237
        0.0000057135   0.0000065052  -0.0000000095   0.0000032356   0.0000000354
        0.0000047077  -0.0000039832  -0.0000012292   0.0000002665   0.0000021118
        0.0000002278   0.0000024902   0.0000020108  -0.0000008760  -0.0000039044
       -0.0000007182   0.0000014633  -0.0000033812   0.0000018253   0.0000008140
        0.0000005537  -0.0000025725  -0.0000010608  -0.0000012806  -0.0000007418
       -0.0000012991   0.0000040759   0.0000004489  -0.0000042804  -0.0000025301
       -0.0000030828   0.0000019682   0.0000009652  -0.0000019965  -0.0000012800
       -0.0000017098   0.0000257810   0.0000001538  -0.0000286351   0.0000183128
       -0.0000079013   0.0000225052  -0.0000102064  -0.0000244013   0.0000649790
        0.0000034724  -0.0000429447   0.0000288671   0.0000153499  -0.0000184774
        0.0000965312   0.0000466483   0.0000095100
       -0.0267335464   0.4944131672   0.0019053962  -0.0451972777  -0.1056717712
       -0.0538096227  -0.0004739501   0.0029042764  -0.0001257526   0.0021451071
        0.0037599580  -0.0034447209   0.0004287861   0.0000290942   0.0002566003
        0.0000479285   0.0000061696   0.0000496116   0.0000670671  -0.0000748172
        0.0000319904  -0.0000373886   0.0000062195   0.0000003597  -0.0000035333
        0.0000015714  -0.0000014939  -0.0000198470   0.0000065428  -0.0000111271
        0.0000259926  -0.0000378166  -0.0000012232  -0.0000069535   0.0000480350
       -0.0000081274  -0.0000075448  -0.0000273371  -0.0000002470   0.0000111073
        0.0000117132  -0.0000047177  -0.0000066159   0.0000283314   0.0000029549
       -0.0000389612  -0.0000071220  -0.0000041631   0.0000262692  -0.0000304478
        0.0000472952  -0.0005372875  -0.0001941578  -0.0001815219   0.0037553424
        0.0003848611  -0.0043604378  -0.0101221324  -0.0166794163  -0.0183820615
       -0.0010380357  -0.0010791723   0.0008132742  -0.0003115453  -0.0002202902
       -0.0002864954  -0.0002047449   0.0000035346  -0.0000497240   0.0000246906
       -0.0000763008   0.0000406998   0.0000452771  -0.0000046257   0.0000512046
       -0.0000127573   0.0000210679  -0.0000129570  -0.0000155812   0.0000014429
        0.0000026606   0.0000010068   0.0000007769   0.0000039714  -0.0000053817
       -0.0000013985   0.0000018224  -0.0000090096   0.0000168385   0.0000069128
        0.0000113253  -0.0000062587   0.0000003521   0.0000225412   0.0000324390
        0.0000073325  -0.0000212211  -0.0000026624   0.0000074639   0.0000089123
        0.0000158946   0.0000119358  -0.0000061684   0.0001282680   0.0001065341
       -0.0000033730  -0.0001477865  -0.0001163032   0.0000024758  -0.0000041910
       -0.0000072814  -0.0000120648   0.0000036435   0.0000047333  -0.0000087364
       -0.0000081000   0.0000100108  -0.0000333421   0.0000080799   0.0000197107
       -0.0000323483   0.0000052642   0.0000069901   0.0000648538   0.0000742516
       -0.0000393630  -0.0000015612  -0.0000402560   0.0000067250   0.0000514110
        0.0000155507  -0.0000239340  -0.0000316492   0.0000381383   0.0000044407
       -0.0000100122  -0.0000314256   0.0000138564  -0.0000631774   0.0001107878
        0.0000027459   0.0001186456  -0.0000234620  -0.0000451744  -0.0000877149
       -0.0000827459   0.0000491652  -0.0000038088   0.0000345886  -0.0000024001
       -0.0000364913  -0.0000218662   0.0000201095   0.0000454325  -0.0000339135
       -0.0000104226   0.0000051333   0.0000388171  -0.0000087794   0.0000437930
       -0.0000945704   0.0000033008  -0.0000181307   0.0000100181  -0.0000025753
       -0.0000080279   0.0000060862   0.0000072060   0.0000148553  -0.0000035029
        0.0000049166   0.0000458915  -0.0000346986   0.0000297899  -0.0000214361
       -0.0000492988  -0.0000285073   0.0000377297  -0.0000868154  -0.0000448797
        0.0001134198   0.0000769058  -0.0001093058  -0.0000285085   0.0002419381
        0.0000187033  -0.0866682248  -0.1293777678   0.0728158746   0.0862109243
       -0.1312783935   0.0807044673   0.0786367821  -0.1151028476  -0.0781411152
        0.0006314065  -0.0005374393   0.0022725600  -0.0000310382   0.0000381004
       -0.0000172278  -0.0000034440   0.0000062134  -0.0000014709  -0.0000070442
        0.0000053551  -0.0000027907  -0.0000058066   0.0000000132  -0.0000007408
        0.0000034443   0.0000081027  -0.0000014755   0.0000074196   0.0000014107
       -0.0000011077  -0.0000083953   0.0000170966  -0.0000042912  -0.0000291360
        0.0000252372  -0.0000251941  -0.0002184923  -0.0006019093   0.0008378061
       -0.0006273190  -0.0007184854  -0.0006898133   0.0000459034  -0.0000421084
       -0.0000108606  -0.0000006130  -0.0000291819  -0.0000373156  -0.0000038834
        0.0000034648  -0.0000066246  -0.0000023824   0.0000022087  -0.0000021712
        0.0000051346  -0.0000038073  -0.0000023409   0.0000054084   0.0000015392
       -0.0000010445   0.0000042091   0.0000023541  -0.0000022328   0.0000006309
        0.0000038713   0.0000037728   0.0000040515   0.0000034796   0.0000004148
        0.0000060783  -0.0000026404  -0.0000022124   0.0000014111   0.0000007408
       -0.0000000206  -0.0000009201   0.0000007263   0.0000012622  -0.0000018699
       -0.0000004489   0.0000008033  -0.0000014824   0.0000007312   0.0000003995
       -0.0000019343  -0.0000003236  -0.0000004567   0.0000005509  -0.0000006829
       -0.0000017434   0.0000056205   0.0000000504  -0.0000043142  -0.0000004522
       -0.0000036367  -0.0000019534  -0.0000035265  -0.0000023011  -0.0000046812
        0.0000060560   0.0000163525  -0.0000018465  -0.0000319628   0.0000228791
       -0.0000287703   0.0000542730  -0.0000470762  -0.0000216499   0.0000476618
        0.0000561895   0.0000233422   0.0000200141  -0.0000516548  -0.0000069532
       -0.0000041814  -0.0001234565  -0.0000657408
       -0.0159639580   0.0019053962   0.4896256539  -0.0568683673  -0.0556448342
       -0.1253999372  -0.0082533671  -0.0040660179  -0.0038616134  -0.0008962847
       -0.0033108332   0.0044022985  -0.0004382005  -0.0000439834  -0.0002558524
        0.0000148229   0.0000975770  -0.0000512008   0.0000294535  -0.0000625005
        0.0000244494  -0.0000259157  -0.0000006497  -0.0000056163  -0.0000217826
        0.0000298015  -0.0000014598  -0.0000356708  -0.0000450071   0.0000047808
       -0.0000327042   0.0000305886  -0.0000039176   0.0000078517  -0.0000424050
       -0.0000045331  -0.0000229124   0.0000535805  -0.0000088344  -0.0000462801
       -0.0000161405  -0.0000005273  -0.0000014262  -0.0000430102  -0.0000047799
        0.0000698176   0.0000605260  -0.0000358578   0.0000357083  -0.0000907086
       -0.0000146295  -0.0005201021   0.0000511219  -0.0002517415   0.0012320266
       -0.0047331927   0.0024451991  -0.0080812321  -0.0146068020  -0.0142922551
       -0.0004450900   0.0011636288  -0.0011454194   0.0003288929  -0.0001932973
       -0.0000288826  -0.0001189915  -0.0000329206  -0.0001369319   0.0000356989
       -0.0000519087   0.0000171682   0.0000592410   0.0000321932   0.0000254876
       -0.0000236729   0.0000351377   0.0000143505  -0.0000151564   0.0000201012
       -0.0000020334   0.0000085395  -0.0000112930  -0.0000006802  -0.0000100863
       -0.0000085984  -0.0000005005  -0.0000109676   0.0000317027   0.0000084837
        0.0000220890  -0.0000221676  -0.0000080600   0.0000330235   0.0000482089
        0.0000038510  -0.0000191334   0.0000005137   0.0000309590  -0.0000347047
        0.0000056756   0.0000000818   0.0000505864   0.0002035663   0.0001223656
       -0.0000244951  -0.0002344753  -0.0001756802  -0.0000196890  -0.0000059279
       -0.0000008003  -0.0000053552   0.0000166550   0.0000204315  -0.0000086887
       -0.0000061244   0.0000121837  -0.0000308280   0.0000080857   0.0000220868
       -0.0000286916   0.0000055402   0.0000008374   0.0000644823   0.0000752367
       -0.0000334904  -0.0000042182  -0.0000419913   0.0000050279   0.0000475596
        0.0000182553  -0.0000231558  -0.0000236820   0.0000414415   0.0000020835
       -0.0000051937  -0.0000343962   0.0000130068  -0.0000568959   0.0001059422
        0.0000037696   0.0001140027  -0.0000202206  -0.0000465481  -0.0000866617
       -0.0000835515   0.0000446577   0.0000008162   0.0000346751  -0.0000021180
       -0.0000292524  -0.0000262598   0.0000161350   0.0000399797  -0.0000359049
       -0.0000080654   0.0000019558   0.0000420215  -0.0000066872   0.0000422506
       -0.0000983477   0.0000049494  -0.0000311515   0.0000089782  -0.0000053396
       -0.0000122861  -0.0000002598  -0.0000003017   0.0000185256  -0.0000040721
        0.0000201456   0.0000557078  -0.0000271861  -0.0000059758  -0.0000839619
       -0.0000767506  -0.0000303074  -0.0000331315   0.0001048535  -0.0000680083
       -0.0004413636   0.0002039658  -0.0002147511  -0.0000030530  -0.0000036085
       -0.0000834969   0.0774598530   0.0758529648  -0.1025300528  -0.0737202333
        0.0795703007  -0.1154600072   0.0851787864  -0.0777177106  -0.1306968764
        0.0016892086   0.0013346385  -0.0005892101  -0.0000011982   0.0000383539
       -0.0000274917  -0.0000071653  -0.0000019388  -0.0000004302  -0.0000057347
        0.0000000366   0.0000014824  -0.0000076904   0.0000002956   0.0000005640
       -0.0000056069   0.0000067510   0.0000009339  -0.0000120695   0.0000052464
        0.0000023843  -0.0000050500   0.0000102961  -0.0000000506  -0.0000470573
       -0.0000380423   0.0000433860   0.0002485513   0.0007340481  -0.0007257589
       -0.0004537158  -0.0004512789  -0.0006556802   0.0000862526  -0.0001019005
       -0.0000659935   0.0000788085  -0.0000071874  -0.0000256164  -0.0000042019
        0.0000057920   0.0000002346  -0.0000015380   0.0000020525  -0.0000004528
        0.0000028595  -0.0000021358  -0.0000005979   0.0000060624  -0.0000008737
       -0.0000005996   0.0000057293  -0.0000018066   0.0000031891   0.0000064239
        0.0000032890   0.0000037675  -0.0000003421   0.0000034798   0.0000004995
        0.0000076578  -0.0000023901  -0.0000025588   0.0000020159  -0.0000016839
        0.0000007068  -0.0000016718  -0.0000012405   0.0000020984  -0.0000040079
        0.0000005925   0.0000016766  -0.0000037586   0.0000009464   0.0000014997
       -0.0000024647   0.0000016415  -0.0000006878   0.0000015977   0.0000022769
       -0.0000029202   0.0000075185  -0.0000012725  -0.0000045280  -0.0000022423
       -0.0000031886  -0.0000002362  -0.0000038477  -0.0000034683  -0.0000024567
        0.0000031168   0.0000238544   0.0000016768  -0.0000312224  -0.0000041267
       -0.0000074059   0.0000026314  -0.0000101019  -0.0000018007  -0.0000190548
        0.0000514990  -0.0000115049  -0.0000126891   0.0000010278   0.0000458151
        0.0000670626  -0.0000086598   0.0000325492
       -0.1113970627  -0.0451972777  -0.0568683673   0.6312347358  -0.0725909569
        0.0730023906  -0.3121381288   0.0796150141  -0.0042355696  -0.0438782657
       -0.0486620058  -0.0570312592   0.0019609317  -0.0012944915  -0.0007716743
       -0.0010638808  -0.0006942355  -0.0009972609  -0.0000392772   0.0003272700
       -0.0001261735   0.0000107322  -0.0000562107   0.0002194850   0.0000188235
       -0.0001645155  -0.0000142694   0.0000889704   0.0002890598   0.0000563505
       -0.0000238602  -0.0004268303   0.0001649109  -0.0000815518   0.0004301202
        0.0001025506  -0.0000406189  -0.0004600919   0.0000555673   0.0003374571
        0.0002538937  -0.0000357709   0.0000302101   0.0002159017   0.0000765667
        0.0002915238  -0.0005508859   0.0000643997  -0.0004201629   0.0004669855
        0.0003170261  -0.0396411843   0.0284622946   0.0155051154   0.0541413373
        0.0041046667   0.0199697011  -0.1176202014   0.0422374192   0.0177173041
       -0.0208163148   0.0229820628   0.0136140982  -0.0005193215   0.0017337322
       -0.0009948328  -0.0008217870  -0.0007692903  -0.0008753493   0.0004781151
       -0.0000852404  -0.0000263382  -0.0003109246   0.0001658197   0.0001871601
        0.0000928381  -0.0001606668   0.0000431089   0.0000086432  -0.0000666085
        0.0000017035  -0.0000050394   0.0000369571  -0.0000001041   0.0000060794
        0.0000122275  -0.0000034040   0.0000370832  -0.0000445231  -0.0000269754
       -0.0000898909   0.0000273716   0.0000004108  -0.0000250756  -0.0000604806
        0.0000107142   0.0000080676  -0.0000478065  -0.0001125796   0.0000997865
        0.0000307342   0.0000292127  -0.0001810643  -0.0002834049  -0.0000924681
        0.0000655470   0.0003476621   0.0002281555   0.0001253284   0.0000015783
       -0.0000272799  -0.0000366119  -0.0000531454  -0.0000660253   0.0000126185
        0.0000011138   0.0000021588  -0.0000488300   0.0000089697  -0.0000090674
       -0.0000588239   0.0000159747   0.0000609147   0.0000513980   0.0000534207
       -0.0000956989   0.0000048266   0.0000135358   0.0000222944   0.0000058536
        0.0000020842  -0.0000077691  -0.0000449321  -0.0000187052   0.0000081355
        0.0000009626   0.0000371852  -0.0000194435  -0.0000644917   0.0000422574
        0.0000004409   0.0000708720  -0.0000147798  -0.0000110611  -0.0000273579
       -0.0000020687   0.0000603775  -0.0000054852  -0.0000323497  -0.0000165201
       -0.0000394052   0.0000160056   0.0000313287   0.0000100719  -0.0000043373
       -0.0000044584   0.0000019479  -0.0000134331  -0.0000188549   0.0000743112
       -0.0000721482   0.0000091851   0.0000685157   0.0000005765  -0.0000026762
       -0.0000074024   0.0000178386   0.0000280704  -0.0000514816   0.0000056445
       -0.0000696617  -0.0000780650   0.0000571470  -0.0000046279   0.0002386992
        0.0001932327   0.0000623066  -0.0009216341  -0.0003368749  -0.0013984640
       -0.0021876956  -0.0006271890   0.0009931595   0.0001258365   0.0000617456
        0.0005151029  -0.0154622724  -0.0145024723  -0.0120833069  -0.0151142889
       -0.0082364481  -0.0143823328   0.0090431084   0.0077874203   0.0098353948
       -0.0146135024   0.0056553031   0.0005536215  -0.0000603363   0.0000482909
       -0.0001209187  -0.0000055689   0.0000405824  -0.0000008485   0.0000294343
        0.0000051723  -0.0000509847   0.0000154585  -0.0000175020   0.0000179685
        0.0000323842  -0.0000032778  -0.0000123953   0.0000363821  -0.0000385963
       -0.0000244510  -0.0000065464  -0.0000602421   0.0000262376  -0.0001035865
        0.0005057401  -0.0002664568  -0.0001860809   0.0004823615   0.0004694646
       -0.0009840532  -0.0014215778  -0.0036378532   0.0001501280   0.0000752196
        0.0005930392  -0.0000878276   0.0000168522   0.0000033201   0.0000040690
       -0.0000184604  -0.0000050580   0.0000047220   0.0000003475   0.0000038944
        0.0000008806   0.0000014181   0.0000045989  -0.0000090791   0.0000044287
        0.0000038460  -0.0000093299   0.0000098173  -0.0000013810  -0.0000148457
       -0.0000050706  -0.0000064711   0.0000034255  -0.0000061288  -0.0000046037
       -0.0000066131  -0.0000026157   0.0000062377  -0.0000040786   0.0000064154
       -0.0000007072   0.0000057896   0.0000015550  -0.0000027049   0.0000066241
       -0.0000068671  -0.0000003532   0.0000072135   0.0000045482  -0.0000024709
        0.0000073462  -0.0000006953   0.0000015851  -0.0000027818  -0.0000057445
        0.0000079172  -0.0000054834   0.0000084724   0.0000046521   0.0000072822
        0.0000058147   0.0000059111   0.0000067050   0.0000032737  -0.0000001521
        0.0000176054  -0.0000569227   0.0000053425   0.0000302649  -0.0000176197
        0.0000246666  -0.0001783830   0.0000695627   0.0000167110   0.0001366460
        0.0000147845  -0.0000666921   0.0000333597  -0.0000664982   0.0000408223
        0.0002595342   0.0002424100  -0.0001504911
       -0.0413657366  -0.1056717712  -0.0556448342  -0.0725909569   0.4186527255
        0.2229590886   0.0227021355  -0.0806333737  -0.0251108851  -0.0059003562
        0.0277310388   0.0269151082  -0.0032649723   0.0015092601  -0.0060687998
        0.0002241599  -0.0000444336  -0.0004552560   0.0000653365   0.0000353931
        0.0000251760  -0.0000376692   0.0000462721  -0.0000426366   0.0000023062
        0.0001454481  -0.0000109686  -0.0000514590  -0.0002682302   0.0001034802
        0.0000807674   0.0003809644   0.0001055969  -0.0000386368  -0.0002299525
        0.0000697383  -0.0000026857   0.0003319678   0.0000123622  -0.0001227982
       -0.0001839977   0.0000069373  -0.0000436961  -0.0000422168  -0.0000079682
        0.0000242134  -0.0001164886   0.0001675355  -0.0007089892   0.0001590588
       -0.0006352693   0.0290084205  -0.0191615496  -0.0050276395  -0.0356746997
       -0.0317356118  -0.0402572764   0.0904113761  -0.1837199508  -0.0912884932
        0.0145913637  -0.0065451128  -0.0033660737  -0.0024271705  -0.0017517180
       -0.0006673476   0.0005181391  -0.0002402271   0.0001926126  -0.0005383131
        0.0001964579   0.0000131707   0.0002340108   0.0000281206  -0.0000218526
        0.0000085683   0.0000205724  -0.0000249810   0.0000017948   0.0000091855
       -0.0000131392   0.0000190331  -0.0000259374  -0.0000043687  -0.0000165155
       -0.0000249489   0.0000019024   0.0000043512   0.0000085945   0.0000046971
        0.0000342425  -0.0000355823  -0.0000288822  -0.0000309253   0.0000061661
       -0.0000556914   0.0001070550   0.0000635751   0.0001412194  -0.0002579897
       -0.0000999204  -0.0000727893   0.0003185701   0.0003751123   0.0000687083
       -0.0000591682  -0.0004636199  -0.0002665736  -0.0001050249  -0.0000246241
        0.0000159499   0.0000464208   0.0000676785   0.0000696768  -0.0000324161
        0.0000478063   0.0000412805   0.0000341976  -0.0000051103   0.0000049234
        0.0000082763  -0.0000076806  -0.0000173080  -0.0000190700  -0.0000072853
        0.0000133899  -0.0000252222   0.0000615000  -0.0000140149  -0.0000773761
        0.0000021316   0.0000333358   0.0000820877  -0.0000405024  -0.0000112943
        0.0000386989   0.0000574042  -0.0000277231   0.0000620199  -0.0000836363
        0.0000015179  -0.0000724688   0.0000100886   0.0000251971   0.0000683672
        0.0000575831  -0.0000559216   0.0000268048  -0.0000729891   0.0000187591
        0.0000824041   0.0000122393  -0.0000472881  -0.0000726776   0.0000281130
        0.0000196325  -0.0000342991  -0.0000519405   0.0000322394  -0.0000247346
        0.0000216327   0.0000037339  -0.0000977627  -0.0000413779  -0.0000218827
       -0.0000127733  -0.0000275063  -0.0000234922   0.0000217790   0.0000482337
        0.0001135034  -0.0000501090   0.0000791693  -0.0000158564  -0.0000963084
       -0.0000406925   0.0000312378   0.0005475241   0.0002100460   0.0002474058
       -0.0005189215   0.0009774211  -0.0002997236   0.0001053809   0.0000891380
       -0.0001748085  -0.0155669730  -0.0127205264  -0.0118708733   0.0067925384
        0.0099445865   0.0095219212  -0.0075507152  -0.0128119442  -0.0137781309
        0.0215838357  -0.0058536308  -0.0007706725   0.0000003981  -0.0001465648
        0.0000292265   0.0000187783  -0.0000142959  -0.0000045531   0.0000022146
       -0.0000099452   0.0000131506   0.0000147907   0.0000056386   0.0000047123
       -0.0000119999   0.0000018485   0.0000126199  -0.0000062592   0.0000069041
        0.0000026611   0.0000207655  -0.0000134077   0.0000139629   0.0001976411
       -0.0000321709   0.0000760981   0.0003948084  -0.0000144505   0.0001697155
       -0.0007818663   0.0018843279  -0.0055867773  -0.0000354893   0.0000312661
        0.0000796614  -0.0000564675   0.0000796035   0.0001610086   0.0000185706
        0.0000007390   0.0000139861   0.0000045572   0.0000037274   0.0000022413
       -0.0000056151   0.0000100026   0.0000012797  -0.0000004632  -0.0000040529
       -0.0000016956   0.0000020604  -0.0000224377   0.0000151039   0.0000266219
        0.0000023602   0.0000045629  -0.0000219124  -0.0000036061   0.0000041298
        0.0000138102  -0.0000022247  -0.0000059830   0.0000019929  -0.0000194815
        0.0000038776  -0.0000075918  -0.0000126380   0.0000058863  -0.0000117723
        0.0000002047   0.0000048858  -0.0000109678   0.0000034063   0.0000047270
       -0.0000051494   0.0000127942  -0.0000008363   0.0000048316   0.0000163575
       -0.0000058742   0.0000129389  -0.0000038181  -0.0000054547  -0.0000113840
        0.0000074818   0.0000057565   0.0000012526  -0.0000009142   0.0000013901
       -0.0000417433   0.0000025128  -0.0000113969   0.0000581513  -0.0000257888
       -0.0000044033  -0.0000446756   0.0000231845  -0.0000505418  -0.0002502534
       -0.0002338994  -0.0002260637  -0.0001436049   0.0001390138  -0.0000808626
        0.0002864418  -0.0003022720   0.0005734766
       -0.0516884673  -0.0538096227  -0.1253999372   0.0730023906   0.2229590886
        0.3642045354  -0.0543825898  -0.0087102366  -0.0705454370  -0.0187855798
        0.0142186027   0.0047593121  -0.0016812538  -0.0066386535   0.0014721497
       -0.0019745350  -0.0001749990  -0.0002783712   0.0000732770   0.0003477076
       -0.0000289115  -0.0001106163  -0.0000288186  -0.0000393500   0.0000914921
        0.0000388389   0.0000076517  -0.0001063307  -0.0000200637   0.0000049412
       -0.0001084571  -0.0003785585   0.0000599891   0.0004132828  -0.0002154210
       -0.0000413417   0.0000536610   0.0002029958  -0.0000602160  -0.0000099959
       -0.0000872322   0.0000156744  -0.0000690565   0.0000803045  -0.0001300784
       -0.0002502535  -0.0002694776   0.0000746772   0.0001820172   0.0010045272
        0.0002759541   0.0166658097  -0.0060614829  -0.0045432226  -0.0183707427
       -0.0285346981  -0.0297820613   0.0632032403  -0.1059665894  -0.1255135850
        0.0042267445  -0.0003445664   0.0024745285  -0.0006525201  -0.0001192957
       -0.0000574629  -0.0002701729   0.0000214616  -0.0001160805   0.0000717204
       -0.0000456035   0.0000543925  -0.0001208227   0.0000665049  -0.0000070424
        0.0000239993  -0.0000595374   0.0000320873  -0.0000205185  -0.0000227702
       -0.0000149871   0.0000271479  -0.0000248065  -0.0000059653  -0.0000444365
       -0.0000461979  -0.0000139278   0.0000213545   0.0000556636   0.0000033294
        0.0000088658  -0.0000814531  -0.0000188373   0.0000224018   0.0000417987
        0.0000011442   0.0000206265  -0.0000904916  -0.0000124638  -0.0000552452
        0.0000443000   0.0000044680   0.0000145714   0.0000903125   0.0000554356
        0.0000258219  -0.0001105690  -0.0000782875   0.0000453092  -0.0000144252
       -0.0000193986  -0.0000093737   0.0000019105   0.0000003283  -0.0000003275
        0.0000207625   0.0000076937   0.0000027917  -0.0000041558  -0.0000065263
       -0.0000013384  -0.0000040084   0.0000025420  -0.0000199441  -0.0000135932
       -0.0000032337  -0.0000106925   0.0000469271  -0.0000052670  -0.0000563955
       -0.0000035117   0.0000235203   0.0000429858  -0.0000396057  -0.0000045777
        0.0000200463   0.0000478429  -0.0000227192   0.0000372518  -0.0000684396
       -0.0000001954  -0.0000632932   0.0000093709   0.0000284057   0.0000598782
        0.0000584595  -0.0000297560   0.0000107420  -0.0000546482   0.0000092721
        0.0000453503   0.0000177433  -0.0000237751  -0.0000495456   0.0000250619
        0.0000109145  -0.0000180672  -0.0000431823   0.0000139521  -0.0000146035
        0.0000307929   0.0000009786   0.0000063568  -0.0000200594  -0.0000056002
       -0.0000137498   0.0000091410   0.0000144998  -0.0000075575   0.0000324495
        0.0000153279  -0.0000941001   0.0001140087  -0.0000041434   0.0000776875
        0.0000644134   0.0000198808  -0.0001783992  -0.0001565204  -0.0002950054
       -0.0012661143   0.0003715557  -0.0011625044  -0.0003977925   0.0001614387
       -0.0002165458   0.0031969773   0.0042819675   0.0094528640  -0.0149435233
       -0.0083593710  -0.0131741945  -0.0086843927  -0.0140328744  -0.0145420839
        0.0153714576  -0.0046309190   0.0006007809  -0.0000177917  -0.0000873319
        0.0000340316   0.0000069260   0.0000049733  -0.0000053497   0.0000128575
        0.0000041447   0.0000122533  -0.0000189135  -0.0000210923   0.0000009038
        0.0000323027  -0.0000222355   0.0000080965   0.0000196806  -0.0000094542
        0.0000284513   0.0000105757  -0.0000431477   0.0000179534   0.0000829147
        0.0001275998   0.0000828018   0.0003344840   0.0001923503   0.0002329422
       -0.0031746245  -0.0056616432   0.0016763076   0.0001945583   0.0001229979
        0.0001679536  -0.0000933631   0.0000204028   0.0000567752   0.0000156912
       -0.0000024284   0.0000082633   0.0000044468   0.0000055049   0.0000047736
       -0.0000031217   0.0000059338   0.0000037222  -0.0000075958   0.0000023903
        0.0000016201  -0.0000047080  -0.0000062243   0.0000064993   0.0000017061
       -0.0000014784   0.0000004635  -0.0000072215  -0.0000045929   0.0000011154
        0.0000048231  -0.0000004368  -0.0000015720   0.0000002328  -0.0000086162
        0.0000019304  -0.0000031859  -0.0000056803   0.0000030103  -0.0000030874
       -0.0000020057   0.0000024505  -0.0000026864   0.0000024191   0.0000018307
       -0.0000015276   0.0000062379   0.0000008625   0.0000026625   0.0000064343
       -0.0000003807   0.0000049648   0.0000001109  -0.0000006333  -0.0000019037
        0.0000025536   0.0000013795   0.0000026425   0.0000012894  -0.0000033891
       -0.0000162823  -0.0000239395  -0.0000018732   0.0000375092  -0.0000221646
        0.0000165175  -0.0000789231   0.0001272937   0.0000594441   0.0000639926
       -0.0003001672  -0.0000948388  -0.0000922647   0.0000706536  -0.0000366407
        0.0001597753   0.0003398561   0.0002141865
       -0.0246413254  -0.0004739501  -0.0082533671  -0.3121381288   0.0227021355
       -0.0543825898   0.6406063358  -0.0791439472   0.0770159549  -0.1431981292
       -0.0340024876  -0.0566058741  -0.0434933029  -0.0150363067  -0.0232582731
       -0.0006969560   0.0044719241  -0.0023394775  -0.0000204445  -0.0001033946
        0.0000489093   0.0003694083   0.0001469791  -0.0000538740  -0.0000256893