$hessian                                                                        
        0.5194405033  -0.4073765961  -0.4602054502  -0.5035264324   0.3821715716
        0.4327022552  -0.0175958581   0.0306976033   0.0325331673   0.0133048918
       -0.0023817421  -0.0044674171  -0.0073506545   0.0058858345   0.0055184064
        0.0076037716   0.0033871191   0.0002403701  -0.0048236235  -0.0022208046
       -0.0003208252   0.0031213656  -0.0021103452  -0.0021103079   0.0003521880
        0.0007183657   0.0003731220   0.0000666182  -0.0004066161  -0.0002747954
        0.0001653355   0.0002349782   0.0001174115  -0.0001119620  -0.0001501703
       -0.0000694461   0.0000495197   0.0001404373   0.0000850443  -0.0002501881
       -0.0002463841  -0.0000938256  -0.0008333889  -0.0008702471  -0.0004372308
        0.0017845526   0.0040090780   0.0022674719   0.0008981904  -0.0005050406
       -0.0005399649  -0.0002138831   0.0004458291   0.0003411300   0.0003311949
       -0.0001470319  -0.0001744170  -0.0002376556   0.0000637898   0.0001042331
        0.0001714224  -0.0001335447  -0.0001287256  -0.0004399113   0.0000476420
        0.0001395107  -0.0051431452  -0.0006300550   0.0009296435   0.0005969477
       -0.0038646776  -0.0028576069  -0.0016726420   0.0025575433   0.0019159194
       -0.0054731119  -0.0088031998  -0.0049705672  -0.0009780657   0.0005280495
       -0.0009353846  -0.0000367786   0.0002034751   0.0003943680   0.0000970391
        0.0001613832  -0.0001538376  -0.0001602874  -0.0003440550   0.0001070442
        0.0003497437  -0.0003896928   0.0001261627  -0.0002429266   0.0004459107
       -0.0002453854  -0.0002703290  -0.0003993742   0.0001392358  -0.0007974706
        0.0000183761  -0.0001324473   0.0005112364  -0.0009575484   0.0003101891
       -0.0001674842   0.0008334363  -0.0003103953   0.0001493086  -0.0004351080
        0.0001602912  -0.0001764743  -0.0001858922   0.0000712862  -0.0001711177
        0.0000587814  -0.0000079058  -0.0002042008   0.0000609900  -0.0000187567
        0.0002172863   0.0000798326  -0.0001010409   0.0004180059   0.0002624085
       -0.0000174029  -0.0001832235  -0.0002135272  -0.0000747455   0.0000351594
        0.0001242934   0.0001195829  -0.0002715858  -0.0000033527   0.0000385748
        0.0001896369   0.0000802390  -0.0001238527   0.0001245421   0.0000953110
       -0.0000931612  -0.0001739033  -0.0000501478  -0.0000540010  -0.0000866140
       -0.0007015049   0.0001535628  -0.0000514423   0.0003464199  -0.0006206251
        0.0014822661  -0.0008206091   0.0000661135   0.0003934191   0.0000533573
       -0.0001522306   0.0003394834  -0.0000554665  -0.0000574099   0.0000405910
        0.0000581298   0.0000031853   0.0000043826  -0.0000103578  -0.0000047842
       -0.0000211328  -0.0000200813  -0.0000036479  -0.0000516716  -0.0000142240
       -0.0000013639  -0.0000355108   0.0000406476   0.0000368318   0.0000158598
        0.0000052200  -0.0000021219  -0.0000047300   0.0000399486   0.0000235302
       -0.0000155029   0.0000085120   0.0000070697  -0.0000442133  -0.0000004949
        0.0000110544  -0.0000160406  -0.0000369750  -0.0000191285  -0.0001005061
        0.0000883885   0.0001991384  -0.0003088398   0.0003795228   0.0003074001
       -0.0000610092  -0.0000151221   0.0000518897  -0.0000326603   0.0000335084
        0.0000044270   0.0000146004   0.0000232515   0.0000014129   0.0000554262
        0.0000048268   0.0000181084  -0.0000123628   0.0000482328   0.0000880592
        0.0000478188   0.0000401629  -0.0000065316   0.0000538518   0.0000025311
        0.0000090205   0.0000293024  -0.0000256873   0.0000206434  -0.0000216996
       -0.0000269125   0.0000434308   0.0000507303   0.0000201023   0.0000277861
       -0.0000067032  -0.0000135026   0.0000271481  -0.0000044385   0.0000634437
        0.0000036834  -0.0001248105  -0.0000023932  -0.0000511757
       -0.4073765961   0.3469032175   0.3733841092   0.3813745872  -0.3437339967
       -0.3509856062   0.0282806472  -0.0066048696  -0.0243149419  -0.0092994485
       -0.0003975857   0.0006330484   0.0072606128  -0.0046765059  -0.0036942659
       -0.0057239974  -0.0031093009  -0.0003659690   0.0033150161   0.0021282885
        0.0005643688  -0.0024740820   0.0013764160   0.0015649345  -0.0003644592
       -0.0006306589  -0.0003088077   0.0000591616   0.0003927481   0.0002342431
       -0.0001697319  -0.0002450560  -0.0001162820   0.0000898374   0.0001398402
        0.0000699111  -0.0000700379  -0.0001206963  -0.0000601483   0.0001794196
        0.0002193388   0.0000946526   0.0009538470   0.0007144338   0.0002215673
       -0.0015715273  -0.0032804268  -0.0018353512  -0.0006694778   0.0003876825
        0.0004258818   0.0002022188  -0.0003197754  -0.0002592003  -0.0002615488
        0.0001203423   0.0001333903   0.0001869520  -0.0000439687  -0.0000819819
       -0.0001335012   0.0001082130   0.0000994238   0.0003189390  -0.0000810481
       -0.0001325212   0.0043961269   0.0006211390  -0.0008194084  -0.0001198626
        0.0033929127   0.0023375322   0.0016796312  -0.0011541993  -0.0004868273
        0.0006529004   0.0080922232   0.0052105145  -0.0000225343   0.0000967745
       -0.0002495134  -0.0000806906  -0.0002386549   0.0001130246  -0.0001553340
        0.0001403617  -0.0000358108  -0.0001418423   0.0000449160  -0.0000089654
       -0.0000020158   0.0001197212  -0.0000500510   0.0001619912  -0.0001061768
        0.0000531618   0.0003134491   0.0001617542  -0.0000064063   0.0004526642
        0.0000864479  -0.0001827291  -0.0001263148   0.0004806212  -0.0001755443
        0.0000286280  -0.0004922786   0.0001840360   0.0000797034   0.0002044493
       -0.0000806365   0.0000501228   0.0001393011  -0.0000489625   0.0001174143
        0.0000110328  -0.0000160885  -0.0000080168  -0.0000826251   0.0000543744
        0.0000264332  -0.0001618798   0.0001152393  -0.0005134162  -0.0000444022
       -0.0000274134   0.0004459455   0.0003988360  -0.0000489484  -0.0004361875
       -0.0001088069  -0.0000430285   0.0003142092   0.0001435063  -0.0000727199
       -0.0002712965   0.0000639821   0.0000746309   0.0000113384  -0.0000785131
        0.0001085633   0.0002219765   0.0001459980   0.0000216869  -0.0001813772
        0.0001762986   0.0001436867  -0.0005810956  -0.0005268218  -0.0000071375
       -0.0010789544  -0.0003225936  -0.0004515157   0.0001778919  -0.0003448040
       -0.0000567096   0.0001659923   0.0001241921  -0.0003655441   0.0000393992
       -0.0000621068  -0.0000183001   0.0000074550   0.0000589133   0.0000424502
        0.0000161045   0.0000199316   0.0000119723   0.0000417680   0.0000133901
        0.0000076453   0.0000190704  -0.0000352104  -0.0000269026  -0.0000234947
        0.0000018653   0.0000052710   0.0000029097  -0.0000335306  -0.0000232254
        0.0000151931  -0.0000056662  -0.0000085441   0.0000458169   0.0000025627
       -0.0000100052   0.0000141322   0.0000372129   0.0000220417   0.0000644785
       -0.0000111897  -0.0002487846  -0.0000025118  -0.0000889956  -0.0000217773
        0.0000244489   0.0000120349  -0.0000089145   0.0000199657  -0.0000369123
        0.0000047959   0.0000009480  -0.0000226120   0.0000062594  -0.0000227959
       -0.0000065853   0.0000022726   0.0000088728  -0.0000064797  -0.0000200069
       -0.0000102313  -0.0000151561  -0.0000006240  -0.0000393211   0.0000077595
       -0.0000101386  -0.0000274016   0.0000278134  -0.0000177566   0.0000080803
        0.0000414733  -0.0000468400  -0.0000332820  -0.0000163048  -0.0000400347
        0.0000142676   0.0000142123  -0.0000439409   0.0000441803  -0.0000310313
       -0.0000378249   0.0000876366  -0.0000947323   0.0000279670
       -0.4602054502   0.3733841092   0.4399741678   0.4323981024  -0.3516696235
       -0.4292562545   0.0302937150  -0.0245253579  -0.0128218382  -0.0102754574
       -0.0009564809   0.0034461953   0.0072938532  -0.0034318238  -0.0063117278
       -0.0064929864  -0.0030493620  -0.0007675804   0.0035404824   0.0024582917
        0.0008623518  -0.0026830747   0.0014765346   0.0015493243  -0.0003910382
       -0.0006654938  -0.0003149786   0.0000612431   0.0004006868   0.0002795866
       -0.0001652181  -0.0002560121  -0.0001170188   0.0001008370   0.0001443113
        0.0000702918  -0.0000839688  -0.0001289602  -0.0000679287   0.0001930497
        0.0002369393   0.0001072986   0.0011342386   0.0008131006   0.0003129549
       -0.0017695699  -0.0034948975  -0.0019005388  -0.0007677174   0.0004346765
        0.0004336080   0.0002452394  -0.0003486094  -0.0002846466  -0.0002847541
        0.0001329253   0.0001616268   0.0002053670  -0.0000524959  -0.0000855037
       -0.0001602113   0.0001056811   0.0001158155   0.0003478784  -0.0000992875
       -0.0001460451   0.0047915483   0.0002182997  -0.0008535935  -0.0004525511
        0.0034120366   0.0026087927   0.0015766730  -0.0009011366  -0.0020928768
        0.0025014471   0.0076538856   0.0064540220   0.0002634986  -0.0001757800
        0.0005902667   0.0000054782  -0.0002975919  -0.0001303028  -0.0001838409
       -0.0000582393   0.0001294036   0.0001018093   0.0002125114  -0.0000484551
       -0.0003074927   0.0003281235  -0.0001029546   0.0002431102  -0.0004640378
        0.0002286530   0.0000636319   0.0003898661  -0.0000920362   0.0009949854
       -0.0000547247  -0.0001117665  -0.0005099732   0.0009457618  -0.0003220805
        0.0002370300  -0.0008031392   0.0003098578  -0.0002442986   0.0003336534
       -0.0000858901   0.0002186182   0.0001141390  -0.0000539469   0.0000954218
        0.0000235689  -0.0000194093   0.0001414124  -0.0000642401   0.0000188564
       -0.0002283846  -0.0000250139   0.0000703967   0.0000118469  -0.0002395865
        0.0000721022  -0.0000115166   0.0002484891   0.0000065639   0.0000422330
       -0.0002408702   0.0000265391   0.0001515943  -0.0000412538   0.0000033353
       -0.0000905717  -0.0000931238   0.0000935568  -0.0001377550   0.0000662307
        0.0000366583  -0.0001512282  -0.0000588950   0.0001033449  -0.0000311599
        0.0000954756  -0.0003335926  -0.0006777810  -0.0007837977  -0.0007183316
       -0.0016842111   0.0005401943  -0.0009636362   0.0001458685  -0.0003767707
       -0.0001545504   0.0002394860  -0.0003584247   0.0004329562   0.0000056617
       -0.0000375946  -0.0000571901  -0.0000004078   0.0000620980   0.0000255004
        0.0000202728   0.0000281415   0.0000068872   0.0000561371   0.0000208159
        0.0000028460   0.0000160725  -0.0000438282  -0.0000369667  -0.0000267056
        0.0000053402   0.0000061494   0.0000041600  -0.0000456804  -0.0000299381
        0.0000189996  -0.0000118106  -0.0000133705   0.0000553620   0.0000011249
       -0.0000160262   0.0000042034   0.0000437269   0.0000239945   0.0001813862
       -0.0002580451   0.0000929303   0.0000680317  -0.0001516708  -0.0001552158
        0.0000840128  -0.0000204255  -0.0000595369   0.0000360372  -0.0000564955
        0.0000034234  -0.0000031303  -0.0000361684   0.0000050588  -0.0000329491
       -0.0000037212  -0.0000182392  -0.0000261220  -0.0000491652  -0.0000116726
       -0.0000422630  -0.0000274161   0.0000073944  -0.0000598551   0.0000061182
       -0.0000057073  -0.0000399888   0.0000316478  -0.0000171483   0.0000175277
        0.0000142828  -0.0000229517  -0.0000264652   0.0000240573  -0.0000238965
        0.0000229922   0.0000352224  -0.0000374672   0.0000423549  -0.0000128331
       -0.0000297319  -0.0000248128   0.0000278170   0.0000198320
       -0.5035264324   0.3813745872   0.4323981024   0.6816806489  -0.4661548051
       -0.5333568177  -0.1389829334   0.0625742588   0.0723084263  -0.0535902695
        0.0170656474   0.0261388019   0.0062719088  -0.0130272534  -0.0085821132
       -0.0119194335  -0.0046015887   0.0000354976   0.0069043236   0.0038885922
        0.0009514227  -0.0047513499   0.0031558732   0.0032681778  -0.0006462813
       -0.0012287519  -0.0006133489  -0.0001442222   0.0006904415   0.0004882094
       -0.0002834433  -0.0004460104  -0.0002161921   0.0001693620   0.0002627072
        0.0001271922  -0.0001129874  -0.0002634702  -0.0001440397   0.0004405038
        0.0004077380   0.0001564801   0.0017272887   0.0014090466   0.0004987342
       -0.0027588680  -0.0065550443  -0.0036803620  -0.0014889859   0.0008591774
        0.0009150620   0.0003830711  -0.0007033131  -0.0005561586  -0.0005565706
        0.0002456159   0.0002870081   0.0003752056  -0.0000932948  -0.0001645073
       -0.0002861306   0.0002353677   0.0002254604   0.0007036080  -0.0001193682
       -0.0002469948   0.0076905988   0.0010606327  -0.0013452620  -0.0006094219
        0.0064335609   0.0046486125   0.0036529531  -0.0045107559  -0.0028868085
        0.0103761583   0.0193649602   0.0121156454   0.0002860462  -0.0025635128
        0.0000981180   0.0001690288   0.0000204511  -0.0007984449  -0.0001328709
       -0.0002741183   0.0002513352   0.0002491312   0.0005344144  -0.0001823455
       -0.0004851239   0.0005733970  -0.0001897154   0.0003804454  -0.0006216553
        0.0003477693   0.0003663857   0.0005920864  -0.0001430919   0.0011621816
       -0.0000027618   0.0001275631  -0.0006082604   0.0012884206  -0.0004099694
        0.0002421731  -0.0009606258   0.0003975575  -0.0000849516   0.0004308052
       -0.0001515836   0.0001556527   0.0003492204  -0.0001365614   0.0002659892
       -0.0002106593   0.0000652315   0.0003944893  -0.0000372859  -0.0000122575
       -0.0003939461  -0.0001086264   0.0001587240  -0.0004260234  -0.0003399226
        0.0000329475   0.0001234894   0.0003772665   0.0001271350  -0.0000232002
       -0.0001135475  -0.0001706011   0.0003413744  -0.0000473789   0.0000030140
       -0.0001594606  -0.0001151960   0.0001661199  -0.0002447935  -0.0001046245
        0.0001354510   0.0004282712   0.0000667713  -0.0000847292   0.0000455184
        0.0009664159  -0.0004329781  -0.0005159244  -0.0001739421  -0.0001521900
       -0.0024926185  -0.0003154987  -0.0004380903  -0.0004485320  -0.0003594492
        0.0000815842   0.0000796980   0.0006930107  -0.0002053175  -0.0000222083
       -0.0000731592  -0.0000072033  -0.0000060472   0.0000379123   0.0000234009
        0.0000446260   0.0000478861   0.0000219141   0.0001014415   0.0000243103
        0.0000080534   0.0000765016  -0.0000542266  -0.0000515430  -0.0000392433
       -0.0000311534  -0.0000121745   0.0000130370  -0.0000768303  -0.0000528243
        0.0000296411  -0.0000097379  -0.0000166332   0.0000911097   0.0000024580
       -0.0000229050   0.0000373808   0.0000713493   0.0000365369   0.0001582472
       -0.0001085927  -0.0004890362   0.0004255229  -0.0006108611  -0.0005116926
        0.0000632171   0.0000310761  -0.0000740364   0.0000486213  -0.0000751637
       -0.0000132060  -0.0000319508  -0.0000431820  -0.0000035646  -0.0000997024
       -0.0000112120  -0.0000323318   0.0000030824  -0.0000816072  -0.0000963802
       -0.0000773527  -0.0000722632   0.0000211388  -0.0001049103  -0.0000013933
       -0.0000095120  -0.0000564730   0.0000591990  -0.0000304246   0.0000434169
        0.0000650468  -0.0000657258  -0.0001002831  -0.0000183525  -0.0000357329
       -0.0000052899   0.0000494900  -0.0000525703  -0.0000250688  -0.0000739812
       -0.0000152435   0.0000402143   0.0000849833   0.0002267934
        0.3821715716  -0.3437339967  -0.3516696235  -0.4661548051   0.4782210704
        0.4427795533   0.0653557073  -0.1092285250  -0.0626881986   0.0202316202
        0.0025032535  -0.0024271660  -0.0117130465   0.0109641919   0.0041349066
        0.0077331693   0.0044588830   0.0005096417  -0.0045215701  -0.0030021939
       -0.0008005230   0.0033253077  -0.0019138488  -0.0023260284   0.0005400202
        0.0009609531   0.0004685787  -0.0000747455  -0.0005856008  -0.0003654436
        0.0002499845   0.0003591909   0.0001782669  -0.0001365247  -0.0002102754
       -0.0000871986   0.0001031184   0.0001941375   0.0001106905  -0.0002888833
       -0.0003444561  -0.0001536366  -0.0013091559  -0.0010443282  -0.0001893257
        0.0020423852   0.0046974407   0.0026823304   0.0010052007  -0.0005807153
       -0.0006689119  -0.0003147784   0.0004797763   0.0003934844   0.0003973918
       -0.0001715701  -0.0002072128  -0.0002724739   0.0000676788   0.0001152175
        0.0002002604  -0.0001556145  -0.0001492783  -0.0004819557   0.0001482366
        0.0002176403  -0.0061638638  -0.0010061795   0.0011872181  -0.0007210532
       -0.0058630956  -0.0036654410  -0.0046288602  -0.0008330693  -0.0031016102
        0.0115790115  -0.0320485817  -0.0269790130   0.0019762952  -0.0002551162
        0.0002876946  -0.0001219008  -0.0002923086   0.0002395623   0.0001481104
        0.0001421243  -0.0000242652  -0.0000616041  -0.0002047674   0.0000705658
        0.0001374600  -0.0002046436   0.0000604720  -0.0001892625   0.0001608912
       -0.0000912083  -0.0001510090  -0.0001586562  -0.0000213452  -0.0004282264
       -0.0001331416   0.0000822929   0.0001929073  -0.0005113242   0.0001786476
       -0.0000098227   0.0004327983  -0.0001655505  -0.0000924711  -0.0001688237
        0.0000579582  -0.0000557403  -0.0002595309   0.0000883025  -0.0001787619
        0.0001086260  -0.0000323371  -0.0001464778   0.0000419073  -0.0000187209
        0.0001356973   0.0001662681  -0.0001475835   0.0003939963   0.0000878299
        0.0000484161  -0.0002723253  -0.0004895331   0.0000282991   0.0003474906
        0.0000835451   0.0000850326  -0.0003164018  -0.0000545182   0.0000295991
        0.0002464591  -0.0000490125  -0.0001045395   0.0001009257   0.0000765327
       -0.0001397402  -0.0002941476  -0.0000819238   0.0001258786   0.0002055642
       -0.0002683124  -0.0000239672   0.0002697543   0.0004796855  -0.0005079311
        0.0003799010   0.0001762843  -0.0000429877  -0.0000121844   0.0003476289
        0.0000341150  -0.0009823148  -0.0007949107   0.0022215771  -0.0000297395
        0.0000674675   0.0000292835   0.0000024979  -0.0000792307  -0.0000466392
       -0.0000250971  -0.0000404980  -0.0000143819  -0.0000778244  -0.0000215542
       -0.0000004144  -0.0000419671   0.0000516211   0.0000422964   0.0000357586
        0.0000048731  -0.0000171689  -0.0000071548   0.0000660157   0.0000389411
       -0.0000267645   0.0000156162   0.0000128565  -0.0000787949  -0.0000022505
        0.0000157904  -0.0000303582  -0.0000590306  -0.0000318409   0.0000091872
       -0.0002482698   0.0008529655   0.0006661172  -0.0005981661  -0.0006558649
        0.0000224077   0.0000153664  -0.0000212075  -0.0000215530   0.0000874549
       -0.0000184662   0.0000209342   0.0000511341  -0.0000170693   0.0000743643
        0.0000383436  -0.0000114119   0.0000504039   0.0000155427   0.0000524520
        0.0000412658   0.0000388904  -0.0000106575   0.0000861964  -0.0000156040
        0.0000134151   0.0000504541  -0.0000541074   0.0000295538  -0.0000261793
       -0.0000752836   0.0000672989   0.0000574140  -0.0000082845   0.0000524098
       -0.0000209511  -0.0000435001   0.0000654517  -0.0000716515   0.0000199969
        0.0000600685  -0.0000339094   0.0000630968  -0.0001048147
        0.4327022552  -0.3509856062  -0.4292562545  -0.5333568177   0.4427795533
        0.5679987530   0.0742048546  -0.0628393891  -0.1167045008   0.0294789331
       -0.0017648436  -0.0099998332  -0.0087601276   0.0042222334   0.0145274191
        0.0093410321   0.0038414687   0.0010370298  -0.0050940415  -0.0033017479
       -0.0010707166   0.0039798073  -0.0021724337  -0.0021934053   0.0005351222
        0.0009683642   0.0004632468  -0.0000676700  -0.0005768214  -0.0003869066
        0.0002412590   0.0003775834   0.0001851109  -0.0001343587  -0.0002184171
       -0.0000973094   0.0001282313   0.0001953256   0.0001066111  -0.0002703880
       -0.0003522943  -0.0001581194  -0.0019094541  -0.0011607172  -0.0004643554
        0.0025918239   0.0049171209   0.0025701841   0.0011003094  -0.0006389050
       -0.0005918850  -0.0003571671   0.0004951761   0.0003985468   0.0004168386
       -0.0002003241  -0.0002385938  -0.0002931061   0.0000740099   0.0001206587
        0.0002371326  -0.0001478211  -0.0001742345  -0.0004926836   0.0001547109
        0.0002042035  -0.0066602124  -0.0001494926   0.0010542469   0.0003418428
       -0.0052983152  -0.0041303745  -0.0035743137  -0.0029642627   0.0044484896
        0.0062543811  -0.0284396330  -0.0228502906   0.0003875753   0.0018191809
       -0.0019816317   0.0001956840  -0.0001074853   0.0006000548   0.0002464432
        0.0002811850  -0.0002271976  -0.0002496741  -0.0003664291   0.0000888701
        0.0003509085  -0.0004091710   0.0001300332  -0.0003337126   0.0003854244
       -0.0002166272   0.0000899466  -0.0001457980  -0.0000116344  -0.0012426228
       -0.0001665659   0.0001533297   0.0004916563  -0.0010505723   0.0003681626
       -0.0002726441   0.0008341483  -0.0002767552   0.0002200727  -0.0003717685
        0.0000974796  -0.0001988787  -0.0003044802   0.0001225805  -0.0002017201
        0.0001482400  -0.0000380674  -0.0003591566   0.0000542845   0.0000076427
        0.0004242582   0.0000662057  -0.0001432330   0.0000625162   0.0003505571
       -0.0000164442   0.0002489859  -0.0004149160  -0.0000869209  -0.0001965811
        0.0002792292   0.0001425002  -0.0001913311   0.0000444673   0.0000062956
        0.0001119481   0.0001030555  -0.0001241848   0.0002463135   0.0001068645
       -0.0001024514  -0.0002163689   0.0001459745  -0.0001654357  -0.0000817164
       -0.0003871187  -0.0000720433  -0.0001973350   0.0006480786  -0.0006921807
        0.0016186629  -0.0010373436   0.0005132534   0.0002380250   0.0004371703
        0.0000501873  -0.0019976115   0.0018132362  -0.0020084940  -0.0000142903
        0.0000541804   0.0000573315   0.0000067500  -0.0000899527  -0.0000382709
       -0.0000332218  -0.0000531404  -0.0000128954  -0.0000937321  -0.0000378213
       -0.0000044244  -0.0000388342   0.0000557782   0.0000536715   0.0000334196
       -0.0000017404  -0.0000048254  -0.0000144940   0.0000758824   0.0000445214
       -0.0000346852   0.0000169773   0.0000148057  -0.0000919472  -0.0000030669
        0.0000216834  -0.0000174396  -0.0000653115  -0.0000339639  -0.0005027145
        0.0008856518  -0.0007700578   0.0004222372  -0.0003108681  -0.0002335333
       -0.0001195429   0.0000615537   0.0000427925  -0.0000467233   0.0001036023
       -0.0000233410   0.0000104663   0.0000681774  -0.0000121449   0.0000805635
        0.0000264014  -0.0000052940   0.0000672785   0.0000673028   0.0000356418
        0.0000824244   0.0000600992  -0.0000191913   0.0001135289  -0.0000076316
        0.0000136656   0.0000746154  -0.0000618148   0.0000390500  -0.0000332717
       -0.0000502085   0.0000639624   0.0000826862  -0.0000464700   0.0000676503
       -0.0000048143  -0.0000957937   0.0000763134  -0.0000322283  -0.0000093901
        0.0000778823   0.0003268431  -0.0002125726  -0.0003658386
       -0.0175958581   0.0282806472   0.0302937150  -0.1389829334   0.0653557073
        0.0742048546   0.6283517248   0.0480336267  -0.1055998211  -0.3086880486
       -0.0981384965  -0.0010739315  -0.0588663024   0.0287213591   0.0362497968
        0.0092424649   0.0047318439   0.0017567446   0.0002152761  -0.0002297899
       -0.0010573241   0.0001819449   0.0022990641   0.0024415924  -0.0005975102
       -0.0011358094  -0.0005628753  -0.0001941613   0.0004773519   0.0003499283
       -0.0002662001  -0.0002647988  -0.0001262999   0.0001685381   0.0001605897
        0.0000945638   0.0000480519  -0.0002521805  -0.0001844548   0.0004592863
        0.0003050048   0.0000990515   0.0002591638   0.0008930534  -0.0001555479
        0.0016854064  -0.0022912371  -0.0019763163  -0.0016100310   0.0007893478
        0.0008377722   0.0001180527  -0.0006582536  -0.0004697357  -0.0004852492
        0.0000779923   0.0002066681   0.0002010577  -0.0001615581  -0.0001462456
       -0.0002031714   0.0002938227   0.0002524166   0.0007278193   0.0000975439
       -0.0001416880  -0.0035590260  -0.0004315232   0.0014166513  -0.0195624201
       -0.0182200674  -0.0091863442   0.0278408688   0.0073778419  -0.0033355748
       -0.0802753251  -0.0300617059  -0.0108522639  -0.0241087098  -0.0304257374
       -0.0133428739  -0.0020739118   0.0012536845  -0.0025248018   0.0002542902
        0.0000914964  -0.0001401857   0.0000581065   0.0000454156   0.0000789373
       -0.0000731800  -0.0000529504   0.0000437848  -0.0002759409  -0.0000100957
        0.0002440792  -0.0009862530   0.0000280692   0.0008834424   0.0002560061
       -0.0006260487   0.0007164988  -0.0002415847   0.0001571240   0.0000575573
       -0.0000269839  -0.0002271631   0.0001093498  -0.0001885244   0.0000196300
        0.0000122252   0.0002584571  -0.0003394716   0.0000992194  -0.0001531539
        0.0003996080  -0.0001674282  -0.0004056585  -0.0000612138   0.0000698284
        0.0003753203  -0.0000064054  -0.0000809179  -0.0000862993   0.0001441722
        0.0000334111   0.0003135340  -0.0003227864  -0.0000232354  -0.0002171532
        0.0000417575   0.0001938349  -0.0000422522   0.0001466689  -0.0000675292
        0.0000461417   0.0001033560  -0.0000523857  -0.0000057215   0.0003093733
       -0.0001854684  -0.0001989084  -0.0002380073  -0.0003986234   0.0001338516
        0.0000917978  -0.0001113208  -0.0000912128  -0.0004953044  -0.0002222797
        0.0012434362  -0.0016568306  -0.0003968132   0.0000946694   0.0001174245
       -0.0000232574  -0.0118634129  -0.0055253506  -0.0014885919  -0.0000283855
       -0.0000116785   0.0000003855  -0.0000276218  -0.0000167560  -0.0000183382
       -0.0000177037   0.0000150617   0.0000070114   0.0000070348   0.0000004365
       -0.0000024629   0.0000341419  -0.0000217651  -0.0000142707   0.0000655157
       -0.0000861191  -0.0000524582   0.0000143571  -0.0000330247  -0.0000129743
       -0.0000263941   0.0000039993   0.0000115769   0.0000063508   0.0000034080
        0.0000114926   0.0000264090   0.0000289457   0.0000089334   0.0001273679
       -0.0006817809  -0.0002404705  -0.0015945376   0.0016516007   0.0034366159
        0.0000733054  -0.0002039090   0.0001398225  -0.0000262411   0.0000206638
       -0.0000150151   0.0000159645   0.0000419614  -0.0000090321   0.0000191186
       -0.0000678207  -0.0000255516   0.0000504986   0.0000369931  -0.0000417998
        0.0000469820   0.0000438249  -0.0000199219   0.0000857926   0.0000020873
       -0.0000078442   0.0000530336  -0.0000459354   0.0000133777  -0.0000277586
       -0.0000494318   0.0000365409   0.0000538710  -0.0000358891   0.0000232215
       -0.0000255938  -0.0000246430   0.0000380101  -0.0000730510  -0.0000311998
        0.0000719768   0.0005591728   0.0004493819   0.0000093863
        0.0306976033  -0.0066048696  -0.0245253579   0.0625742588  -0.1092285250
       -0.0628393891   0.0480336267   0.4133261910   0.2126727167  -0.0754937334
       -0.0809621997  -0.0113870131   0.0107063335   0.0105178428   0.0035813411
       -0.0083985078  -0.0061820626  -0.0053147759   0.0098803890   0.0053794123
        0.0002094194  -0.0062818497   0.0058155449   0.0064357732  -0.0012131117
       -0.0022298041  -0.0010555437  -0.0001290536   0.0011478418   0.0007877147
       -0.0006101523  -0.0006960845  -0.0003308885   0.0003335443   0.0003843452
        0.0002057553  -0.0000513123  -0.0004778901  -0.0003143899   0.0007713604
        0.0007025019   0.0002724077   0.0011402732   0.0027107018   0.0011506655
       -0.0025730080  -0.0113243840  -0.0072371665  -0.0029455428   0.0016393320
        0.0017348228   0.0005156154  -0.0014264310  -0.0010750336  -0.0010684943
        0.0003477601   0.0005214009   0.0006268737  -0.0002448418  -0.0003131765
       -0.0004710119   0.0005206708   0.0004542845   0.0014197235  -0.0000560087
       -0.0004423582   0.0110813933   0.0019259571  -0.0007645428  -0.0202552208
       -0.0048212366   0.0033170318   0.0349401552  -0.0308329893  -0.0342888793
       -0.0486458986  -0.1644403662  -0.0729548238  -0.0244976464  -0.0174310409
       -0.0039209794  -0.0000219134   0.0016254372  -0.0007644059  -0.0003338699
        0.0002920572   0.0001653982   0.0003350978   0.0005982201  -0.0002091134
       -0.0010314437   0.0008866888  -0.0002696700   0.0002798652  -0.0018096995
        0.0008196079   0.0001003905   0.0022973091  -0.0004785811   0.0036105985
       -0.0019319200   0.0000672268  -0.0022566623   0.0031088505  -0.0010437179
        0.0009143154  -0.0029470855   0.0010385195  -0.0012451221   0.0011638029
       -0.0003152119   0.0012329702  -0.0005191699   0.0000727966  -0.0000748228
        0.0009525083  -0.0004168596  -0.0003679947  -0.0002212113   0.0001512549
        0.0000136112   0.0000793187  -0.0000436108  -0.0003923758  -0.0004887271
        0.0002547462   0.0005300743  -0.0000473166   0.0000278601  -0.0002004848
       -0.0005215108   0.0001697258   0.0001370340   0.0002297576  -0.0001117760
        0.0002664267  -0.0002287780   0.0000268925   0.0000038506   0.0007763425
       -0.0002318761  -0.0008286450  -0.0008180018   0.0012500137   0.0010089787
        0.0009465234  -0.0004044924  -0.0005152484  -0.0029279793   0.0011701457
       -0.0006829509   0.0018074114  -0.0015497867  -0.0002050655  -0.0003457889
        0.0000285408  -0.0234637912  -0.0087740392  -0.0009863944   0.0000007039
        0.0000432381   0.0000341708  -0.0000223023   0.0000416897   0.0000194610
        0.0000121174   0.0000385071   0.0000162986   0.0000728568   0.0000170036
       -0.0000061467   0.0001353560  -0.0000905135  -0.0000809297   0.0000172701
       -0.0000748716  -0.0000298108   0.0000057013  -0.0000765617  -0.0000452012
       -0.0000013681  -0.0000074346  -0.0000062538   0.0000776222   0.0000179347
       -0.0000014440   0.0001124698   0.0001257100   0.0000466477  -0.0000604385
       -0.0005907543   0.0003111375   0.0017471000   0.0002397772  -0.0037740022
        0.0002815647  -0.0004372033  -0.0000116182   0.0000290609  -0.0000533210
       -0.0000229119   0.0000122769   0.0000042558   0.0000050175   0.0000006074