$hessian                                                                        
        0.5161804970  -0.0355673936  -0.0139786049  -0.0825020177  -0.0428687840
       -0.0167925900   0.0025827725   0.0023646514   0.0013885781   0.0025435694
        0.0026752691   0.0006129333  -0.0293027814  -0.0288873425  -0.0115435484
       -0.0034634324   0.0047337366   0.0020786819   0.0009700625  -0.0019510079
       -0.0008327668  -0.0028211872  -0.0014132113  -0.0006175074  -0.0003613071
        0.0004048357   0.0001471964   0.0001406870   0.0003302218   0.0000994009
       -0.0004041175  -0.0001874758  -0.0001010932   0.0001689051  -0.0001142636
        0.0000784160  -0.0000301289   0.0000236640  -0.0000312370   0.0000431540
       -0.0000068131   0.0000252810  -0.0000150700  -0.0000272529   0.0000036391
       -0.0000010100   0.0000246571  -0.0000091142  -0.0000158334  -0.0000593984
        0.0000117205  -0.0000577465   0.0000167084  -0.0000371485   0.0000208051
       -0.0000138305   0.0000070979  -0.0000229601   0.0000024480  -0.0000131240
        0.0000208523   0.0000400358  -0.0000158994   0.0000044132  -0.0000506511
        0.0000317478   0.0000252786   0.0002454712  -0.0000259549   0.0004637036
       -0.0003392513  -0.0001461378  -0.0004609583   0.0001932778   0.0001065368
        0.0000386728  -0.0002424594   0.0000051592   0.0000066209   0.0000523321
       -0.0000331937   0.0000305821  -0.0000440701   0.0000189732  -0.0000307967
       -0.0000077580   0.0000137521   0.0000162444   0.0000304838  -0.0000103223
       -0.0000509948  -0.0000416416   0.0000382305  -0.0000166822   0.0000692527
       -0.0000206061   0.0000010475  -0.0000367589   0.0000098684  -0.0000211679
        0.0000342071  -0.0000082913   0.0000464939   0.0000103691  -0.0000279855
       -0.0000396988  -0.0000242628   0.0000304709   0.0001922934   0.0001426638
       -0.0000551777  -0.0004560007  -0.0001202953   0.0000293849  -0.0001398722
       -0.0006560150  -0.0002787138   0.0046832148   0.0017930768   0.0006119346
       -0.0041277524   0.0001731899   0.0005050380  -0.0043604042   0.0004500123
        0.0001229618  -0.0597781820   0.0117693075   0.0608486386  -0.0608169413
        0.0516862364  -0.0374571203  -0.2804289325   0.0322868839   0.0139185365
        0.0004340615   0.0005449568  -0.0001269021   0.0000437309   0.0000581896
       -0.0000283367   0.0003293067   0.0015167403  -0.0007060212   0.0003131006
        0.0006222362   0.0015397713   0.0004298695   0.0003461271   0.0005122732
        0.0000708403   0.0000257085   0.0000757959   0.0000202724   0.0000083774
        0.0000192219   0.0000077881  -0.0000051190   0.0000110791  -0.0000057222
        0.0000096369  -0.0000060887  -0.0000130033   0.0000006539  -0.0000070567
       -0.0000148911  -0.0000074067  -0.0000011253  -0.0000145635  -0.0000076879
       -0.0000034320  -0.0000088179  -0.0000135180   0.0000032544   0.0000025520
       -0.0000117129   0.0000072192  -0.0000001289   0.0000187069  -0.0000084693
        0.0000017670  -0.0000178009   0.0000103942  -0.0000013189   0.0000095748
       -0.0000052334  -0.0000139676   0.0000111740  -0.0000041935  -0.0000170679
        0.0000051414   0.0000041916  -0.0000175674   0.0000034873  -0.0000001586
       -0.0000132336  -0.0000048681   0.0000077757  -0.0000060166  -0.0000133492
        0.0000075464   0.0000102505   0.0000040831  -0.0000085808   0.0000088658
        0.0000036134  -0.0000009658
       -0.0355673936   0.4796260732  -0.0192600630  -0.0445475356  -0.1522832842
       -0.0348576755  -0.0093281729  -0.0295279363  -0.0037613174  -0.0033103741
       -0.0091562952  -0.0080322788  -0.0043815137   0.0013933227   0.0001834812
        0.0002327286  -0.0004188801  -0.0002315415   0.0000002940   0.0007622854
        0.0001710014  -0.0000980263  -0.0000131095  -0.0000070913   0.0000798300
        0.0000177296   0.0000382322  -0.0001090515  -0.0000422899  -0.0000175801
        0.0000616863   0.0000830820   0.0000053313  -0.0000106219   0.0000095505
        0.0000045517   0.0000016503   0.0000007596   0.0000000816  -0.0000125718
       -0.0000043285  -0.0000046997   0.0000075862   0.0000015717   0.0000002565
        0.0000147377  -0.0000050322   0.0000064638  -0.0000143190   0.0000004115
       -0.0000075664   0.0000157683   0.0000017930   0.0000062316  -0.0000015525
       -0.0000035033   0.0000011865   0.0000058686   0.0000030968   0.0000050377
       -0.0000007276  -0.0000008020   0.0000034841   0.0000283976   0.0000101579
        0.0000095794  -0.0000127396  -0.0000709866   0.0000048952  -0.0000143617
        0.0000038972  -0.0000004794   0.0000140687   0.0000406057  -0.0000176415
        0.0000020367  -0.0000077260   0.0000031263  -0.0000055597   0.0000059290
       -0.0000021017  -0.0000114742   0.0000006366   0.0000027619   0.0000002539
       -0.0000059871   0.0000012663   0.0000075887  -0.0000071608  -0.0000023089
       -0.0000134677   0.0000069120   0.0000005778   0.0000042280  -0.0000017267
       -0.0000024367  -0.0000050423  -0.0000053399   0.0000020812   0.0000063067
        0.0000011387  -0.0000026793  -0.0000037486   0.0000025692   0.0000001667
        0.0000130877  -0.0000187757   0.0000051325  -0.0000320724  -0.0000108778
        0.0000156848   0.0000425359   0.0000184435   0.0000316439  -0.0002314096
        0.0001330038  -0.0000077960   0.0004562572  -0.0024601717  -0.0007394561
        0.0006227009   0.0009708321   0.0003615566   0.0008059442   0.0013906208
       -0.0000147628   0.0123989106  -0.0513848295  -0.0409057355   0.0527411603
       -0.1904198522   0.1077630916   0.0306978610  -0.0458880577  -0.0016260078
       -0.0010364108   0.0003627702  -0.0005736077  -0.0002158046   0.0007642797
       -0.0010959164   0.0009644061  -0.0045756352   0.0028823621   0.0002778432
       -0.0000546060  -0.0016492658  -0.0004839054   0.0000288036   0.0003919838
       -0.0000509768   0.0007043812   0.0009438388   0.0000240219   0.0000061661
        0.0000115855   0.0000026461   0.0000016559  -0.0000025081   0.0000002871
        0.0000017225  -0.0000024901  -0.0000023270   0.0000014334  -0.0000026798
       -0.0000034535  -0.0000011847  -0.0000010664  -0.0000055138  -0.0000000681
       -0.0000022288  -0.0000037440  -0.0000051645   0.0000007932   0.0000029878
        0.0000045621  -0.0000011152  -0.0000055070  -0.0000077724  -0.0000022714
        0.0000060577  -0.0000026878  -0.0000058203   0.0000039080   0.0000020166
       -0.0000066376   0.0000014501   0.0000015061  -0.0000038881   0.0000014193
        0.0000009354  -0.0000037404  -0.0000021255   0.0000028882  -0.0000015061
       -0.0000045272   0.0000021348  -0.0000013480   0.0000044710   0.0000027525
       -0.0000009617  -0.0000060140   0.0000047427  -0.0000014226  -0.0000189401
        0.0000068981   0.0000022269
       -0.0139786049  -0.0192600630   0.5217718556  -0.0176579282  -0.0349042792
       -0.0772269812   0.0051573094   0.0140359120   0.0034664939  -0.0100982920
       -0.0258028679  -0.0171266218  -0.0015763954   0.0001004756   0.0010661235
        0.0000533542  -0.0002439767   0.0000847116  -0.0000109727   0.0001849411
        0.0004380218  -0.0000193583   0.0000096059   0.0000087391   0.0000184200
        0.0000155017  -0.0000141562  -0.0000390897  -0.0000157106  -0.0000098883
        0.0000209471   0.0000096471   0.0000150867  -0.0000046032   0.0000039436
       -0.0000060848   0.0000029749   0.0000053780   0.0000003505  -0.0000027619
       -0.0000011482   0.0000006171   0.0000036109   0.0000007747   0.0000005824
       -0.0000008762   0.0000031292   0.0000048112   0.0000021823   0.0000016443
       -0.0000031287   0.0000020473  -0.0000066673  -0.0000012569   0.0000009963
        0.0000013149   0.0000039832   0.0000014854   0.0000034980   0.0000039805
       -0.0000003662  -0.0000001463  -0.0000004525   0.0000037704   0.0000001258
       -0.0000008168   0.0000048995  -0.0000037926  -0.0000040485  -0.0000178009
        0.0000077469  -0.0000141486   0.0000074874  -0.0000100427   0.0000039715
       -0.0000049807   0.0000111610  -0.0000015805   0.0000077585   0.0000012417
       -0.0000020372   0.0000026643   0.0000009466   0.0000046455   0.0000009944
       -0.0000032925  -0.0000065355   0.0000003251   0.0000042582   0.0000006236
       -0.0000000355  -0.0000007946  -0.0000028813  -0.0000039007   0.0000007090
        0.0000002004   0.0000057767  -0.0000016717   0.0000013506   0.0000030968
        0.0000017724  -0.0000032194  -0.0000033866   0.0000029087   0.0000028774
       -0.0000021318  -0.0000025167  -0.0000010135  -0.0000008495   0.0000005536
        0.0000026353   0.0000558682   0.0000306377  -0.0000403789  -0.0001006345
        0.0000117100   0.0001182530   0.0003188808  -0.0007868244  -0.0007830142
        0.0000173415   0.0002704427   0.0010874258   0.0007250422  -0.0000140445
        0.0004948185   0.0616686685  -0.0404490128  -0.2630737654  -0.0376159569
        0.1074906462  -0.1225357959   0.0132200018  -0.0015618661  -0.0429445563
        0.0004260654  -0.0000077014   0.0001878797   0.0001772538   0.0008808209
        0.0008905621  -0.0006173842   0.0032167585  -0.0013936923   0.0011683219
       -0.0019655114  -0.0059050819  -0.0010316585  -0.0001920418   0.0005193093
       -0.0002694007  -0.0010726751   0.0009376525   0.0000106051   0.0000123812
       -0.0000115593  -0.0000027152  -0.0000030521  -0.0000029925  -0.0000009794
       -0.0000005829  -0.0000010583  -0.0000031159  -0.0000011412  -0.0000012946
       -0.0000014270  -0.0000032768  -0.0000004666   0.0000014904  -0.0000013827
       -0.0000022155   0.0000008949  -0.0000010570   0.0000004898   0.0000002188
       -0.0000016038   0.0000005595  -0.0000032245   0.0000014227  -0.0000001002
       -0.0000111677  -0.0000013775  -0.0000017810  -0.0000029371  -0.0000014206
       -0.0000008661  -0.0000029729   0.0000002778  -0.0000004877  -0.0000008943
       -0.0000006349   0.0000010151  -0.0000000539  -0.0000002548  -0.0000000121
        0.0000005932  -0.0000014795   0.0000007985  -0.0000003833  -0.0000000674
       -0.0000014469   0.0000037660   0.0000007620   0.0000005969  -0.0000078732
        0.0000009289   0.0000043957
       -0.0825020177  -0.0445475356  -0.0176579282   0.4126132842   0.0172612876
        0.0064942145  -0.0622852085   0.0166891423  -0.0134434411  -0.0628407851
        0.0032210115   0.0216698354  -0.1468376498   0.0091172512   0.0023762197
       -0.0289030675  -0.0111859729  -0.0047106160   0.0018557518   0.0035200941
        0.0014796986   0.0037754390  -0.0021177150  -0.0009995805  -0.0007968871
       -0.0005582429   0.0000732936  -0.0013653247  -0.0017838227  -0.0006282786
        0.0015054884   0.0008944324   0.0004523744  -0.0006607953   0.0003922827
       -0.0001990277   0.0001638514  -0.0000394968   0.0001220778  -0.0001173643
        0.0000263089  -0.0000923872   0.0000395697   0.0001291259  -0.0000311376
       -0.0000020859  -0.0001332540   0.0000374100   0.0000324037   0.0002486754
       -0.0000773292   0.0002081393  -0.0001039739   0.0001518256  -0.0000879315
        0.0000806392  -0.0000378580   0.0000913168  -0.0000317872   0.0000563895
       -0.0000725120  -0.0001280278   0.0000562580   0.0000442198   0.0001982843
       -0.0000880973  -0.0000364004  -0.0008477978   0.0000080075  -0.0019400830
        0.0013132889   0.0005018456   0.0019057925  -0.0008305240  -0.0004265382
       -0.0001391386   0.0009481426   0.0000178097   0.0001091709  -0.0002085269
        0.0000792735  -0.0001015135   0.0001392667  -0.0000732017   0.0001198619
        0.0000647307  -0.0000687566  -0.0001016090  -0.0001234958   0.0000494208
        0.0002255146   0.0001780103  -0.0001662977   0.0000213840  -0.0002917267
        0.0001069542   0.0000098213   0.0001830916  -0.0000600726   0.0000636919
       -0.0001543906   0.0000473347  -0.0001382428  -0.0000420115   0.0001035468
        0.0001847597   0.0000753513  -0.0001199916  -0.0006560501  -0.0005086104
        0.0001469917   0.0000789876   0.0008610305   0.0000387618   0.0015513045
        0.0009578773   0.0002965937  -0.0089674899   0.0192095255   0.0092586356
       -0.0007203081  -0.0015010539  -0.0041569876  -0.0006023065  -0.0042292108
        0.0015210803   0.0030995081   0.0047865850   0.0011642041   0.0031763589
        0.0045431575   0.0024767763  -0.0179705296  -0.0232594709  -0.0090755531
       -0.0112620109   0.0217734963  -0.0161806839   0.0015754192  -0.0060898385
        0.0045354970   0.0032042802  -0.0096114300   0.0073252126   0.0033073606
       -0.0020045299  -0.0117574954  -0.0114935321   0.0048710715   0.0268177553
        0.0015986122  -0.0013317311  -0.0074121646   0.0000661274   0.0001234555
        0.0000098431  -0.0000590309  -0.0000069783  -0.0000368872  -0.0000044012
       -0.0000380810   0.0000155555   0.0000150032  -0.0000114141   0.0000200796
        0.0000288597   0.0000138726  -0.0000049077   0.0000299728   0.0000091533
        0.0000143901   0.0000139169   0.0000230082  -0.0000137345  -0.0000166793
        0.0000198797  -0.0000215929  -0.0000305403  -0.0000527385   0.0000050476
       -0.0000476904   0.0000533510   0.0000104829  -0.0000241889  -0.0000322569
        0.0000265976   0.0000109927  -0.0000244680   0.0000202071   0.0000319230
       -0.0000091323  -0.0000145356   0.0000348842  -0.0000131975   0.0000102999
        0.0000190019   0.0000114842  -0.0000202661  -0.0000045767   0.0000369758
       -0.0000163433  -0.0000625242  -0.0000004497   0.0000310317   0.0000385016
       -0.0001214480  -0.0000371417
       -0.0428687840  -0.1522832842  -0.0349042792   0.0172612876   0.4821955679
        0.0063857452   0.0180942514  -0.1341004659   0.0533846330   0.0026999826
       -0.0671822692  -0.0184024850   0.0178507581  -0.0664151397  -0.0101527304
       -0.0162674560   0.0074365614   0.0041146133   0.0013397651  -0.0003281524
        0.0010476470  -0.0048127989  -0.0024748529  -0.0029378299  -0.0011088914
        0.0005753043   0.0001508111  -0.0000107692  -0.0001425929   0.0000866801
       -0.0003051156  -0.0000658916  -0.0000578579   0.0000482744  -0.0000466035
        0.0000219273  -0.0000197373  -0.0000000614  -0.0000036405   0.0000252190
       -0.0000016002   0.0000148358  -0.0000095087  -0.0000171921   0.0000011879
       -0.0000034507   0.0000058948  -0.0000035893   0.0000005591  -0.0000242737
        0.0000049524  -0.0000341415   0.0000018873  -0.0000207414   0.0000121408
       -0.0000100090   0.0000044459  -0.0000005278  -0.0000014088   0.0000009189
        0.0000129955   0.0000060831  -0.0000057111  -0.0000184235  -0.0000347326
        0.0000068574   0.0000164815   0.0001222548  -0.0000081840   0.0003462550
       -0.0001669603  -0.0000946063  -0.0000158335   0.0000373372   0.0000493042
        0.0000162759  -0.0000716426  -0.0000037152  -0.0000215025  -0.0000097142
        0.0000172026   0.0000223927  -0.0000125339   0.0000001463  -0.0000164392
        0.0000033278   0.0000027152  -0.0000015512  -0.0000012126   0.0000027109
        0.0000032014  -0.0000206238   0.0000078185   0.0000095623   0.0000118074
       -0.0000083510  -0.0000022650  -0.0000071206  -0.0000030104  -0.0000080945
        0.0000008236   0.0000032628   0.0000134354  -0.0000067544  -0.0000074714
       -0.0000212867   0.0000259940   0.0000006669   0.0000849982   0.0000506030
       -0.0000043054   0.0009208686   0.0004663503   0.0000536737   0.0025550119
       -0.0028007017  -0.0015040021   0.0124476957   0.0003278329   0.0001686286
       -0.0011517878  -0.0000389148   0.0007174506  -0.0018474163  -0.0012618666
        0.0004438592  -0.0034731759  -0.0074758028  -0.0058665242  -0.0113219604
       -0.0255920344  -0.0054835305  -0.0004617560   0.0017608012   0.0007247907
        0.0034014955  -0.0039785941   0.0027709551  -0.0004405251   0.0020899803
        0.0006098730   0.0051156075  -0.0256215611   0.0141655497   0.0054825626
       -0.0065839123  -0.0250108046   0.0015526536  -0.0005319798  -0.0029050670
       -0.0050500218   0.0020774636   0.0224918020  -0.0000355906   0.0000281099
       -0.0000612548   0.0000096811   0.0000040120  -0.0000026305   0.0000021189
        0.0000039695  -0.0000021966  -0.0000000650   0.0000015386  -0.0000015661
       -0.0000068022   0.0000002702  -0.0000016034  -0.0000032769   0.0000011704
       -0.0000023909  -0.0000024976  -0.0000030187   0.0000015753  -0.0000040154
       -0.0000093974   0.0000047988  -0.0000056737   0.0000172675  -0.0000005471
        0.0000097486   0.0000128991  -0.0000156814   0.0000048862   0.0000005542
       -0.0000010499   0.0000035703  -0.0000012201  -0.0000012574   0.0000004073
        0.0000036653  -0.0000006661  -0.0000023531  -0.0000009829  -0.0000011469
       -0.0000008301   0.0000007595   0.0000009631  -0.0000027790  -0.0000033462
        0.0000036383   0.0000061348  -0.0000054865  -0.0000032615  -0.0000131746
        0.0000638210   0.0000170485
       -0.0167925900  -0.0348576755  -0.0772269812   0.0064942145   0.0063857452
        0.4698390680  -0.0156153650   0.0534100803  -0.1049166946   0.0242881411
       -0.0183548307  -0.1714222025   0.0052034571  -0.0102802489  -0.0472224316
       -0.0062109103   0.0045135060  -0.0004929020   0.0006395337   0.0008578117
       -0.0024843100  -0.0021188838  -0.0029148546   0.0033520913  -0.0002483128
        0.0000670338   0.0003615502  -0.0000939609   0.0002531488  -0.0003288273
       -0.0001147470  -0.0000070803  -0.0000820480   0.0000025051  -0.0000138043
        0.0000250871  -0.0000167665  -0.0000174866  -0.0000180263   0.0000091453
       -0.0000003593   0.0000018789   0.0000031286   0.0000005667  -0.0000012236
       -0.0000034215   0.0000085991  -0.0000033880  -0.0000101121  -0.0000086079
       -0.0000038091  -0.0000032584   0.0000097106  -0.0000132241   0.0000053421
       -0.0000117851   0.0000021655  -0.0000170014   0.0000115885  -0.0000085344
       -0.0000056767   0.0000042863  -0.0000079778   0.0000267294  -0.0000090741
        0.0000047144  -0.0000113340   0.0000009196   0.0000215777   0.0003568324
       -0.0001836873  -0.0000018085  -0.0001754876   0.0002058531  -0.0000536769
        0.0000146708  -0.0001141174   0.0000211731  -0.0000343327   0.0000130639
       -0.0000060567   0.0000269628  -0.0000210279   0.0000034356  -0.0000128847
       -0.0000003615  -0.0000029515   0.0000037852   0.0000135460  -0.0000045451
       -0.0000283324  -0.0000220763   0.0000163699   0.0000193258   0.0000436553
       -0.0000274804  -0.0000023790  -0.0000213821   0.0000115027  -0.0000179298
        0.0000244461  -0.0000098314   0.0000203564   0.0000038383  -0.0000089630
       -0.0000076159  -0.0000191605   0.0000027257   0.0000805413   0.0000185795
       -0.0000292077   0.0003451250  -0.0000205691   0.0005415895   0.0014780068
       -0.0015713850  -0.0004331939   0.0058014556   0.0000912979   0.0000080280
       -0.0015253974  -0.0004657060  -0.0021076562   0.0002128060   0.0015250526
       -0.0009493505  -0.0129118440  -0.0249166399  -0.0132943985   0.0070160958
        0.0134790688   0.0046717989  -0.0001110603   0.0008325485   0.0002557930
       -0.0013889543   0.0007332147  -0.0003701517  -0.0067560601   0.0225519597
       -0.0227176958   0.0022939661  -0.0047306134   0.0051184157   0.0018267059
       -0.0061729621  -0.0138208589   0.0033603799  -0.0008739523  -0.0037663186
        0.0047188767   0.0005584182  -0.0226809994  -0.0000210335  -0.0000863144
        0.0001738716  -0.0000034444   0.0000113788   0.0000074764  -0.0000053810
        0.0000073826  -0.0000017648  -0.0000033053   0.0000018515  -0.0000003781
       -0.0000013121  -0.0000014514   0.0000013021  -0.0000017978  -0.0000004664
       -0.0000012812  -0.0000002952  -0.0000003096   0.0000013847   0.0000077256
        0.0000087327   0.0000031094   0.0000130410   0.0000103246   0.0000105644
        0.0000001988   0.0000099326   0.0000009191  -0.0000024005   0.0000119222
       -0.0000014229  -0.0000008053   0.0000026098  -0.0000002425  -0.0000002493
        0.0000024931   0.0000037534  -0.0000013930   0.0000016408   0.0000014597
        0.0000005340  -0.0000009861   0.0000016878   0.0000045017   0.0000012970
       -0.0000003163   0.0000108608   0.0000003506   0.0000060644  -0.0000089154
        0.0000115202   0.0000525728
        0.0025827725  -0.0093281729   0.0051573094  -0.0622852085   0.0180942514
       -0.0156153650   0.5303531110   0.0193554729  -0.0128562860   0.0022211973
       -0.0035229907   0.0030212931  -0.0292513624   0.0273780811  -0.0155989574
        0.0012347335   0.0020573899  -0.0003968033  -0.0015790330   0.0002825384
       -0.0018572986  -0.0004909880   0.0000499980   0.0009303710   0.0002564693
        0.0002023645   0.0000758721   0.0002298412   0.0005603455   0.0001072861
       -0.0003914359  -0.0001927147  -0.0001313873   0.0002020539  -0.0001190490
        0.0000910387  -0.0000386571   0.0000137758  -0.0000353243   0.0000435381
       -0.0000083396   0.0000258968  -0.0000123742  -0.0000315316   0.0000056975
        0.0000126927   0.0000277709  -0.0000042552  -0.0000255531  -0.0000686155
        0.0000129930  -0.0000472126   0.0000305685  -0.0000362512   0.0000182842
       -0.0000222131   0.0000088535  -0.0000197183   0.0000019133  -0.0000105166
        0.0000309949   0.0000534147  -0.0000180598   0.0000351163  -0.0000464202
        0.0000361055   0.0000089191   0.0002228996  -0.0000082987   0.0004749846
       -0.0004168460  -0.0001622503  -0.0006154980   0.0002997373   0.0001024618
        0.0000475021  -0.0003177827   0.0000083984  -0.0000156208   0.0000670593
       -0.0000350609   0.0000332520  -0.0000506399   0.0000244998  -0.0000349954
       -0.0000173546   0.0000192298   0.0000324451   0.0000304695  -0.0000130635
       -0.0000795175  -0.0000442686   0.0000509931  -0.0000097360   0.0000888403
       -0.0000313262  -0.0000041045  -0.0000509923   0.0000180221  -0.0000193533
        0.0000420504  -0.0000121856   0.0000608998   0.0000174871  -0.0000354402
       -0.0000373548  -0.0000446923   0.0000382680   0.0002027182   0.0001587870
       -0.0000609590  -0.0003192891  -0.0003973159   0.0000975905  -0.0011563869
        0.0004383340   0.0003779742  -0.0013232526  -0.0032993653  -0.0024416435
        0.0003900262   0.0001627292   0.0001551974   0.0004877690   0.0018255515
       -0.0004766178   0.0000867352   0.0001480181   0.0002883625  -0.0005705770
       -0.0027588119  -0.0004090733   0.0005160815  -0.0006143996   0.0001905464
       -0.2845338609   0.0268622667   0.0065628834  -0.0651395335   0.0132631719
        0.0669375054  -0.0918630914  -0.0900121207  -0.0360387726  -0.0001034653
       -0.0000184478  -0.0000773185   0.0003647322  -0.0002116173   0.0002582014
        0.0002028156  -0.0001479122   0.0017125184   0.0000075926  -0.0000137820
        0.0000598475   0.0000071623   0.0000003475   0.0000100469  -0.0000070891
        0.0000127542  -0.0000072957  -0.0000132142   0.0000040151  -0.0000077165
       -0.0000177472  -0.0000048126  -0.0000013164  -0.0000187345  -0.0000064748
       -0.0000045589  -0.0000165882  -0.0000145006   0.0000025281  -0.0000040107
       -0.0000080109   0.0000044743  -0.0000209083   0.0000106411  -0.0000104440
        0.0000045989  -0.0000170345   0.0000013366   0.0000031226   0.0000145154
       -0.0000101207  -0.0000100092   0.0000132476  -0.0000066860  -0.0000156475
        0.0000079316   0.0000028291  -0.0000180916   0.0000068564  -0.0000005245
       -0.0000163230  -0.0000009832   0.0000070059  -0.0000057360  -0.0000091879
        0.0000069311  -0.0000005677   0.0000110271  -0.0000075930  -0.0000203145
        0.0000007780   0.0000084019
        0.0023646514  -0.0295279363   0.0140359120   0.0166891423  -0.1341004659
        0.0534100803   0.0193554729   0.4794548169   0.0410560904  -0.0005639513
        0.0005642757   0.0015342904   0.0138768122  -0.0056049098   0.0052427396
       -0.0017514127  -0.0007590790  -0.0008265497   0.0003737832   0.0004411789
        0.0007080896   0.0005278503   0.0001717234  -0.0002916382  -0.0000160269
       -0.0000809507  -0.0000140752  -0.0000270791  -0.0000835176  -0.0000074147
        0.0000851052   0.0000866882  -0.0000011977  -0.0000197543   0.0000262827
       -0.0000002057  -0.0000023022  -0.0000163730   0.0000068783  -0.0000121177
        0.0000008456  -0.0000061183   0.0000027757   0.0000066568  -0.0000022086
        0.0000080380  -0.0000096653   0.0000066393  -0.0000059913   0.0000093363
       -0.0000063988   0.0000243050   0.0000023635   0.0000094734  -0.0000088337
       -0.0000067333  -0.0000009562   0.0000064260   0.0000004782   0.0000081137
        0.0000037012  -0.0000089967   0.0000073573   0.0000172975   0.0000127863
       -0.0000050961  -0.0000173766  -0.0000924793   0.0000166860  -0.0000293628
        0.0000426716   0.0000114616   0.0000735765   0.0000123268  -0.0000344286
        0.0000097614   0.0000009992   0.0000066748  -0.0000214231  -0.0000056771
        0.0000112132  -0.0000056674   0.0000068099  -0.0000030893   0.0000031362
        0.0000036603  -0.0000032434  -0.0000001259  -0.0000115026   0.0000013926
       -0.0000012702   0.0000099275  -0.0000043046   0.0000140208  -0.0000120892
       -0.0000007609  -0.0000093420   0.0000046499  -0.0000010390   0.0000012208
       -0.0000036789   0.0000016201  -0.0000041396  -0.0000052684   0.0000032183
        0.0000112450   0.0000000270  -0.0000066688  -0.0000342824  -0.0000208951
        0.0000206746   0.0001303708   0.0000903075   0.0000221676   0.0003065149
       -0.0001116337  -0.0000923011  -0.0006618030   0.0002222720   0.0003119125
        0.0002778161   0.0000126563   0.0001514923   0.0002014189  -0.0000167931
       -0.0000886671   0.0004633387   0.0007535683   0.0010462281  -0.0023383169
       -0.0051496566  -0.0011144042   0.0010374162   0.0003270243   0.0004270563
        0.0280461557  -0.0447458202  -0.0012851683   0.0122374039  -0.0514508963
       -0.0423593377  -0.0908943947  -0.2116887040  -0.0698395171   0.0001408621
        0.0006784231  -0.0008683829   0.0000484245   0.0000280807  -0.0002622229
        0.0000771672   0.0005042221  -0.0009206571   0.0000014037   0.0000049408
       -0.0000033888   0.0000032322   0.0000048088  -0.0000017347  -0.0000007544
        0.0000003133  -0.0000006765   0.0000028475   0.0000019712   0.0000010168
        0.0000009082   0.0000042827   0.0000001874  -0.0000015325   0.0000036774
       -0.0000005401  -0.0000024983   0.0000020883  -0.0000001047  -0.0000037074
        0.0000074122  -0.0000030126  -0.0000132946  -0.0000049435   0.0000036640
        0.0000043731  -0.0000023200  -0.0000050949  -0.0000007536   0.0000025048
       -0.0000030947   0.0000060037  -0.0000033065  -0.0000009090   0.0000080396
        0.0000008070  -0.0000034394   0.0000034181   0.0000001975   0.0000000175
        0.0000021131   0.0000043715  -0.0000024366   0.0000043157   0.0000072833
       -0.0000015541  -0.0000048279   0.0000030708   0.0000026301   0.0000004768
        0.0000015032   0.0000070603
        0.0013885781  -0.0037613174   0.0034664939  -0.0134434411   0.0533846330
       -0.1049166946  -0.0128562860   0.0410560904   0.4957424257  -0.0044952341
        0.0212779469  -0.0239483493  -0.0066613998   0.0033370042   0.0012617690
        0.0006388079  -0.0007353048   0.0000825601  -0.0016679559   0.0003228860
       -0.0003091541  -0.0001865053   0.0000257469   0.0000601657   0.0000519694
        0.0000266180   0.0000168177  -0.0000350630  -0.0000013426  -0.0000023705
        0.0000202096  -0.0000157505   0.0000129257  -0.0000161465   0.0000016328
       -0.0000094341   0.0000069845   0.0000143008  -0.0000024017  -0.0000039249
       -0.0000009603   0.0000029306   0.0000023072  -0.0000023383   0.0000044148
       -0.0000039167   0.0000044308   0.0000023058   0.0000047696   0.0000031727
       -0.0000033471  -0.0000012202  -0.0000143828  -0.0000050627   0.0000045380
        0.0000024961  -0.0000016333  -0.0000014903   0.0000048796   0.0000082259
       -0.0000055997   0.0000048615  -0.0000037543  -0.0000084485  -0.0000073839
       -0.0000072324   0.0000112495   0.0000203096  -0.0000102218   0.0000123232
       -0.0000109053  -0.0000066482  -0.0000090982  -0.0000210914   0.0000144748
       -0.0000150284   0.0000311044  -0.0000063084   0.0000201247   0.0000038527
       -0.0000056637   0.0000006336  -0.0000022184   0.0000043562   0.0000008076
       -0.0000072543  -0.0000007811   0.0000005059   0.0000073332  -0.0000041110
        0.0000040528  -0.0000051170  -0.0000024886  -0.0000094130   0.0000037912
        0.0000023372   0.0000064727  -0.0000037823  -0.0000002693   0.0000028075
        0.0000018071  -0.0000031459  -0.0000065323   0.0000035014   0.0000000727
       -0.0000079095  -0.0000042725   0.0000005942   0.0000067645   0.0000042340
        0.0000022090  -0.0000153877   0.0000433684  -0.0000263578  -0.0000337923
       -0.0000103186  -0.0000037686   0.0000804280  -0.0004951245  -0.0004118733
        0.0001076730   0.0001536007   0.0002510305   0.0001297067  -0.0000546341
        0.0001366331  -0.0001832406  -0.0008983168   0.0008313736  -0.0007635785
       -0.0017875342   0.0001498912   0.0000457745  -0.0001810310   0.0000460350
        0.0062735700  -0.0008935966  -0.0424514154   0.0667937654  -0.0433805214
       -0.2540992728  -0.0354274500  -0.0687860546  -0.0712038380  -0.0001953102
        0.0009109930   0.0010453837  -0.0007663949   0.0004493647   0.0004415925
        0.0012273468  -0.0000048223  -0.0061291092  -0.0000046303   0.0000041417
       -0.0000183065  -0.0000021849  -0.0000044953  -0.0000020353   0.0000019364
       -0.0000011817   0.0000010739  -0.0000022430  -0.0000008842  -0.0000009917
       -0.0000024074  -0.0000028586  -0.0000006483   0.0000029479  -0.0000009593
       -0.0000007361   0.0000004985  -0.0000012231   0.0000010285  -0.0000014900
       -0.0000065689   0.0000038791  -0.0000003387   0.0000103924   0.0000042444
       -0.0000082966  -0.0000018632  -0.0000017835   0.0000005800  -0.0000041164