      -----------------------------------------------------------      
     |                   =====================                   |     
     |                           x T B                           |     
     |                   =====================                   |     
     |                         S. Grimme                         |     
     |          Mulliken Center for Theoretical Chemistry        |     
     |                    University of Bonn                     |     
      -----------------------------------------------------------      

   * xtb version 6.7.1 (edcfbbe) compiled by 'albert@albert-system' on 2024-07-22

   xtb is free software: you can redistribute it and/or modify it under
   the terms of the GNU Lesser General Public License as published by
   the Free Software Foundation, either version 3 of the License, or
   (at your option) any later version.
   
   xtb is distributed in the hope that it will be useful,
   but WITHOUT ANY WARRANTY; without even the implied warranty of
   MERCHANTABILITY or FITNESS FOR A PARTICULAR PURPOSE.  See the
   GNU Lesser General Public License for more details.
   
   Cite this work as:
   * C. Bannwarth, E. Caldeweyher, S. Ehlert, A. Hansen, P. Pracht,
     J. Seibert, S. Spicher, S. Grimme, WIREs Comput. Mol. Sci., 2020, 11,
     e01493. DOI: 10.1002/wcms.1493
   
   for GFN2-xTB:
   * C. Bannwarth, S. Ehlert and S. Grimme., J. Chem. Theory Comput., 2019,
     15, 1652-1671. DOI: 10.1021/acs.jctc.8b01176
   for GFN1-xTB:
   * S. Grimme, C. Bannwarth, P. Shushkov, J. Chem. Theory Comput., 2017,
     13, 1989-2009. DOI: 10.1021/acs.jctc.7b00118
   for GFN0-xTB:
   * P. Pracht, E. Caldeweyher, S. Ehlert, S. Grimme, ChemRxiv, 2019, preprint.
     DOI: 10.26434/chemrxiv.8326202.v1
   for GFN-FF:
   * S. Spicher and S. Grimme, Angew. Chem. Int. Ed., 2020, 59, 15665-15673.
     DOI: 10.1002/anie.202004239
   
   for ALPB and GBSA implicit solvation:
   * S. Ehlert, M. Stahn, S. Spicher, S. Grimme, J. Chem. Theory Comput.,
     2021, 17, 4250-4261. DOI: 10.1021/acs.jctc.1c00471
   
   for ddCOSMO and CPCM-X implicit solvation:
   * M. Stahn, S. Ehlert, S. Grimme, J. Phys. Chem. A,
     2023, XX, XXXX-XXXX. DOI: 10.1021/acs.jpca.3c04382
   
   for DFT-D4:
   * E. Caldeweyher, C. Bannwarth and S. Grimme, J. Chem. Phys., 2017,
     147, 034112. DOI: 10.1063/1.4993215
   * E. Caldeweyher, S. Ehlert, A. Hansen, H. Neugebauer, S. Spicher,
     C. Bannwarth and S. Grimme, J. Chem. Phys., 2019, 150, 154122.
     DOI: 10.1063/1.5090222
   * E. Caldeweyher, J.-M. Mewes, S. Ehlert and S. Grimme, Phys. Chem. Chem. Phys.
     2020, 22, 8499-8512. DOI: 10.1039/D0CP00502A
   
   for sTDA-xTB:
   * S. Grimme and C. Bannwarth, J. Chem. Phys., 2016, 145, 054103.
     DOI: 10.1063/1.4959605
   
   in the mass-spec context:
   * V. Asgeirsson, C. Bauer and S. Grimme, Chem. Sci., 2017, 8, 4879.
     DOI: 10.1039/c7sc00601b
   * J. Koopman and S. Grimme, ACS Omega 2019, 4, 12, 15120-15133.
     DOI: 10.1021/acsomega.9b02011
   
   for metadynamics refer to:
   * S. Grimme, J. Chem. Theory Comput., 2019, 155, 2847-2862
     DOI: 10.1021/acs.jctc.9b00143
   
   for SPH calculations refer to:
   * S. Spicher and S. Grimme, J. Chem. Theory Comput., 2021, 17, 1701-1714
     DOI: 10.1021/acs.jctc.0c01306
   
   for ONIOM refer to:
   * C. Plett, A. Katbashev, S. Ehlert, S. Grimme, M. Bursch,
     Phys. Chem. Chem. Phys., 2023, 25, 17860-17868. DOI: 10.1039/D3CP02178E
   
   for DIPRO refer to:
   * J. Kohn, N. Gildemeister, S. Grimme, D. Fazzi, A. Hansen,
     J. Chem. Phys., 2023, just accepted.
   
   for PTB refer to:
   * S. Grimme, M. Mueller, A. Hansen, J. Chem. Phys., 2023, 158, 124111.
     DOI: 10.1063/5.0137838
   
   with help from (in alphabetical order)
   P. Atkinson, C. Bannwarth, F. Bohle, G. Brandenburg, E. Caldeweyher
   M. Checinski, S. Dohm, S. Ehlert, S. Ehrlich, I. Gerasimov, C. Hölzer
   A. Katbashev, J. Kohn, J. Koopman, C. Lavigne, S. Lehtola, F. März, M. Müller,
   F. Musil, H. Neugebauer, J. Pisarek, C. Plett, P. Pracht, F. Pultar,
   J. Seibert, P. Shushkov, S. Spicher, M. Stahn, M. Steiner, T. Strunk,
   J. Stückrath, T. Rose, and J. Unsleber
   
 * started run on 2025/09/08 at 09:06:53.044     
   ID    Z sym.   atoms
    1    6 C      1-9, 11-23, 25-29, 31, 32, 34-38, 40-49, 51-59
    2    7 N      10, 24, 30, 33, 39, 50
    3    1 H      60-93

           -------------------------------------------------
          |                Calculation Setup                |
           -------------------------------------------------

          program call               : xtb data2507/gas/ACID–BPPZ/ACID–BPPZ_gas_T1_crest.xyz --gfn 2 --spinpol --tblite --uhf 2 --ohess vtight --parallel 40 --molden --ceasefiles --namespace data2507/gas/ACID–BPPZ/ACID–BPPZ_gas_T1_finalOpt
          calculation namespace      : data2507/gas/ACID–BPPZ/ACID–BPPZ_gas_T1_finalOpt
          coordinate file            : data2507/gas/ACID–BPPZ/ACID–BPPZ_gas_T1_crest.xyz
          omp threads                :                    40

repulsion energy          2.6890287658816E+00 Eh
dispersion energy        -2.8618190017592E-04 Eh
interaction energy        0.0000000000000E+00 Eh
number of electrons       2.7600000000000E+02 e
integral cutoff           1.7347787504999E+01 bohr

------------------------------------------------------------
  cycle        total energy    energy error   density error
------------------------------------------------------------
      1     -148.1204158439  -1.5080916E+02   9.9397082E-02
      2     -147.9490192823   1.7139656E-01   5.9292241E-02
      3     -146.1769333896   1.7720859E+00   6.3883910E-02
      4     -147.9281470209  -1.7512136E+00   3.1969932E-02
      5     -148.3838836318  -4.5573661E-01   2.2363364E-02
      6     -148.4481271921  -6.4243560E-02   1.5320290E-02
      7     -148.4327389559   1.5388236E-02   1.5623020E-02
      8     -148.4451853056  -1.2446350E-02   1.3675019E-02
      9     -148.3778713350   6.7313971E-02   2.1220261E-02
     10     -148.4422915497  -6.4420215E-02   9.3379888E-03
     11     -148.4508201242  -8.5285744E-03   5.1228795E-03
     12     -148.4545749040  -3.7547799E-03   3.0193377E-03
     13     -148.4565800106  -2.0051065E-03   1.1546790E-03
     14     -148.4566862215  -1.0621097E-04   5.6127359E-04
     15     -148.4567066641  -2.0442598E-05   3.2941511E-04
     16     -148.4567013215   5.3426313E-06   3.4944827E-04
     17     -148.4567035850  -2.2634664E-06   3.0388267E-04
     18     -148.4567141517  -1.0566721E-05   2.0699263E-04
     19     -148.4567153189  -1.1672164E-06   1.8315783E-04
     20     -148.4567163376  -1.0187302E-06   1.5688677E-04
     21     -148.4567170324  -6.9472290E-07   1.3865927E-04
     22     -148.4567177426  -7.1024539E-07   1.1688899E-04
     23     -148.4567182231  -4.8044515E-07   9.7705547E-05
     24     -148.4567187522  -5.2912975E-07   7.3435224E-05
     25     -148.4567192060  -4.5383771E-07   4.2403981E-05
     26     -148.4567193995  -1.9344407E-07   1.7180825E-05
------------------------------------------------------------

electronic energy        -1.5114546198344E+02 Eh
total energy             -1.4845671939946E+02 Eh

 total:                                   0.556 sec
 - repulsion                              0.000 sec (  0%)
 - dispersion                             0.018 sec (  3%)
 - coulomb                                0.008 sec (  1%)
 - hamiltonian                            0.016 sec (  2%)
 - scc                                    0.513 sec ( 92%)

      ----------------------------------------------------------- 
     |                   =====================                   |
     |                        A N C O P T                        |
     |                   =====================                   |
     |               Approximate Normal Coordinate               |
     |                Rational Function Optimizer                |
      ----------------------------------------------------------- 

Optimization log is written to '/dev/null'
      ----------------------------------------------------------- 
     |                   =====================                   |
     |                        A N C O P T                        |
     |                   =====================                   |
     |               Approximate Normal Coordinate               |
     |                Rational Function Optimizer                |
      ----------------------------------------------------------- 

          ...................................................
          :                      SETUP                      :
          :.................................................:
          :   optimization level         verytight          :
          :   max. optcycles                  1860          :
          :   ANC micro-cycles                  20          :
          :   degrees of freedom               273          :
          :.................................................:
          :   RF solver                   davidson          :
          :   write xtbopt.log                true          :
          :   linear?                        false          :
          :   energy convergence         0.1000000E-06 Eh   :
          :   grad. convergence          0.2000000E-03 Eh/α :
          :   maxmium RF displ.          1.0000000          :
          :   Hlow (freq-cutoff)         0.1000000E-01      :
          :   Hmax (freq-cutoff)         5.0000000          :
          :   S6 in model hess.         20.0000000          :
          ...................................................

generating ANC from exact Hessian ...
Using Lindh-Hessian (1995)
 Shifting diagonal of input Hessian by   9.934130286838927E-003
 Lowest  eigenvalues of input Hessian
    0.000000    0.000000    0.000000    0.000000    0.000000    0.000000
    0.010000    0.010052    0.010060    0.010261    0.010348    0.010430
    0.010889    0.011043    0.011298    0.011697    0.012137    0.012274
 Highest eigenvalues
    2.168680    2.178792    2.205313    2.218400    2.230254    2.282364
 

........................................................................
.............................. CYCLE    1 ..............................
........................................................................
------------------------------------------------------------
  cycle        total energy    energy error   density error
------------------------------------------------------------
      1     -148.4567183202  -1.5114546E+02   5.7410855E-05
      2     -148.4566676595   5.0660728E-05   3.9928395E-04
      3     -148.4567161667  -4.8507208E-05   9.7095530E-05
      4     -148.4567194224  -3.2556378E-06   6.9466353E-06
      5     -148.4567194388  -1.6403447E-08   1.6319075E-06
------------------------------------------------------------

 total:                                   0.116 sec
 * total energy  :  -148.4567194 Eh     change       -0.3929560E-07 Eh
   gradient norm :     0.0072315 Eh/α   predicted     0.0000000E+00 (-100.00%)
   displ. norm   :     0.0151506 α      lambda       -0.3996451E-04
   maximum displ.:     0.0055014 α      in ANC's #149, #3, #54, ...

........................................................................
.............................. CYCLE    2 ..............................
........................................................................
------------------------------------------------------------
  cycle        total energy    energy error   density error
------------------------------------------------------------
      1     -148.4567535654  -1.5114564E+02   2.3764850E-04
      2     -148.4566413584   1.1220694E-04   5.6488343E-04
      3     -148.4564733152   1.6804324E-04   9.7498431E-04
      4     -148.4566993343  -2.2601914E-04   4.4032556E-04
      5     -148.4567533951  -5.4060799E-05   9.6642743E-05
      6     -148.4567560486  -2.6534493E-06   1.9536657E-05
      7     -148.4567560893  -4.0690878E-08   1.6141684E-05
------------------------------------------------------------

 total:                                   0.147 sec
 * total energy  :  -148.4567561 Eh     change       -0.3665050E-04 Eh
   gradient norm :     0.0035152 Eh/α   predicted    -0.2632229E-04 ( -28.18%)
   displ. norm   :     0.0151894 α      lambda       -0.1562618E-04
   maximum displ.:     0.0059374 α      in ANC's #3, #6, #4, ...

........................................................................
.............................. CYCLE    3 ..............................
........................................................................
------------------------------------------------------------
  cycle        total energy    energy error   density error
------------------------------------------------------------
      1     -148.4567485460  -1.5114553E+02   2.4559191E-04
      2     -148.4553370282   1.4115178E-03   2.1222917E-03
      3     -148.4567177564  -1.3807281E-03   4.2032474E-04
      4     -148.4567497823  -3.2025933E-05   2.3704539E-04
      5     -148.4567653491  -1.5566796E-05   4.5885787E-05
      6     -148.4567652584   9.0683926E-08   4.6719896E-05
      7     -148.4567659552  -6.9679083E-07   8.6453380E-06
------------------------------------------------------------

 total:                                   0.154 sec
 * total energy  :  -148.4567660 Eh     change       -0.9865938E-05 Eh
   gradient norm :     0.0011711 Eh/α   predicted    -0.8748900E-05 ( -11.32%)
   displ. norm   :     0.0134779 α      lambda       -0.1716947E-05
   maximum displ.:     0.0068280 α      in ANC's #3, #6, #4, ...

........................................................................
.............................. CYCLE    4 ..............................
........................................................................
------------------------------------------------------------
  cycle        total energy    energy error   density error
------------------------------------------------------------
      1     -148.4567671746  -1.5114537E+02   8.6304245E-05
      2     -148.4567210440   4.6130544E-05   3.8568491E-04
      3     -148.4567671710  -4.6126984E-05   5.4274105E-05
      4     -148.4567667063   4.6467338E-07   6.4464209E-05
      5     -148.4567676874  -9.8108930E-07   1.5494578E-05
------------------------------------------------------------

 total:                                   0.113 sec
 * total energy  :  -148.4567677 Eh     change       -0.1732212E-05 Eh
   gradient norm :     0.0005840 Eh/α   predicted    -0.8883897E-06 ( -48.71%)
   displ. norm   :     0.0134779 α      lambda        0.0000000E+00
   maximum displ.:     0.0068280 α      in ANC's #3, #6, #4, ...

........................................................................
.............................. CYCLE    5 ..............................
........................................................................
------------------------------------------------------------
  cycle        total energy    energy error   density error
------------------------------------------------------------
      1     -148.4567665677  -1.5114519E+02   9.7518530E-05
      2     -148.4567646105   1.9571684E-06   1.0889982E-04
      3     -148.4567609970   3.6134986E-06   1.5012075E-04
      4     -148.4567661962  -5.1991566E-06   7.4641624E-05
      5     -148.4567676616  -1.4654674E-06   1.5552232E-05
      6     -148.4567677297  -6.8102679E-08   4.2460199E-06
------------------------------------------------------------

 total:                                   0.129 sec
 * total energy  :  -148.4567677 Eh     change       -0.4232490E-07 Eh
   gradient norm :     0.0012174 Eh/α   predicted    -0.4933083E-08 ( -88.34%)
   displ. norm   :     0.0062708 α      lambda       -0.1213289E-05
   maximum displ.:     0.0033592 α      in ANC's #3, #6, #4, ...

........................................................................
.............................. CYCLE    6 ..............................
........................................................................
------------------------------------------------------------
  cycle        total energy    energy error   density error
------------------------------------------------------------
      1     -148.4567689404  -1.5114526E+02   4.3729962E-05
      2     -148.4567689300   1.0365625E-08   2.5239761E-05
      3     -148.4567646526   4.2774078E-06   1.1844382E-04
      4     -148.4567689016  -4.2490080E-06   1.7684079E-05
      5     -148.4567689646  -6.3008684E-08   6.0127265E-06
------------------------------------------------------------

 total:                                   0.110 sec
 * total energy  :  -148.4567690 Eh     change       -0.1234889E-05 Eh
   gradient norm :     0.0004925 Eh/α   predicted    -0.6069776E-06 ( -50.85%)
   displ. norm   :     0.0179928 α      lambda       -0.9060046E-06
   maximum displ.:     0.0102130 α      in ANC's #3, #6, #4, ...

........................................................................
.............................. CYCLE    7 ..............................
........................................................................
------------------------------------------------------------
  cycle        total energy    energy error   density error
------------------------------------------------------------
      1     -148.4567694342  -1.5114532E+02   7.7884070E-05
      2     -148.4567229321   4.6502166E-05   3.8085476E-04
      3     -148.4567661156  -4.3183523E-05   1.1636958E-04
      4     -148.4567696556  -3.5399885E-06   4.0166697E-05
      5     -148.4567700169  -3.6138269E-07   1.1175329E-05
------------------------------------------------------------

 total:                                   0.111 sec
 * total energy  :  -148.4567700 Eh     change       -0.1052326E-05 Eh
   gradient norm :     0.0003060 Eh/α   predicted    -0.4543145E-06 ( -56.83%)
   displ. norm   :     0.0344894 α      lambda       -0.1157128E-05
   maximum displ.:     0.0194372 α      in ANC's #3, #6, #4, ...

........................................................................
.............................. CYCLE    8 ..............................
........................................................................
------------------------------------------------------------
  cycle        total energy    energy error   density error
------------------------------------------------------------
      1     -148.4567388585  -1.5114530E+02   3.3712043E-04
      2     -148.4543190630   2.4197955E-03   2.7392802E-03
      3     -148.4567713504  -2.4522874E-03   6.8102374E-05
      4     -148.4567709797   3.7071945E-07   4.5958228E-05
      5     -148.4567712940  -3.1434863E-07   2.8616533E-05
      6     -148.4567714529  -1.5885675E-07   1.5244995E-05
------------------------------------------------------------

 total:                                   0.130 sec
 * total energy  :  -148.4567715 Eh     change       -0.1435930E-05 Eh
   gradient norm :     0.0006262 Eh/α   predicted    -0.5828022E-06 ( -59.41%)
   displ. norm   :     0.0544905 α      lambda       -0.1607734E-05
   maximum displ.:     0.0309419 α      in ANC's #3, #6, #4, ...

........................................................................
.............................. CYCLE    9 ..............................
........................................................................
------------------------------------------------------------
  cycle        total energy    energy error   density error
------------------------------------------------------------
      1     -148.4567270499  -1.5114519E+02   4.1647673E-04
      2     -148.4484081618   8.3188881E-03   5.0850889E-03
      3     -148.4567709990  -8.3628372E-03   1.3485642E-04
      4     -148.4567702346   7.6437163E-07   1.0373584E-04
      5     -148.4567730675  -2.8329029E-06   3.8646430E-05
      6     -148.4567734358  -3.6823002E-07   1.7622962E-05
------------------------------------------------------------

 total:                                   0.131 sec
 * total energy  :  -148.4567734 Eh     change       -0.1982891E-05 Eh
   gradient norm :     0.0007698 Eh/α   predicted    -0.8076848E-06 ( -59.27%)
   displ. norm   :     0.0692824 α      lambda       -0.1834313E-05
   maximum displ.:     0.0402038 α      in ANC's #3, #6, #4, ...

........................................................................
.............................. CYCLE   10 ..............................
........................................................................
------------------------------------------------------------
  cycle        total energy    energy error   density error
------------------------------------------------------------
      1     -148.4566938742  -1.5114511E+02   5.4554354E-04
      2     -148.4408198731   1.5874001E-02   7.0210183E-03
      3     -148.4567726054  -1.5952732E-02   1.6800947E-04
      4     -148.4567674741   5.1313882E-06   1.7078274E-04
      5     -148.4567758296  -8.3555470E-06   4.7817976E-05
      6     -148.4567762025  -3.7288902E-07   2.4790491E-05
      7     -148.4567764251  -2.2259530E-07   3.1519085E-06
------------------------------------------------------------

 total:                                   0.148 sec
 * total energy  :  -148.4567764 Eh     change       -0.2989319E-05 Eh
   gradient norm :     0.0006315 Eh/α   predicted    -0.9205561E-06 ( -69.21%)
   displ. norm   :     0.0723635 α      lambda       -0.1678725E-05
   maximum displ.:     0.0434108 α      in ANC's #3, #4, #6, ...

........................................................................
.............................. CYCLE   11 ..............................
........................................................................
------------------------------------------------------------
  cycle        total energy    energy error   density error
------------------------------------------------------------
      1     -148.4567765834  -1.5114520E+02   2.2473431E-04
      2     -148.4565470338   2.2954961E-04   8.5108625E-04
      3     -148.4567572922  -2.1025844E-04   2.8293067E-04
      4     -148.4567771660  -1.9873821E-05   6.0348189E-05
      5     -148.4567783899  -1.2238287E-06   1.0360565E-05
      6     -148.4567784056  -1.5716580E-08   6.4899833E-06
------------------------------------------------------------

 total:                                   0.138 sec
 * total energy  :  -148.4567784 Eh     change       -0.1980498E-05 Eh
   gradient norm :     0.0002520 Eh/α   predicted    -0.8418222E-06 ( -57.49%)
   displ. norm   :     0.0551333 α      lambda       -0.1094778E-05
   maximum displ.:     0.0345334 α      in ANC's #3, #4, #6, ...

........................................................................
.............................. CYCLE   12 ..............................
........................................................................
------------------------------------------------------------
  cycle        total energy    energy error   density error
------------------------------------------------------------
      1     -148.4567764640  -1.5114522E+02   1.7999336E-04
      2     -148.4564504928   3.2597116E-04   1.0111831E-03
      3     -148.4567789283  -3.2843546E-04   9.8095419E-05
      4     -148.4567783669   5.6139368E-07   7.1134247E-05
      5     -148.4567797120  -1.3451251E-06   1.3083441E-05
      6     -148.4567797517  -3.9686483E-08   3.7796598E-06
------------------------------------------------------------

 total:                                   0.130 sec
 * total energy  :  -148.4567798 Eh     change       -0.1346114E-05 Eh
   gradient norm :     0.0001890 Eh/α   predicted    -0.5501574E-06 ( -59.13%)
   displ. norm   :     0.0422703 α      lambda       -0.9080895E-06
   maximum displ.:     0.0275818 α      in ANC's #3, #4, #6, ...

........................................................................
.............................. CYCLE   13 ..............................
........................................................................
------------------------------------------------------------
  cycle        total energy    energy error   density error
------------------------------------------------------------
      1     -148.4567790094  -1.5114525E+02   1.3724338E-04
      2     -148.4565299377   2.4907174E-04   8.8089917E-04
      3     -148.4567785722  -2.4863448E-04   1.0714574E-04
      4     -148.4567806659  -2.0937514E-06   3.6554029E-05
      5     -148.4567809411  -2.7516191E-07   6.5285756E-06
------------------------------------------------------------

 total:                                   0.111 sec
 * total energy  :  -148.4567809 Eh     change       -0.1189378E-05 Eh
   gradient norm :     0.0003164 Eh/α   predicted    -0.4553577E-06 ( -61.71%)
   displ. norm   :     0.0450675 α      lambda       -0.1064190E-05
   maximum displ.:     0.0298211 α      in ANC's #3, #4, #6, ...

........................................................................
.............................. CYCLE   14 ..............................
........................................................................
------------------------------------------------------------
  cycle        total energy    energy error   density error
------------------------------------------------------------
      1     -148.4567804627  -1.5114531E+02   1.4427063E-04
      2     -148.4565981795   1.8228320E-04   7.5768598E-04
      3     -148.4567795623  -1.8138278E-04   1.1434213E-04
      4     -148.4567804143  -8.5201111E-07   8.5651562E-05
      5     -148.4567823568  -1.9425216E-06   6.4848024E-06
      6     -148.4567823640  -7.2066655E-09   4.0563198E-06
------------------------------------------------------------

 total:                                   0.130 sec
 * total energy  :  -148.4567824 Eh     change       -0.1422934E-05 Eh
   gradient norm :     0.0003817 Eh/α   predicted    -0.5367628E-06 ( -62.28%)
   displ. norm   :     0.0499553 α      lambda       -0.1107866E-05
   maximum displ.:     0.0335551 α      in ANC's #3, #4, #6, ...

........................................................................
.............................. CYCLE   15 ..............................
........................................................................
------------------------------------------------------------
  cycle        total energy    energy error   density error
------------------------------------------------------------
      1     -148.4567812253  -1.5114534E+02   1.6123522E-04
      2     -148.4565786279   2.0259732E-04   7.9713407E-04
      3     -148.4567802052  -2.0157724E-04   1.2502206E-04
      4     -148.4567809846  -7.7941172E-07   7.7911186E-05
      5     -148.4567832518  -2.2671659E-06   1.0402519E-05
      6     -148.4567832775  -2.5715593E-08   4.6048461E-06
------------------------------------------------------------

 total:                                   0.130 sec
 * total energy  :  -148.4567833 Eh     change       -0.9134681E-06 Eh
   gradient norm :     0.0002935 Eh/α   predicted    -0.5582374E-06 ( -38.89%)
   displ. norm   :     0.0393284 α      lambda       -0.7302419E-06
   maximum displ.:     0.0271188 α      in ANC's #3, #4, #6, ...

........................................................................
.............................. CYCLE   16 ..............................
........................................................................
------------------------------------------------------------
  cycle        total energy    energy error   density error
------------------------------------------------------------
      1     -148.4567808005  -1.5114534E+02   1.5283690E-04
      2     -148.4564426175   3.3818305E-04   1.0272648E-03
      3     -148.4567831898  -3.4057235E-04   8.3587172E-05
      4     -148.4567830558   1.3401257E-07   6.3180165E-05
      5     -148.4567841602  -1.1044281E-06   8.2915112E-06
      6     -148.4567841745  -1.4309819E-08   3.5248664E-06
------------------------------------------------------------

 total:                                   0.130 sec
 * total energy  :  -148.4567842 Eh     change       -0.8970690E-06 Eh
   gradient norm :     0.0001563 Eh/α   predicted    -0.3677740E-06 ( -59.00%)
   displ. norm   :     0.0275621 α      lambda       -0.4822899E-06
   maximum displ.:     0.0198112 α      in ANC's #3, #4, #10, ...

........................................................................
.............................. CYCLE   17 ..............................
........................................................................
------------------------------------------------------------
  cycle        total energy    energy error   density error
------------------------------------------------------------
      1     -148.4567834531  -1.5114535E+02   1.0260359E-04
      2     -148.4566446502   1.3880292E-04   6.5783664E-04
      3     -148.4567842506  -1.3960040E-04   6.1080293E-05
      4     -148.4567842195   3.1121118E-08   4.6801003E-05
      5     -148.4567847799  -5.6044487E-07   9.9640726E-06
------------------------------------------------------------

 total:                                   0.113 sec
 * total energy  :  -148.4567848 Eh     change       -0.6053576E-06 Eh
   gradient norm :     0.0000839 Eh/α   predicted    -0.2444938E-06 ( -59.61%)
   displ. norm   :     0.0217061 α      lambda       -0.4264296E-06
   maximum displ.:     0.0159719 α      in ANC's #3, #4, #11, ...

........................................................................
.............................. CYCLE   18 ..............................
........................................................................
------------------------------------------------------------
  cycle        total energy    energy error   density error
------------------------------------------------------------
      1     -148.4567782889  -1.5114534E+02   1.5985411E-04
      2     -148.4561275520   6.5073683E-04   1.4200998E-03
      3     -148.4567849111  -6.5735912E-04   5.3358716E-05
      4     -148.4567851371  -2.2591456E-07   3.8376568E-05
      5     -148.4567853615  -2.2439136E-07   1.1261847E-05
------------------------------------------------------------

 total:                                   0.111 sec
 * total energy  :  -148.4567854 Eh     change       -0.5815457E-06 Eh
   gradient norm :     0.0001688 Eh/α   predicted    -0.2150776E-06 ( -63.02%)
   displ. norm   :     0.0251119 α      lambda       -0.5319068E-06
   maximum displ.:     0.0182272 α      in ANC's #3, #4, #11, ...

........................................................................
.............................. CYCLE   19 ..............................
........................................................................
------------------------------------------------------------
  cycle        total energy    energy error   density error
------------------------------------------------------------
      1     -148.4567849732  -1.5114529E+02   9.7832873E-05
      2     -148.4567147702   7.0202995E-05   4.7290821E-04
      3     -148.4567792716  -6.4501472E-05   1.4970697E-04
      4     -148.4567857139  -6.4422515E-06   4.3902801E-05
      5     -148.4567859187  -2.0476816E-07   2.0334998E-05
      6     -148.4567860211  -1.0248328E-07   1.3694490E-06
------------------------------------------------------------

 total:                                   0.130 sec
 * total energy  :  -148.4567860 Eh     change       -0.6596912E-06 Eh
   gradient norm :     0.0002078 Eh/α   predicted    -0.2666039E-06 ( -59.59%)
   displ. norm   :     0.0295774 α      lambda       -0.5897082E-06
   maximum displ.:     0.0213206 α      in ANC's #3, #4, #6, ...

........................................................................
.............................. CYCLE   20 ..............................
........................................................................
------------------------------------------------------------
  cycle        total energy    energy error   density error
------------------------------------------------------------
      1     -148.4567866055  -1.5114527E+02   8.8435826E-05
      2     -148.4567863994   2.0611822E-07   5.7475327E-05
      3     -148.4567272189   5.9180574E-05   4.2795938E-04
      4     -148.4567865636  -5.9344705E-05   1.3047631E-05
      5     -148.4567866144  -5.0796160E-08   2.7298314E-06
------------------------------------------------------------

 total:                                   0.105 sec
 * total energy  :  -148.4567866 Eh     change       -0.5932113E-06 Eh
   gradient norm :     0.0001954 Eh/α   predicted    -0.2958721E-06 ( -50.12%)
   displ. norm   :     0.0288367 α      lambda       -0.5117810E-06
   maximum displ.:     0.0209805 α      in ANC's #3, #4, #6, ...
 * RMSD in coord.:     0.0614851 α      energy gain  -0.6721489E-04 Eh

generating ANC from exact Hessian ...
Using Lindh-Hessian (1995)
 Shifting diagonal of input Hessian by   9.934243081306133E-003
 Lowest  eigenvalues of input Hessian
    0.000000    0.000000    0.000000    0.000000    0.000000    0.000000
    0.010000    0.010052    0.010060    0.010261    0.010348    0.010429
    0.010890    0.011048    0.011293    0.011698    0.012143    0.012272
 Highest eigenvalues
    2.168077    2.178788    2.205496    2.216106    2.229733    2.282037
 

........................................................................
.............................. CYCLE   21 ..............................
........................................................................
------------------------------------------------------------
  cycle        total energy    energy error   density error
------------------------------------------------------------
      1     -148.4567871779  -1.5114524E+02   8.4486933E-05
      2     -148.4567804862   6.6917017E-06   1.5139203E-04
      3     -148.4567746110   5.8751972E-06   2.0316327E-04
      4     -148.4567863957  -1.1784709E-05   4.9380666E-05
      5     -148.4567872898  -8.9413217E-07   3.2521711E-06
------------------------------------------------------------

 total:                                   0.107 sec
 * total energy  :  -148.4567873 Eh     change       -0.6754425E-06 Eh
   gradient norm :     0.0001428 Eh/α   predicted     0.0000000E+00 (-100.00%)
   displ. norm   :     0.0002142 α      lambda        0.0000000E+00
   maximum displ.:     0.0001018 α      in ANC's #273, #261, #257, ...

........................................................................
.............................. CYCLE   22 ..............................
........................................................................
------------------------------------------------------------
  cycle        total energy    energy error   density error
------------------------------------------------------------
      1     -148.4567869917  -1.5114524E+02   3.1347653E-05
      2     -148.4567549418   3.2049876E-05   3.1622145E-04
      3     -148.4567872597  -3.2317882E-05   1.2964009E-05
      4     -148.4567872943  -3.4679971E-08   6.8189237E-06
------------------------------------------------------------

 total:                                   0.089 sec
 * total energy  :  -148.4567873 Eh     change       -0.4544489E-08 Eh
   gradient norm :     0.0000693 Eh/α   predicted    -0.2576217E-08 ( -43.31%)
   displ. norm   :     0.0054666 α      lambda       -0.1271057E-06
   maximum displ.:     0.0041041 α      in ANC's #3, #6, #17, ...

   *** GEOMETRY OPTIMIZATION CONVERGED AFTER 22 ITERATIONS ***

------------------------------------------------------------------------
 total energy gain   :        -0.0000679 Eh       -0.0426 kcal/mol
 total RMSD          :         0.0614872 a0        0.0325 Å
 total power (kW/mol):        -0.0081026 (step)   -0.0632 (real)
------------------------------------------------------------------------

 ANCopt (total)                0 d,  0 h,  0 min,  2.822 sec
 optimizer setup                ...        0 min,  0.000 sec (  0.012%)
 model hessian                  ...        0 min,  0.068 sec (  2.423%)
 ANC generation                 ...        0 min,  0.015 sec (  0.546%)
 coordinate transformation      ...        0 min,  0.003 sec (  0.089%)
 single point calculation       ...        0 min,  2.722 sec ( 96.448%)
 optimization log               ...        0 min,  0.004 sec (  0.157%)
 hessian update                 ...        0 min,  0.003 sec (  0.101%)
 rational function              ...        0 min,  0.003 sec (  0.114%)

================
 final structure:
================
93
 xtb: 6.7.1 (edcfbbe)
C           -5.71991898610131       -3.20395234261717        0.10180071838946
C           -4.85769986920488       -2.59540721027212       -1.02016418333220
C           -5.68546683971742       -2.45708274067565       -2.31178933226742
C           -3.69172254390064       -3.52428022129250       -1.29174119694190
C           -3.93451660278048       -4.82036683168006       -1.72510237497834
C           -2.90897300599813       -5.70395183722713       -2.00558086169616
C           -1.59647476557622       -5.28732280834252       -1.86214561488137
C           -1.32595973931044       -4.00829030035299       -1.42827862511522
C           -2.36241484149279       -3.11714369203418       -1.12464286983942
N           -2.06091969321642       -1.84552939155627       -0.67693803754236
C           -0.69527590137245       -1.48764592512620       -0.48814100643545
C           -0.04238588126668       -0.70244317497720       -1.44997555106468
C            1.26936041152962       -0.36725286018791       -1.25901115848856
C            1.97361843391324       -0.80231586659910       -0.12175294088454
C            1.32114743025183       -1.59914945084908        0.85316805153344
C           -0.02653391548738       -1.91845326955705        0.63531051889542
C            2.05370635703972       -2.04466261417250        2.01017951084866
C            1.48446844887846       -2.84041638422997        3.01758234051787
C            2.21286632587959       -3.25080114471256        4.10636129000854
C            3.55331437684716       -2.88240326923491        4.23992312213134
C            4.14087926702595       -2.10702598824266        3.27576773701777
C            3.41323906401465       -1.67681074046360        2.15386532532505
C            4.06375868120185       -0.87112483671849        1.16885502728603
N            5.34269764256313       -0.52641875189698        1.30552445272855
C            5.95776597651043        0.22789972943812        0.39117340108914
C            7.32544312248625        0.59140683655238        0.53797200671650
C            8.07746070624228        0.16842151344268        1.64816622335546
C            9.39259395577637        0.54077734473431        1.75028264604142
C            9.93987583072772        1.33721918689447        0.73289119823878
N            9.26438374465154        1.74419372085712       -0.30844638899373
C            7.98139825767585        1.39461512219424       -0.43167557294370
C            7.24628548418316        1.84722526297923       -1.58148558704685
N            7.87046645284616        2.60472284787445       -2.48768886236748
C            7.21024954633330        3.02018234896612       -3.53551379438656
C            5.86198402897677        2.71611176089183       -3.77494816935718
C            5.19844360387572        1.94032164708641       -2.85957050606087
C            5.88306618024716        1.47888638250844       -1.72247961237921
C            5.23164503727102        0.67094856806693       -0.74609756567108
N            3.95323281301097        0.32194296233484       -0.88419749369712
C            3.34152299972694       -0.43413606378053        0.03232935378343
C           -3.03767296683961       -0.90167751285648       -0.41355058518776
C           -2.65389614781605        0.36012928398917        0.04681960663083
C           -3.61781447004830        1.31939259479691        0.28807407139125
C           -3.57034774463307        2.67676186404118        0.75611565891756
C           -2.53346720661566        3.52961086058902        1.10704011463828
C           -2.84188071401311        4.81844062613699        1.49663934409181
C           -4.16169979383247        5.26210229770141        1.52288293910976
C           -5.21084083919798        4.43077383801628        1.17734818976421
C           -4.90979426971025        3.12781348499559        0.80921403411614
N           -5.75193192043680        2.11229942880528        0.39655189257114
C           -7.14870594321105        2.18164649321638        0.31331982640472
C           -7.89281119644991        2.64842615547926        1.39329020647465
C           -9.27078758946154        2.71515694000105        1.30443482671557
C           -9.91760135036381        2.30889597894010        0.14898195112393
C           -9.17908470657555        1.83943640072999       -0.92467009929997
C           -7.80004487615499        1.77918944681213       -0.84963434806607
C           -4.97973454178935        1.01535840570697        0.07544459541983
C           -5.36309956115411       -0.25204235247938       -0.33046543437816
C           -4.40171194444946       -1.21618782120505       -0.58408590313204
H           -6.07747719044252       -4.19084573919264       -0.17808157133731
H           -5.13032876708820       -3.29761097334958        1.01180856871366
H           -6.58124075774230       -2.57663900863716        0.31453375014740
H           -6.02582428672852       -3.42778780654106       -2.66029251632609
H           -6.55878412688604       -1.83158136689777       -2.14977456589244
H           -5.07748444145070       -2.00614778513706       -3.09386014181612
H           -4.95251375826837       -5.15711434417670       -1.84990310113917
H           -3.13324028591133       -6.70543772826469       -2.33914136879840
H           -0.78146619462700       -5.95789395566987       -2.08890192435574
H           -0.30145547790983       -3.68709775256449       -1.32446116226009
H           -0.58488081981928       -0.37440511052594       -2.32371902003011
H            1.80034714260845        0.23535194422851       -1.97935537432322
H           -0.57041734754805       -2.52002398438908        1.34648842505745
H            0.45194571438142       -3.14353059610558        2.94469814306629
H            1.74730429166998       -3.86293439558446        4.86485496659536
H            4.11954983723742       -3.20938949253565        5.09920819673178
H            5.17481238376907       -1.80759059188078        3.35173352089419
H            7.59337790932508       -0.44340955437486        2.39553760226013
H            9.99952266796592        0.23413614652633        2.58814954624258
H           10.97435532409161        1.65301079615447        0.77563198068471
H            7.77036678696076        3.62998084067590       -4.23282694216200
H            5.36774175734406        3.08766358691010       -4.65933047506592
H            4.15983726867626        1.66909854130514       -2.98189629688309
H           -1.61444733983890        0.58699179323779        0.21913104006094
H           -1.50972508410421        3.18924389336479        1.06954453206039
H           -2.05088755086337        5.49806921980484        1.77596378305109
H           -4.37090133554710        6.28028903720825        1.81571131330767
H           -6.22842100223240        4.79108291178859        1.18255996126282
H           -7.38673200509004        2.94154105579787        2.30088039919772
H           -9.84289511165999        3.07824436260299        2.14526023274126
H          -10.99395072223646        2.35859986565108        0.08510159539895
H           -9.67899943084386        1.52681062125373       -1.82951281324503
H           -7.21900428911567        1.43867316773794       -1.69378840061109
H           -6.41112597358355       -0.48418386795582       -0.43444115876904
 
 Bond Distances (Angstroems)
 ---------------------------
C1-C2=1.5403         C1-H60=1.0863        C1-H61=1.0883        C1-H62=1.0866        C2-C1=1.5403         C2-C3=1.5403         
C2-C4=1.5153         C2-C59=1.5167        C3-C2=1.5403         C3-H63=1.0861        C3-H64=1.0864        C3-H65=1.0884        
C4-C2=1.5153         C4-C5=1.3880         C4-C9=1.4003         C5-C4=1.3880         C5-C6=1.3824         C5-H66=1.0795        
C6-C5=1.3824         C6-C7=1.3845         C6-H67=1.0791        C7-C6=1.3845         C7-C8=1.3774         C7-H68=1.0795        
C8-C7=1.3774         C8-C9=1.4002         C8-H69=1.0787        C9-C4=1.4003         C9-C8=1.4002         C9-N10=1.3814        
N10-C9=1.3814        N10-C11=1.4243       N10-C41=1.3836       C11-N10=1.4243       C11-C12=1.4028       C11-C16=1.3766       
C12-C11=1.4028       C12-C13=1.3673       C12-H70=1.0795       C13-C12=1.3673       C13-C14=1.4066       C13-H71=1.0789       
C14-C13=1.4066       C14-C15=1.4181       C14-C40=1.4249       C15-C14=1.4181       C15-C16=1.4020       C15-C17=1.4401       
C16-C11=1.3766       C16-C15=1.4020       C16-H72=1.0786       C17-C15=1.4401       C17-C18=1.4043       C17-C22=1.4157       
C18-C17=1.4043       C18-C19=1.3727       C18-H73=1.0786       C19-C18=1.3727       C19-C20=1.3966       C19-H74=1.0802       
C20-C19=1.3966       C20-C21=1.3697       C20-H75=1.0798       C21-C20=1.3697       C21-C22=1.4047       C21-H76=1.0791       
C22-C17=1.4157       C22-C21=1.4047       C22-C23=1.4292       C23-C22=1.4292       C23-N24=1.3316       C23-C40=1.4157       
N24-C23=1.3316       N24-C25=1.3354       C25-N24=1.3354       C25-C26=1.4228       C25-C38=1.4202       C26-C25=1.4228       
C26-C27=1.4061       C26-C31=1.4197       C27-C26=1.4061       C27-C28=1.3706       C27-H77=1.0804       C28-C27=1.3706       
C28-C29=1.4032       C28-H78=1.0791       C29-C28=1.4032       C29-N30=1.3063       C29-H79=1.0825       N30-C29=1.3063       
N30-C31=1.3355       C31-C26=1.4197       C31-N30=1.3355       C31-C32=1.4378       C32-C31=1.4378       C32-N33=1.3359       
C32-C37=1.4191       N33-C32=1.3359       N33-C34=1.3063       C34-N33=1.3063       C34-C35=1.4027       C34-H80=1.0825       
C35-C34=1.4027       C35-C36=1.3712       C35-H81=1.0791       C36-C35=1.3712       C36-C37=1.4052       C36-H82=1.0804       
C37-C32=1.4191       C37-C36=1.4052       C37-C38=1.4249       C38-C25=1.4202       C38-C37=1.4249       C38-N39=1.3324       
N39-C38=1.3324       N39-C40=1.3364       C40-C14=1.4249       C40-C23=1.4157       C40-N39=1.3364       C41-N10=1.3836       
C41-C42=1.3969       C41-C59=1.4102       C42-C41=1.3969       C42-C43=1.3811       C42-H83=1.0778       C43-C42=1.3811       
C43-C44=1.4366       C43-C57=1.4116       C44-C43=1.4366       C44-C45=1.3877       C44-C49=1.4143       C45-C44=1.3877       
C45-C46=1.3813       C45-H84=1.0795       C46-C45=1.3813       C46-C47=1.3926       C46-H85=1.0796       C47-C46=1.3926       
C47-C48=1.3825       C47-H86=1.0799       C48-C47=1.3825       C48-C49=1.3870       C48-H87=1.0795       C49-C44=1.4143       
C49-C48=1.3870       C49-N50=1.3823       N50-C49=1.3823       N50-C51=1.4010       N50-C57=1.3794       C51-N50=1.4010       
C51-C52=1.3921       C51-C56=1.3924       C52-C51=1.3921       C52-C53=1.3824       C52-H88=1.0797       C53-C52=1.3824       
C53-C54=1.3851       C53-H89=1.0799       C54-C53=1.3851       C54-C55=1.3851       C54-H90=1.0794       C55-C54=1.3851       
C55-C56=1.3824       C55-H91=1.0800       C56-C51=1.3924       C56-C55=1.3824       C56-H92=1.0799       C57-C43=1.4116       
C57-N50=1.3794       C57-C58=1.3849       C58-C57=1.3849       C58-C59=1.3850       C58-H93=1.0785       C59-C2=1.5167        
C59-C41=1.4102       C59-C58=1.3850       H60-C1=1.0863        H61-C1=1.0883        H62-C1=1.0866        H63-C3=1.0861        
H64-C3=1.0864        H65-C3=1.0884        H66-C5=1.0795        H67-C6=1.0791        H68-C7=1.0795        H69-C8=1.0787        
H70-C12=1.0795       H71-C13=1.0789       H72-C16=1.0786       H73-C18=1.0786       H74-C19=1.0802       H75-C20=1.0798       
H76-C21=1.0791       H77-C27=1.0804       H78-C28=1.0791       H79-C29=1.0825       H80-C34=1.0825       H81-C35=1.0791       
H82-C36=1.0804       H83-C42=1.0778       H84-C45=1.0795       H85-C46=1.0796       H86-C47=1.0799       H87-C48=1.0795       
H88-C52=1.0797       H89-C53=1.0799       H90-C54=1.0794       H91-C55=1.0800       H92-C56=1.0799       H93-C58=1.0785       
 C  H  Rav=1.0809 sigma=0.0030  Rmin=1.0778  Rmax=1.0884    34
 C  C  Rav=1.4082 sigma=0.0378  Rmin=1.3673  Rmax=1.5403    57
 N  C  Rav=1.3551 sigma=0.0349  Rmin=1.3063  Rmax=1.4243    14
 
 selected bond angles (degree)
 --------------------
H60-C1-C2=110.82               H61-C1-C2=109.86               H61-C1-H60=108.39              H62-C1-C2=110.99               
H62-C1-H60=108.30              H62-C1-H61=108.39              C3-C2-C1=110.21                C4-C2-C1=108.61                
C4-C2-C3=108.56                C59-C2-C1=108.55               C59-C2-C3=108.72               C59-C2-C4=112.19               
H63-C3-C2=110.93               H64-C3-C2=111.02               H64-C3-H63=108.09              H65-C3-C2=109.85               
H65-C3-H63=108.35              H65-C3-H64=108.52              C5-C4-C2=119.59                C9-C4-C2=122.06                
C9-C4-C5=118.35                C6-C5-C4=122.03                H66-C5-C4=119.49               H66-C5-C6=118.47               
C7-C6-C5=119.33                H67-C6-C5=120.11               H67-C6-C7=120.55               C8-C7-C6=119.88                
H68-C7-C6=120.47               H68-C7-C8=119.65               C9-C8-C7=120.92                H69-C8-C7=119.56               
H69-C8-C9=119.52               C8-C9-C4=119.46                N10-C9-C4=120.90               N10-C9-C8=119.64               
C11-N10-C9=118.91              C41-N10-C9=122.38              C41-N10-C11=118.70             
 
 selected dihedral angles (degree)
 ---------------------------------
C3-C2-C1-H60= 60.33           C3-C2-C1-H61=180.09           C3-C2-C1-H62=299.95           C4-C2-C1-H60=301.53           
C4-C2-C1-H61= 61.29           C4-C2-C1-H62=181.15           C59-C2-C1-H60=179.30          C59-C2-C1-H61=299.06          
C59-C2-C1-H62= 58.92          H63-C3-C2-C1=298.50           H63-C3-C2-C4= 57.33           H63-C3-C2-C59=179.63          
H64-C3-C2-C1= 58.70           H64-C3-C2-C4=177.54           H64-C3-C2-C59=299.84          H65-C3-C2-C1=178.74           
H65-C3-C2-C4=297.57           H65-C3-C2-C59= 59.87          C5-C4-C2-C1= 61.20            C5-C4-C2-C3=301.37            
C5-C4-C2-C59=181.19           C9-C4-C2-C1=240.95            C9-C4-C2-C3=121.11            C9-C4-C2-C59=  0.94           
C6-C5-C4-C2=179.08            C6-C5-C4-C9=359.33            H66-C5-C4-C2=359.10           H66-C5-C4-C9=179.34           
C7-C6-C5-C4=359.49            C7-C6-C5-H66=179.48           H67-C6-C5-C4=179.90           H67-C6-C5-H66=359.89          
C8-C7-C6-C5=  0.77            C8-C7-C6-H67=180.36           H68-C7-C6-C5=180.83           H68-C7-C6-H67=  0.42          
C9-C8-C7-C6=  0.16            C9-C8-C7-H68=180.10           H69-C8-C7-C6=180.39           H69-C8-C7-H68=  0.34          
C8-C9-C4-C2=181.83            C8-C9-C4-C5=  1.58            N10-C9-C4-C2=  1.21           N10-C9-C4-C5=180.96           
C4-C9-C8-C7=358.65            C4-C9-C8-H69=178.41           N10-C9-C8-C7=179.26           N10-C9-C8-H69=359.02          
C11-N10-C9-C4=178.35          C11-N10-C9-C8=357.73          C41-N10-C9-C4=357.88          C41-N10-C9-C8=177.26          
           -------------------------------------------------
          |                Final Singlepoint                |
           -------------------------------------------------
repulsion energy          2.6887462086668E+00 Eh
dispersion energy        -2.9813703858462E-04 Eh
interaction energy        0.0000000000000E+00 Eh
number of electrons       2.7600000000000E+02 e
integral cutoff           1.7347787504999E+01 bohr

------------------------------------------------------------
  cycle        total energy    energy error   density error
------------------------------------------------------------
      1     -148.4567783490  -1.5114523E+02   1.6589842E-04
      2     -148.4559435674   8.3478160E-04   1.6086607E-03
      3     -148.4567872439  -8.4367645E-04   1.4178359E-05
      4     -148.4567872767  -3.2868769E-08   9.6179866E-06
------------------------------------------------------------

electronic energy        -1.5114523534836E+02 Eh
total energy             -1.4845678727673E+02 Eh

 total:                                   0.088 sec
 - repulsion                              0.000 sec (  0%)
 - dispersion                             0.002 sec (  2%)
 - coulomb                                0.005 sec (  5%)
 - hamiltonian                            0.010 sec ( 10%)
 - scc                                    0.071 sec ( 80%)

           ------------------------------------------------- 
          |                Numerical Hessian                |
           ------------------------------------------------- 
step length          :   0.00500
SCC accuracy         :   0.30000
Hessian scale factor :   1.00000
frozen atoms in %    :   0.00000    0
RMS gradient         :   0.00008
estimated CPU  time     52.73 min
estimated wall time      1.32 min

writing file <hessian>.

 projected vibrational frequencies (cm⁻¹)
eigval :       -0.00    -0.00    -0.00     0.00     0.00     0.00
eigval :        5.22     9.43    10.03    20.35    27.27    33.10
eigval :       42.09    48.69    55.20    64.39    73.03    75.34
eigval :       78.07    83.95    89.93   100.17   105.05   113.20
eigval :      119.78   128.11   129.46   141.51   169.97   172.33
eigval :      185.56   186.14   190.94   196.24   200.58   213.97
eigval :      223.79   235.04   239.37   262.23   267.49   273.75
eigval :      287.93   295.78   306.65   315.65   336.95   341.70
eigval :      355.26   363.68   379.55   380.72   381.72   384.82
eigval :      392.64   398.45   400.62   404.87   406.07   422.03
eigval :      423.89   433.99   436.49   440.86   447.91   452.39
eigval :      477.66   495.34   498.54   511.02   520.35   522.09
eigval :      524.03   530.09   531.51   536.43   541.59   556.29
eigval :      571.80   581.91   585.35   588.11   593.58   596.07
eigval :      602.26   618.73   624.16   632.77   638.93   640.31
eigval :      654.97   656.29   666.34   673.92   678.79   683.33
eigval :      686.05   692.11   696.10   697.65   705.02   705.05
eigval :      722.93   734.19   744.50   761.91   765.35   770.67
eigval :      775.85   776.40   785.54   795.09   800.48   815.20
eigval :      817.26   833.83   837.87   858.97   867.67   868.38
eigval :      871.47   873.67   875.80   886.69   903.25   903.71
eigval :      904.92   908.35   909.90   910.52   913.05   914.69
eigval :      915.86   916.79   920.96   921.90   922.43   927.84
eigval :      933.33   933.69   934.53   938.04   957.03   972.71
eigval :      995.41  1014.39  1017.04  1018.47  1026.23  1040.95
eigval :     1071.36  1079.23  1081.69  1082.75  1088.34  1090.35
eigval :     1095.36  1096.29  1116.08  1118.00  1125.33  1129.39
eigval :     1136.70  1140.22  1153.96  1156.01  1156.12  1157.23
eigval :     1173.57  1175.62  1178.97  1179.10  1180.90  1184.06
eigval :     1186.60  1195.01  1204.30  1215.50  1226.10  1231.27
eigval :     1234.41  1242.38  1244.90  1250.98  1252.96  1261.53
eigval :     1269.31  1272.86  1283.60  1288.80  1292.76  1295.49
eigval :     1308.68  1316.63  1318.20  1325.00  1327.31  1335.18
eigval :     1338.91  1340.36  1346.61  1354.19  1362.61  1374.49
eigval :     1376.20  1387.83  1398.09  1401.24  1402.25  1407.94
eigval :     1415.83  1419.00  1425.31  1434.19  1435.52  1440.77
eigval :     1442.00  1449.61  1453.98  1457.96  1462.53  1473.54
eigval :     1480.25  1481.97  1485.86  1488.57  1490.41  1500.37
eigval :     1503.89  1505.76  1508.62  1513.85  1543.34  1556.32
eigval :     1558.13  1570.95  1573.34  1576.76  1581.61  1585.67
eigval :     1590.47  1591.20  1594.90  1598.50  1614.55  3027.52
eigval :     3029.53  3039.91  3042.81  3049.72  3051.53  3052.34
eigval :     3054.43  3075.32  3075.67  3076.23  3079.13  3079.73
eigval :     3081.57  3082.03  3084.22  3085.63  3086.24  3088.46
eigval :     3090.61  3091.07  3091.11  3091.41  3094.48  3095.85
eigval :     3097.33  3097.63  3098.04  3100.24  3100.49  3102.75
eigval :     3105.70  3106.93  3113.08
           -------------------------------------------------
          |                Property Printout                |
           -------------------------------------------------
           -------------------------------------------------
          |                Geometry Summary                 |
           -------------------------------------------------

      molecular mass/u    :      754.8792075
   center of mass at/Å    :       -0.0002796      -0.0004558       0.0017757
  moments of inertia/u·Å² :        0.7159443E+04   0.2461104E+05   0.2739548E+05
rotational constants/cm⁻¹ :        0.2354601E-02   0.6849623E-03   0.6153436E-03

 * 102 selected distances

     #   Z          #   Z                                           value/Å
     1   6 C        2   6 C                                       1.5403099
     2   6 C        3   6 C                                       1.5403337 (max)
     4   6 C        5   6 C                                       1.3880172
     5   6 C        6   6 C                                       1.3824365
     6   6 C        7   6 C                                       1.3844874
     7   6 C        8   6 C                                       1.3774409
     4   6 C        9   6 C                                       1.4002647
     8   6 C        9   6 C                                       1.4002059
     9   6 C       10   7 N                                       1.3814276
    10   7 N       11   6 C                                       1.4243273
    11   6 C       12   6 C                                       1.4028310
    12   6 C       13   6 C                                       1.3672961
    13   6 C       14   6 C                                       1.4066328
    14   6 C       15   6 C                                       1.4181444
    11   6 C       16   6 C                                       1.3765735
    15   6 C       16   6 C                                       1.4020208
    17   6 C       18   6 C                                       1.4043207
    18   6 C       19   6 C                                       1.3727414
    19   6 C       20   6 C                                       1.3965519
    20   6 C       21   6 C                                       1.3696855
    17   6 C       22   6 C                                       1.4157296
    21   6 C       22   6 C                                       1.4047102
    22   6 C       23   6 C                                       1.4291785
    23   6 C       24   7 N                                       1.3316103
    24   7 N       25   6 C                                       1.3354189
    25   6 C       26   6 C                                       1.4227538
    26   6 C       27   6 C                                       1.4060507
    27   6 C       28   6 C                                       1.3706394
    28   6 C       29   6 C                                       1.4031831
    29   6 C       30   7 N                                       1.3062550
    26   6 C       31   6 C                                       1.4197315
    30   7 N       31   6 C                                       1.3354560
    31   6 C       32   6 C                                       1.4378144
    32   6 C       33   7 N                                       1.3358927
    33   7 N       34   6 C                                       1.3063041
    34   6 C       35   6 C                                       1.4027145
    35   6 C       36   6 C                                       1.3711502
    32   6 C       37   6 C                                       1.4191265
    36   6 C       37   6 C                                       1.4052070
    25   6 C       38   6 C                                       1.4201864
    37   6 C       38   6 C                                       1.4249334
    38   6 C       39   7 N                                       1.3323718
    14   6 C       40   6 C                                       1.4249425
    23   6 C       40   6 C                                       1.4157240
    39   7 N       40   6 C                                       1.3363630
    10   7 N       41   6 C                                       1.3835739
    41   6 C       42   6 C                                       1.3969188
    42   6 C       43   6 C                                       1.3811331
    43   6 C       44   6 C                                       1.4365820
    44   6 C       45   6 C                                       1.3876675
    45   6 C       46   6 C                                       1.3812997
    46   6 C       47   6 C                                       1.3926404
    47   6 C       48   6 C                                       1.3824611
    44   6 C       49   6 C                                       1.4143495
    48   6 C       49   6 C                                       1.3870320
    49   6 C       50   7 N                                       1.3823006
    50   7 N       51   6 C                                       1.4009692
    51   6 C       52   6 C                                       1.3920892
    52   6 C       53   6 C                                       1.3824498
    53   6 C       54   6 C                                       1.3850948
    54   6 C       55   6 C                                       1.3851095
    51   6 C       56   6 C                                       1.3923638
    55   6 C       56   6 C                                       1.3823933
    43   6 C       57   6 C                                       1.4115505
    50   7 N       57   6 C                                       1.3793762
    57   6 C       58   6 C                                       1.3849320
    41   6 C       59   6 C                                       1.4101779
    58   6 C       59   6 C                                       1.3849788
     1   6 C       60   1 H                                       1.0863428
     1   6 C       61   1 H                                       1.0883488
     1   6 C       62   1 H                                       1.0865785
     3   6 C       63   1 H                                       1.0860784
     3   6 C       64   1 H                                       1.0863628
     3   6 C       65   1 H                                       1.0884025
     5   6 C       66   1 H                                       1.0794872
     6   6 C       67   1 H                                       1.0791351
     7   6 C       68   1 H                                       1.0795014
     8   6 C       69   1 H                                       1.0786806
    12   6 C       70   1 H                                       1.0795080
    13   6 C       71   1 H                                       1.0788769
    16   6 C       72   1 H                                       1.0786430
    18   6 C       73   1 H                                       1.0785610
    19   6 C       74   1 H                                       1.0801704
    20   6 C       75   1 H                                       1.0797748
    21   6 C       76   1 H                                       1.0790970
    27   6 C       77   1 H                                       1.0803877
    28   6 C       78   1 H                                       1.0790794
    29   6 C       79   1 H                                       1.0824505
    34   6 C       80   1 H                                       1.0825116
    35   6 C       81   1 H                                       1.0791008
    36   6 C       82   1 H                                       1.0803837
    42   6 C       83   1 H                                       1.0777810 (min)
    45   6 C       84   1 H                                       1.0794924
    46   6 C       85   1 H                                       1.0796238
    47   6 C       86   1 H                                       1.0799158
    48   6 C       87   1 H                                       1.0794996
    52   6 C       88   1 H                                       1.0797003
    53   6 C       89   1 H                                       1.0798736
    54   6 C       90   1 H                                       1.0793884
    55   6 C       91   1 H                                       1.0799954
    56   6 C       92   1 H                                       1.0798869
    58   6 C       93   1 H                                       1.0784527

 * 3 distinct bonds (by element types)

   Z      Z             #   av. dist./Å        max./Å        min./Å
   1 H    6 C          34     1.0809139     1.0884025     1.0777810
   6 C    6 C          54     1.4036165     1.5403337     1.3672961
   6 C    7 N          14     1.3551176     1.4243273     1.3062550

           -------------------------------------------------
          |               Frequency Printout                |
           -------------------------------------------------
 projected vibrational frequencies (cm⁻¹)
eigval :       -0.00    -0.00    -0.00     0.00     0.00     0.00
eigval :        5.22     9.43    10.03    20.35    27.27    33.10
eigval :       42.09    48.69    55.20    64.39    73.03    75.34
eigval :       78.07    83.95    89.93   100.17   105.05   113.20
eigval :      119.78   128.11   129.46   141.51   169.97   172.33
eigval :      185.56   186.14   190.94   196.24   200.58   213.97
eigval :      223.79   235.04   239.37   262.23   267.49   273.75
eigval :      287.93   295.78   306.65   315.65   336.95   341.70
eigval :      355.26   363.68   379.55   380.72   381.72   384.82
eigval :      392.64   398.45   400.62   404.87   406.07   422.03
eigval :      423.89   433.99   436.49   440.86   447.91   452.39
eigval :      477.66   495.34   498.54   511.02   520.35   522.09
eigval :      524.03   530.09   531.51   536.43   541.59   556.29
eigval :      571.80   581.91   585.35   588.11   593.58   596.07
eigval :      602.26   618.73   624.16   632.77   638.93   640.31
eigval :      654.97   656.29   666.34   673.92   678.79   683.33
eigval :      686.05   692.11   696.10   697.65   705.02   705.05
eigval :      722.93   734.19   744.50   761.91   765.35   770.67
eigval :      775.85   776.40   785.54   795.09   800.48   815.20
eigval :      817.26   833.83   837.87   858.97   867.67   868.38
eigval :      871.47   873.67   875.80   886.69   903.25   903.71
eigval :      904.92   908.35   909.90   910.52   913.05   914.69
eigval :      915.86   916.79   920.96   921.90   922.43   927.84
eigval :      933.33   933.69   934.53   938.04   957.03   972.71
eigval :      995.41  1014.39  1017.04  1018.47  1026.23  1040.95
eigval :     1071.36  1079.23  1081.69  1082.75  1088.34  1090.35
eigval :     1095.36  1096.29  1116.08  1118.00  1125.33  1129.39
eigval :     1136.70  1140.22  1153.96  1156.01  1156.12  1157.23
eigval :     1173.57  1175.62  1178.97  1179.10  1180.90  1184.06
eigval :     1186.60  1195.01  1204.30  1215.50  1226.10  1231.27
eigval :     1234.41  1242.38  1244.90  1250.98  1252.96  1261.53
eigval :     1269.31  1272.86  1283.60  1288.80  1292.76  1295.49
eigval :     1308.68  1316.63  1318.20  1325.00  1327.31  1335.18
eigval :     1338.91  1340.36  1346.61  1354.19  1362.61  1374.49
eigval :     1376.20  1387.83  1398.09  1401.24  1402.25  1407.94
eigval :     1415.83  1419.00  1425.31  1434.19  1435.52  1440.77
eigval :     1442.00  1449.61  1453.98  1457.96  1462.53  1473.54
eigval :     1480.25  1481.97  1485.86  1488.57  1490.41  1500.37
eigval :     1503.89  1505.76  1508.62  1513.85  1543.34  1556.32
eigval :     1558.13  1570.95  1573.34  1576.76  1581.61  1585.67
eigval :     1590.47  1591.20  1594.90  1598.50  1614.55  3027.52
eigval :     3029.53  3039.91  3042.81  3049.72  3051.53  3052.34
eigval :     3054.43  3075.32  3075.67  3076.23  3079.13  3079.73
eigval :     3081.57  3082.03  3084.22  3085.63  3086.24  3088.46
eigval :     3090.61  3091.07  3091.11  3091.41  3094.48  3095.85
eigval :     3097.33  3097.63  3098.04  3100.24  3100.49  3102.75
eigval :     3105.70  3106.93  3113.08
 reduced masses (amu)
   1: 11.42   2: 11.69   3: 11.83   4: 11.48   5: 11.83   6: 11.42   7: 11.29   8: 11.27
   9: 11.04  10: 11.10  11: 10.10  12: 11.04  13: 11.76  14: 10.86  15: 10.57  16: 10.23
  17: 10.93  18: 10.59  19: 10.83  20: 10.37  21: 10.47  22: 10.58  23: 10.42  24: 10.59
  25: 11.06  26:  4.26  27: 10.64  28:  9.80  29: 11.56  30: 10.70  31: 10.94  32: 11.29
  33:  2.69  34:  9.30  35:  9.73  36: 10.44  37: 10.96  38: 10.83  39: 10.44  40: 10.85
  41: 10.55  42: 10.51  43: 10.35  44: 10.88  45: 10.88  46: 10.54  47:  9.62  48: 10.51
  49: 11.19  50: 10.41  51: 11.05  52:  9.51  53:  9.96  54: 10.19  55:  9.95  56: 11.54
  57: 11.35  58: 11.59  59: 10.27  60: 10.42  61: 11.15  62: 10.80  63: 10.73  64: 11.70
  65: 10.57  66: 10.18  67: 10.29  68: 11.33  69: 11.14  70: 10.61  71: 11.57  72:  9.70
  73: 10.88  74: 10.12  75: 11.33  76: 11.23  77: 10.82  78: 11.02  79: 10.97  80: 12.14
  81: 11.83  82: 11.65  83: 11.41  84: 11.50  85: 11.41  86: 11.20  87: 10.86  88: 11.21
  89: 11.68  90: 11.69  91: 11.74  92: 11.30  93: 10.63  94: 10.36  95: 11.62  96: 11.53
  97: 11.34  98: 11.56  99: 11.51 100: 12.42 101: 11.63 102: 11.65 103: 11.60 104: 11.02
 105: 12.07 106:  8.16 107:  7.49 108:  4.18 109:  3.59 110:  3.38 111:  3.79 112:  3.94
 113: 11.08 114: 10.85 115:  5.52 116:  5.66 117:  7.98 118:  3.83 119:  3.49 120:  3.35
 121:  3.59 122:  3.46 123: 11.62 124:  3.27 125:  3.87 126:  4.20 127:  4.21 128:  3.91
 129:  4.06 130:  3.54 131: 10.68 132:  3.81 133:  3.64 134:  3.60 135:  3.26 136:  3.09
 137:  3.16 138: 10.80 139: 10.41 140:  3.96 141:  4.11 142:  9.17 143:  4.58 144: 11.59
 145: 10.79 146:  3.30 147: 10.32 148: 11.29 149: 10.19 150: 10.30 151:  5.95 152:  7.26
 153:  6.70 154:  7.14 155:  7.75 156:  7.63 157:  6.17 158:  8.21 159:  5.90 160:  3.97
 161:  7.44 162:  3.88 163:  5.51 164:  6.10 165:  7.95 166:  6.23 167: 10.02 168:  7.17
 169:  6.44 170:  5.14 171:  2.15 172:  2.92 173:  1.49 174:  4.73 175:  1.64 176:  2.95
 177:  7.45 178:  6.85 179:  5.68 180:  6.07 181:  4.86 182:  9.18 183:  6.14 184:  6.21
 185:  7.01 186:  8.10 187:  7.81 188:  7.31 189:  6.66 190:  8.21 191:  9.17 192:  9.30
 193: 10.30 194: 10.92 195: 11.80 196:  9.24 197: 10.67 198: 11.14 199: 10.33 200: 10.91
 201: 10.97 202: 11.77 203: 10.86 204: 10.32 205: 10.73 206: 11.01 207: 11.34 208: 10.60
 209:  2.97 210: 10.71 211: 10.31 212:  4.14 213:  9.32 214:  9.43 215:  9.53 216:  9.94
 217: 11.04 218: 11.43 219: 11.83 220: 10.83 221: 10.66 222: 10.45 223:  9.61 224: 10.10
 225: 10.42 226:  1.61 227:  1.62 228:  1.59 229:  2.68 230: 11.65 231: 11.68 232: 11.62
 233: 11.61 234: 11.81 235: 11.74 236: 11.96 237: 11.55 238: 11.58 239: 11.55 240: 11.62
 241: 11.46 242: 11.49 243: 11.49 244: 11.70 245: 11.74 246:  1.86 247:  1.77 248:  1.92
 249:  1.92 250:  1.37 251:  1.79 252:  1.79 253:  1.44 254:  1.79 255:  1.79 256:  1.76
 257:  1.75 258:  1.76 259:  1.75 260:  1.78 261:  1.80 262:  1.82 263:  1.81 264:  1.79
 265:  1.85 266:  1.89 267:  1.85 268:  1.89 269:  1.87 270:  1.85 271:  1.86 272:  1.85
 273:  1.90 274:  1.92 275:  1.88 276:  1.87 277:  1.85 278:  1.83 279:  1.82
 IR intensities (km·mol⁻¹)
   1:  0.88   2:  0.10   3:  0.35   4:  0.15   5:  0.32   6:  0.27   7:  0.83   8:  0.82
   9:  2.13  10:  0.07  11:  0.00  12:  2.36  13:  6.18  14:  0.10  15:  0.09  16:  1.57
  17:  6.17  18:  0.39  19:  4.00  20:  2.23  21:  4.25  22:  0.38  23:  0.53  24:  1.10
  25:  3.45  26:  0.77  27:  0.14  28:  1.68  29:  9.58  30:  1.05  31:  1.66  32:  1.24
  33:  0.26  34:  0.64  35:  4.47  36:  0.94  37:  6.19  38:  3.33  39:  2.13  40:  8.87
  41:  0.07  42:  4.85  43:  0.16  44:  6.83  45:  0.27  46:  2.31  47:  1.25  48:  0.49
  49:  5.44  50: 11.17  51: 12.04  52:  1.67  53:  1.35  54:  2.27  55:  2.38  56: 37.65
  57:  4.86  58: 17.50  59:  6.52  60: 12.98  61: 14.34  62:  2.40  63:  7.24  64:  2.01
  65:  2.29  66:  0.19  67:  3.83  68:  5.98  69:  1.26  70:  1.34  71:  1.51  72:  4.80
  73:  6.74  74: 14.97  75:  9.22  76:  1.45  77:  0.50  78:  2.75  79:  8.29  80: 71.92
  81:  1.05  82:  4.07  83:  7.35  84: 10.58  85:  7.07  86:  3.91  87:  6.99  88:  3.81
  89:  3.27  90: 14.14  91: 17.22  92: 31.49  93: 40.94  94: 28.81  95:  5.97  96:  1.65
  97: 22.89  98: 31.60  99: 51.10 100:200.08 101: 19.59 102:  1.00 103:  0.71 104: 28.70
 105:  2.14 106: 24.67 107: 20.55 108: 15.25 109: 23.34 110: 16.35 111: 17.80 112:  0.05
 113:108.63 114: 37.99 115:  6.30 116: 12.36 117:  0.72 118:  1.63 119:  1.90 120:  1.27
 121:  1.80 122:  2.22 123:  9.91 124:  2.33 125:  0.45 126:  0.81 127:  1.31 128:  0.21
 129:  0.48 130:  0.69 131: 29.61 132:  2.33 133:  0.19 134:  0.56 135:  0.65 136:  1.28
 137:  0.12 138:  5.72 139: 12.07 140:  1.39 141:  3.63 142: 13.64 143:  0.48 144: 11.84
 145:  3.96 146:  0.42 147: 12.27 148: 56.06 149:  7.02 150: 16.75 151:  6.56 152:  2.04
 153: 52.43 154: 14.13 155:  5.21 156: 92.46 157:  1.21 158:270.86 159: 29.20 160:  2.71
 161:  3.85 162:  1.58 163:  4.53 164: 41.88 165: 13.13 166: 18.56 167:  4.15 168:  6.67
 169: 17.82 170: 39.30 171:  5.08 172:  3.37 173:  0.90 174:  1.89 175:  3.48 176: 11.65
 177: 13.92 178:115.00 179: 11.27 180: 17.92 181:  8.59 182: 82.26 183: 14.06 184:  9.28
 185: 14.89 186: 31.89 187: 56.33 188: 10.91 189: 47.77 190: 11.57 191:  8.74 192: 10.15
 193: 82.50 194: 59.66 195:  3.74 196: 11.14 197: 13.05 198: 42.85 199: 78.70 200: 58.08
 201: 32.10 202:  6.17 203: 30.86 204:194.99 205: 23.61 206:403.21 207: 22.89 208:  4.91
 209:  3.77 210:  8.19 211:  1.85 212: 37.68 213: 90.77 214: 53.93 215: 75.61 216:140.81
 217: 23.69 218: 60.18 219:****** 220:112.02 221: 45.24 222:157.52 223: 19.66 224:259.79
 225:137.64 226:  0.20 227:  1.03 228:  1.77 229:  3.54 230:  5.42 231:  4.13 232: 49.18
 233: 33.77 234:  1.18 235: 40.80 236: 14.51 237:  0.83 238:  8.26 239:  6.86 240: 93.61
 241:  2.14 242:  5.73 243:145.07 244: 91.93 245:161.66 246: 32.82 247: 39.82 248:  3.15
 249: 39.47 250: 11.60 251: 37.92 252: 68.86 253: 23.37 254:  4.86 255: 54.90 256: 39.50
 257:  1.19 258: 17.13 259:  2.05 260:  5.80 261: 12.60 262: 53.65 263: 26.23 264: 26.64
 265:149.51 266: 75.43 267:  3.71 268:108.87 269: 47.34 270:  4.45 271:102.13 272:344.98
 273: 37.12 274: 52.49 275: 19.03 276: 92.73 277: 83.81 278: 70.38 279: 15.14
 Raman intensities (Ä⁴*amu⁻¹)
   1:  0.00   2:  0.00   3:  0.00   4:  0.00   5:  0.00   6:  0.00   7:  0.00   8:  0.00
   9:  0.00  10:  0.00  11:  0.00  12:  0.00  13:  0.00  14:  0.00  15:  0.00  16:  0.00
  17:  0.00  18:  0.00  19:  0.00  20:  0.00  21:  0.00  22:  0.00  23:  0.00  24:  0.00
  25:  0.00  26:  0.00  27:  0.00  28:  0.00  29:  0.00  30:  0.00  31:  0.00  32:  0.00
  33:  0.00  34:  0.00  35:  0.00  36:  0.00  37:  0.00  38:  0.00  39:  0.00  40:  0.00
  41:  0.00  42:  0.00  43:  0.00  44:  0.00  45:  0.00  46:  0.00  47:  0.00  48:  0.00
  49:  0.00  50:  0.00  51:  0.00  52:  0.00  53:  0.00  54:  0.00  55:  0.00  56:  0.00
  57:  0.00  58:  0.00  59:  0.00  60:  0.00  61:  0.00  62:  0.00  63:  0.00  64:  0.00
  65:  0.00  66:  0.00  67:  0.00  68:  0.00  69:  0.00  70:  0.00  71:  0.00  72:  0.00
  73:  0.00  74:  0.00  75:  0.00  76:  0.00  77:  0.00  78:  0.00  79:  0.00  80:  0.00
  81:  0.00  82:  0.00  83:  0.00  84:  0.00  85:  0.00  86:  0.00  87:  0.00  88:  0.00
  89:  0.00  90:  0.00  91:  0.00  92:  0.00  93:  0.00  94:  0.00  95:  0.00  96:  0.00
  97:  0.00  98:  0.00  99:  0.00 100:  0.00 101:  0.00 102:  0.00 103:  0.00 104:  0.00
 105:  0.00 106:  0.00 107:  0.00 108:  0.00 109:  0.00 110:  0.00 111:  0.00 112:  0.00
 113:  0.00 114:  0.00 115:  0.00 116:  0.00 117:  0.00 118:  0.00 119:  0.00 120:  0.00
 121:  0.00 122:  0.00 123:  0.00 124:  0.00 125:  0.00 126:  0.00 127:  0.00 128:  0.00
 129:  0.00 130:  0.00 131:  0.00 132:  0.00 133:  0.00 134:  0.00 135:  0.00 136:  0.00
 137:  0.00 138:  0.00 139:  0.00 140:  0.00 141:  0.00 142:  0.00 143:  0.00 144:  0.00
 145:  0.00 146:  0.00 147:  0.00 148:  0.00 149:  0.00 150:  0.00 151:  0.00 152:  0.00
 153:  0.00 154:  0.00 155:  0.00 156:  0.00 157:  0.00 158:  0.00 159:  0.00 160:  0.00
 161:  0.00 162:  0.00 163:  0.00 164:  0.00 165:  0.00 166:  0.00 167:  0.00 168:  0.00
 169:  0.00 170:  0.00 171:  0.00 172:  0.00 173:  0.00 174:  0.00 175:  0.00 176:  0.00
 177:  0.00 178:  0.00 179:  0.00 180:  0.00 181:  0.00 182:  0.00 183:  0.00 184:  0.00
 185:  0.00 186:  0.00 187:  0.00 188:  0.00 189:  0.00 190:  0.00 191:  0.00 192:  0.00
 193:  0.00 194:  0.00 195:  0.00 196:  0.00 197:  0.00 198:  0.00 199:  0.00 200:  0.00
 201:  0.00 202:  0.00 203:  0.00 204:  0.00 205:  0.00 206:  0.00 207:  0.00 208:  0.00
 209:  0.00 210:  0.00 211:  0.00 212:  0.00 213:  0.00 214:  0.00 215:  0.00 216:  0.00
 217:  0.00 218:  0.00 219:  0.00 220:  0.00 221:  0.00 222:  0.00 223:  0.00 224:  0.00
 225:  0.00 226:  0.00 227:  0.00 228:  0.00 229:  0.00 230:  0.00 231:  0.00 232:  0.00
 233:  0.00 234:  0.00 235:  0.00 236:  0.00 237:  0.00 238:  0.00 239:  0.00 240:  0.00
 241:  0.00 242:  0.00 243:  0.00 244:  0.00 245:  0.00 246:  0.00 247:  0.00 248:  0.00
 249:  0.00 250:  0.00 251:  0.00 252:  0.00 253:  0.00 254:  0.00 255:  0.00 256:  0.00
 257:  0.00 258:  0.00 259:  0.00 260:  0.00 261:  0.00 262:  0.00 263:  0.00 264:  0.00
 265:  0.00 266:  0.00 267:  0.00 268:  0.00 269:  0.00 270:  0.00 271:  0.00 272:  0.00
 273:  0.00 274:  0.00 275:  0.00 276:  0.00 277:  0.00 278:  0.00 279:  0.00
 output can be read by thermo (or use thermo option).
 writing <g98.out> molden fake output.
 recommended (thermochemical) frequency scaling factor: 1.0
           -------------------------------------------------
          |             Thermodynamic Functions             |
           -------------------------------------------------

Molecule has no symmetry elements
It seems to be the C1 point group
c1  symmetry found (for desy threshold:  0.10E+00) used in thermo

          ...................................................
          :                      SETUP                      :
          :.................................................:
          :  # frequencies                         273      :
          :  # imaginary freq.                       0      :
          :  linear?                             false      :
          :  only rotor calc.                    false      :
          :  symmetry                               c1      :
          :  rotational number                       1      :
          :  scaling factor                  1.0000000      :
          :  rotor cutoff                   50.0000000 cm⁻¹ :
          :  imag. cutoff                  -20.0000000 cm⁻¹ :
          :.................................................:

    mode    ω/cm⁻¹     T·S(HO)/kcal·mol⁻¹    T·S(FR)/kcal·mol⁻¹   T·S(vib)
   ------------------------------------------------------------------------
       1      5.22    -2.77329 (  0.01%)    -1.72570 ( 99.99%)    -1.72583
       2      9.43    -2.42351 (  0.13%)    -1.55082 ( 99.87%)    -1.55192
       3     10.03    -2.38687 (  0.16%)    -1.53250 ( 99.84%)    -1.53388
       4     20.35    -1.96777 (  2.67%)    -1.32287 ( 97.33%)    -1.34009
       5     27.27    -1.79457 (  8.12%)    -1.23618 ( 91.88%)    -1.28155
       6     33.10    -1.67989 ( 16.11%)    -1.17874 ( 83.89%)    -1.25948
       7     42.09    -1.53797 ( 33.42%)    -1.10759 ( 66.58%)    -1.25143
       8     48.69    -1.45201 ( 47.34%)    -1.06444 ( 52.66%)    -1.24791
       9     55.20    -1.37801 ( 59.76%)    -1.02724 ( 40.24%)    -1.23688
      10     64.39    -1.28736 ( 73.34%)    -0.98161 ( 26.66%)    -1.20584
      11     73.03    -1.21346 ( 81.99%)    -0.94432 ( 18.01%)    -1.16498
      12     75.34    -1.19523 ( 83.75%)    -0.93510 ( 16.25%)    -1.15296
      13     78.07    -1.17436 ( 85.60%)    -0.92455 ( 14.40%)    -1.13838
      14     83.95    -1.13185 ( 88.82%)    -0.90302 ( 11.18%)    -1.10628
      15     89.93    -1.09171 ( 91.28%)    -0.88266 (  8.72%)    -1.07348
      16    100.17    -1.02894 ( 94.15%)    -0.85072 (  5.85%)    -1.01852
      17    105.05    -1.00129 ( 95.12%)    -0.83661 (  4.88%)    -0.99325
      18    113.20    -0.95806 ( 96.33%)    -0.81449 (  3.67%)    -0.95280
      19    119.78    -0.92544 ( 97.05%)    -0.79774 (  2.95%)    -0.92167
      20    128.11    -0.88678 ( 97.73%)    -0.77783 (  2.27%)    -0.88431
      21    129.46    -0.88074 ( 97.82%)    -0.77471 (  2.18%)    -0.87843
      22    141.51    -0.82984 ( 98.47%)    -0.74835 (  1.53%)    -0.82859
      23    169.97    -0.72622 ( 99.26%)    -0.69406 (  0.74%)    -0.72598
      24    172.33    -0.71851 ( 99.30%)    -0.68998 (  0.70%)    -0.71831
      25    185.56    -0.67732 ( 99.48%)    -0.66807 (  0.52%)    -0.67727
      26    186.14    -0.67558 ( 99.48%)    -0.66715 (  0.52%)    -0.67554
      27    190.94    -0.66151 ( 99.53%)    -0.65961 (  0.47%)    -0.66150
      28    196.24    -0.64642 ( 99.58%)    -0.65150 (  0.42%)    -0.64644
      29    200.58    -0.63439 ( 99.62%)    -0.64501 (  0.38%)    -0.63443
      30    213.97    -0.59915 ( 99.70%)    -0.62587 (  0.30%)    -0.59923
      31    223.79    -0.57490 ( 99.75%)    -0.61258 (  0.25%)    -0.57499
      32    235.04    -0.54863 ( 99.80%)    -0.59804 (  0.20%)    -0.54873
      33    239.37    -0.53892 ( 99.81%)    -0.59263 (  0.19%)    -0.53902
      34    262.23    -0.49102 ( 99.87%)    -0.56562 (  0.13%)    -0.49112
      35    267.49    -0.48073 ( 99.88%)    -0.55973 (  0.12%)    -0.48083
      36    273.75    -0.46881 ( 99.89%)    -0.55288 (  0.11%)    -0.46891
      37    287.93    -0.44309 ( 99.91%)    -0.53792 (  0.09%)    -0.44317
      38    295.78    -0.42953 ( 99.92%)    -0.52995 (  0.08%)    -0.42962
   ------------------------------------------------------------------------

   temp. (K)  partition function   enthalpy   heat capacity  entropy
                                   cal/mol     cal/K/mol   cal/K/mol   J/K/mol
 298.15  VIB  0.381E+21            26851.201    172.935    166.630
         ROT  0.168E+09              888.752      2.981     40.617
         INT  0.640E+29            27739.953    175.916    207.247
         TR   0.201E+29             1481.254      4.968     45.723
         TOT                       29221.2072   180.8843   252.9697  1058.4250

       T/K    H(0)-H(T)+PV         H(T)/Eh          T*S/Eh         G(T)/Eh
   ------------------------------------------------------------------------
    298.15    0.465670E-01    0.751507E+00    0.120194E+00    0.631313E+00
   ------------------------------------------------------------------------

         :::::::::::::::::::::::::::::::::::::::::::::::::::::
         ::                  THERMODYNAMIC                  ::
         :::::::::::::::::::::::::::::::::::::::::::::::::::::
         :: total free energy        -147.825473909371 Eh   ::
         ::.................................................::
         :: total energy             -148.456787249783 Eh   ::
         :: zero point energy           0.704940428925 Eh   ::
         :: G(RRHO) w/o ZPVE           -0.073627088512 Eh   ::
         :: G(RRHO) contrib.            0.631313340412 Eh   ::
         :::::::::::::::::::::::::::::::::::::::::::::::::::::

optimized geometry written to: xtbopt.xyz


           -------------------------------------------------
          | TOTAL ENERGY             -148.456787249783 Eh   |
          | TOTAL ENTHALPY           -147.705279863136 Eh   |
          | TOTAL FREE ENERGY        -147.825473909371 Eh   |
          | GRADIENT NORM               0.000083063159 Eh/α |
           -------------------------------------------------

------------------------------------------------------------------------
 * finished run on 2025/09/08 at 09:07:06.191     
------------------------------------------------------------------------
 total:
 * wall-time:     0 d,  0 h,  0 min, 13.147 sec
 *  cpu-time:     0 d,  0 h,  8 min,  2.234 sec
 * ratio c/w:    36.681 speedup
 SCF:
 * wall-time:     0 d,  0 h,  0 min,  0.558 sec
 *  cpu-time:     0 d,  0 h,  0 min, 22.255 sec
 * ratio c/w:    39.914 speedup
 ANC optimizer:
 * wall-time:     0 d,  0 h,  0 min,  2.913 sec
 *  cpu-time:     0 d,  0 h,  1 min, 56.472 sec
 * ratio c/w:    39.990 speedup
 analytical hessian:
 * wall-time:     0 d,  0 h,  0 min,  9.615 sec
 *  cpu-time:     0 d,  0 h,  5 min, 42.195 sec
 * ratio c/w:    35.588 speedup

