      -----------------------------------------------------------      
     |                   =====================                   |     
     |                           x T B                           |     
     |                   =====================                   |     
     |                         S. Grimme                         |     
     |          Mulliken Center for Theoretical Chemistry        |     
     |                    University of Bonn                     |     
      -----------------------------------------------------------      

   * xtb version 6.7.1 (edcfbbe) compiled by 'albert@albert-system' on 2024-07-22

   xtb is free software: you can redistribute it and/or modify it under
   the terms of the GNU Lesser General Public License as published by
   the Free Software Foundation, either version 3 of the License, or
   (at your option) any later version.
   
   xtb is distributed in the hope that it will be useful,
   but WITHOUT ANY WARRANTY; without even the implied warranty of
   MERCHANTABILITY or FITNESS FOR A PARTICULAR PURPOSE.  See the
   GNU Lesser General Public License for more details.
   
   Cite this work as:
   * C. Bannwarth, E. Caldeweyher, S. Ehlert, A. Hansen, P. Pracht,
     J. Seibert, S. Spicher, S. Grimme, WIREs Comput. Mol. Sci., 2020, 11,
     e01493. DOI: 10.1002/wcms.1493
   
   for GFN2-xTB:
   * C. Bannwarth, S. Ehlert and S. Grimme., J. Chem. Theory Comput., 2019,
     15, 1652-1671. DOI: 10.1021/acs.jctc.8b01176
   for GFN1-xTB:
   * S. Grimme, C. Bannwarth, P. Shushkov, J. Chem. Theory Comput., 2017,
     13, 1989-2009. DOI: 10.1021/acs.jctc.7b00118
   for GFN0-xTB:
   * P. Pracht, E. Caldeweyher, S. Ehlert, S. Grimme, ChemRxiv, 2019, preprint.
     DOI: 10.26434/chemrxiv.8326202.v1
   for GFN-FF:
   * S. Spicher and S. Grimme, Angew. Chem. Int. Ed., 2020, 59, 15665-15673.
     DOI: 10.1002/anie.202004239
   
   for ALPB and GBSA implicit solvation:
   * S. Ehlert, M. Stahn, S. Spicher, S. Grimme, J. Chem. Theory Comput.,
     2021, 17, 4250-4261. DOI: 10.1021/acs.jctc.1c00471
   
   for ddCOSMO and CPCM-X implicit solvation:
   * M. Stahn, S. Ehlert, S. Grimme, J. Phys. Chem. A,
     2023, XX, XXXX-XXXX. DOI: 10.1021/acs.jpca.3c04382
   
   for DFT-D4:
   * E. Caldeweyher, C. Bannwarth and S. Grimme, J. Chem. Phys., 2017,
     147, 034112. DOI: 10.1063/1.4993215
   * E. Caldeweyher, S. Ehlert, A. Hansen, H. Neugebauer, S. Spicher,
     C. Bannwarth and S. Grimme, J. Chem. Phys., 2019, 150, 154122.
     DOI: 10.1063/1.5090222
   * E. Caldeweyher, J.-M. Mewes, S. Ehlert and S. Grimme, Phys. Chem. Chem. Phys.
     2020, 22, 8499-8512. DOI: 10.1039/D0CP00502A
   
   for sTDA-xTB:
   * S. Grimme and C. Bannwarth, J. Chem. Phys., 2016, 145, 054103.
     DOI: 10.1063/1.4959605
   
   in the mass-spec context:
   * V. Asgeirsson, C. Bauer and S. Grimme, Chem. Sci., 2017, 8, 4879.
     DOI: 10.1039/c7sc00601b
   * J. Koopman and S. Grimme, ACS Omega 2019, 4, 12, 15120-15133.
     DOI: 10.1021/acsomega.9b02011
   
   for metadynamics refer to:
   * S. Grimme, J. Chem. Theory Comput., 2019, 155, 2847-2862
     DOI: 10.1021/acs.jctc.9b00143
   
   for SPH calculations refer to:
   * S. Spicher and S. Grimme, J. Chem. Theory Comput., 2021, 17, 1701-1714
     DOI: 10.1021/acs.jctc.0c01306
   
   for ONIOM refer to:
   * C. Plett, A. Katbashev, S. Ehlert, S. Grimme, M. Bursch,
     Phys. Chem. Chem. Phys., 2023, 25, 17860-17868. DOI: 10.1039/D3CP02178E
   
   for DIPRO refer to:
   * J. Kohn, N. Gildemeister, S. Grimme, D. Fazzi, A. Hansen,
     J. Chem. Phys., 2023, just accepted.
   
   for PTB refer to:
   * S. Grimme, M. Mueller, A. Hansen, J. Chem. Phys., 2023, 158, 124111.
     DOI: 10.1063/5.0137838
   
   with help from (in alphabetical order)
   P. Atkinson, C. Bannwarth, F. Bohle, G. Brandenburg, E. Caldeweyher
   M. Checinski, S. Dohm, S. Ehlert, S. Ehrlich, I. Gerasimov, C. Hölzer
   A. Katbashev, J. Kohn, J. Koopman, C. Lavigne, S. Lehtola, F. März, M. Müller,
   F. Musil, H. Neugebauer, J. Pisarek, C. Plett, P. Pracht, F. Pultar,
   J. Seibert, P. Shushkov, S. Spicher, M. Stahn, M. Steiner, T. Strunk,
   J. Stückrath, T. Rose, and J. Unsleber
   
 * started run on 2025/09/08 at 08:55:40.182     
   ID    Z sym.   atoms
    1    6 C      1-9, 11-23, 25-29, 31, 32, 34-38, 40-49, 51-59
    2    7 N      10, 24, 30, 33, 39, 50
    3    1 H      60-93

           -------------------------------------------------
          |                Calculation Setup                |
           -------------------------------------------------

          program call               : xtb data2507/gas/ACID–BPPZ/ACID–BPPZ_gas_S0_finalOpt.xtbopt.xyz --gfn 2 --spinpol --tblite --uhf 2 --ohess vtight --parallel 40 --molden --ceasefiles --namespace data2507/gas/ACID–BPPZ/ACID–BPPZ_gas_T1_preOpt
          calculation namespace      : data2507/gas/ACID–BPPZ/ACID–BPPZ_gas_T1_preOpt
          coordinate file            : data2507/gas/ACID–BPPZ/ACID–BPPZ_gas_S0_finalOpt.xtbopt.xyz
          omp threads                :                    40

repulsion energy          2.6873819847307E+00 Eh
dispersion energy        -3.7513582911189E-04 Eh
interaction energy        0.0000000000000E+00 Eh
number of electrons       2.7600000000000E+02 e
integral cutoff           1.7347787504999E+01 bohr

------------------------------------------------------------
  cycle        total energy    energy error   density error
------------------------------------------------------------
      1     -148.1232266861  -1.5081023E+02   9.7598117E-02
      2     -147.9536964896   1.6953020E-01   5.8092732E-02
      3     -146.1727302188   1.7809663E+00   6.3304710E-02
      4     -147.9310067970  -1.7582766E+00   3.1467611E-02
      5     -148.3226179484  -3.9161115E-01   2.6425475E-02
      6     -148.4400997957  -1.1748185E-01   1.5402307E-02
      7     -148.4006011546   3.9498641E-02   1.8210871E-02
      8     -148.4151897100  -1.4588555E-02   1.6849071E-02
      9     -148.4222842530  -7.0945429E-03   1.5636105E-02
     10     -148.4208922885   1.3919645E-03   1.5696986E-02
     11     -148.4442918978  -2.3399609E-02   6.6340155E-03
     12     -148.4486444236  -4.3525258E-03   5.3405680E-03
     13     -148.4509724453  -2.3280217E-03   3.2994957E-03
     14     -148.4509040545   6.8390777E-05   2.9026794E-03
     15     -148.4535570976  -2.6530431E-03   6.5462094E-04
     16     -148.4535799927  -2.2895110E-05   6.4422301E-04
     17     -148.4535898309  -9.8381925E-06   4.1032942E-04
     18     -148.4536466117  -5.6780771E-05   1.8994687E-04
     19     -148.4536531636  -6.5519057E-06   1.3086222E-04
     20     -148.4536550333  -1.8696669E-06   9.9590473E-05
     21     -148.4536550004   3.2844781E-08   9.0699266E-05
     22     -148.4536559854  -9.8501147E-07   6.2689155E-05
     23     -148.4536562957  -3.1021750E-07   4.6674499E-05
     24     -148.4536563760  -8.0336548E-08   3.7994983E-05
     25     -148.4536564267  -5.0688868E-08   3.1771478E-05
     26     -148.4536564530  -2.6318219E-08   2.7903642E-05
     27     -148.4536564792  -2.6219368E-08   2.3039249E-05
     28     -148.4536565066  -2.7403757E-08   1.6461743E-05
------------------------------------------------------------

electronic energy        -1.5114066335552E+02 Eh
total energy             -1.4845365650662E+02 Eh

 total:                                   0.541 sec
 - repulsion                              0.001 sec (  0%)
 - dispersion                             0.018 sec (  3%)
 - coulomb                                0.008 sec (  1%)
 - hamiltonian                            0.017 sec (  3%)
 - scc                                    0.497 sec ( 91%)

      ----------------------------------------------------------- 
     |                   =====================                   |
     |                        A N C O P T                        |
     |                   =====================                   |
     |               Approximate Normal Coordinate               |
     |                Rational Function Optimizer                |
      ----------------------------------------------------------- 

Optimization log is written to '/dev/null'
      ----------------------------------------------------------- 
     |                   =====================                   |
     |                        A N C O P T                        |
     |                   =====================                   |
     |               Approximate Normal Coordinate               |
     |                Rational Function Optimizer                |
      ----------------------------------------------------------- 

          ...................................................
          :                      SETUP                      :
          :.................................................:
          :   optimization level         verytight          :
          :   max. optcycles                  1860          :
          :   ANC micro-cycles                  20          :
          :   degrees of freedom               273          :
          :.................................................:
          :   RF solver                   davidson          :
          :   write xtbopt.log                true          :
          :   linear?                        false          :
          :   energy convergence         0.1000000E-06 Eh   :
          :   grad. convergence          0.2000000E-03 Eh/α :
          :   maxmium RF displ.          1.0000000          :
          :   Hlow (freq-cutoff)         0.1000000E-01      :
          :   Hmax (freq-cutoff)         5.0000000          :
          :   S6 in model hess.         20.0000000          :
          ...................................................

generating ANC from exact Hessian ...
Using Lindh-Hessian (1995)
 Shifting diagonal of input Hessian by   9.932788207001723E-003
 Lowest  eigenvalues of input Hessian
    0.000000    0.000000    0.000000    0.000000    0.000000    0.000000
    0.010000    0.010052    0.010058    0.010258    0.010352    0.010422
    0.010883    0.011025    0.011291    0.011709    0.012143    0.012236
 Highest eigenvalues
    2.165414    2.177608    2.207039    2.207538    2.227689    2.255643
 

........................................................................
.............................. CYCLE    1 ..............................
........................................................................
------------------------------------------------------------
  cycle        total energy    energy error   density error
------------------------------------------------------------
      1     -148.4536552193  -1.5114066E+02   6.9167825E-05
      2     -148.4535429139   1.1230542E-04   5.9468165E-04
      3     -148.4536540504  -1.1113656E-04   8.5466946E-05
      4     -148.4536563754  -2.3250287E-06   2.0342299E-05
      5     -148.4536565351  -1.5961774E-07   2.6978962E-06
------------------------------------------------------------

 total:                                   0.113 sec
 * total energy  :  -148.4536565 Eh     change       -0.2844419E-07 Eh
   gradient norm :     0.0560749 Eh/α   predicted     0.0000000E+00 (-100.00%)
   displ. norm   :     0.1367160 α      lambda       -0.3359384E-02
   maximum displ.:     0.0585437 α      in ANC's #54, #53, #60, ...

........................................................................
.............................. CYCLE    2 ..............................
........................................................................
------------------------------------------------------------
  cycle        total energy    energy error   density error
------------------------------------------------------------
      1     -148.4555954399  -1.5114263E+02   2.0172481E-03
      2     -148.3930059705   6.2589469E-02   1.3696234E-02
      3     -148.4539652874  -6.0959317E-02   2.7937818E-03
      4     -148.4543985467  -4.3325934E-04   2.2423757E-03
      5     -148.4556872888  -1.2887421E-03   9.8854363E-04
      6     -148.4558677941  -1.8050528E-04   6.4398228E-04
      7     -148.4559482831  -8.0488960E-05   3.9046437E-04
      8     -148.4559914525  -4.3169484E-05   1.1588611E-04
      9     -148.4559950878  -3.6352755E-06   2.6578070E-05
     10     -148.4559950230   6.4798343E-08   2.8229260E-05
     11     -148.4559952854  -2.6237274E-07   9.7183108E-06
------------------------------------------------------------

 total:                                   0.209 sec
 * total energy  :  -148.4559953 Eh     change       -0.2338750E-02 Eh
   gradient norm :     0.0277361 Eh/α   predicted    -0.1711155E-02 ( -26.83%)
   displ. norm   :     0.0930010 α      lambda       -0.1049815E-02
   maximum displ.:     0.0383314 α      in ANC's #54, #53, #40, ...

........................................................................
.............................. CYCLE    3 ..............................
........................................................................
------------------------------------------------------------
  cycle        total energy    energy error   density error
------------------------------------------------------------
      1     -148.4556834260  -1.5114373E+02   2.0481841E-03
      2     -148.3577472124   9.7936214E-02   1.7168866E-02
      3     -148.4559394759  -9.8192264E-02   1.5643786E-03
      4     -148.4562926664  -3.5319043E-04   9.4465135E-04
      5     -148.4565434507  -2.5078432E-04   2.9240547E-04
      6     -148.4565716172  -2.8166497E-05   9.5230710E-05
      7     -148.4565722637  -6.4651707E-07   7.7667672E-05
      8     -148.4565738787  -1.6149707E-06   2.4972345E-05
      9     -148.4565738494   2.9284621E-08   2.4140890E-05
     10     -148.4565740144  -1.6502844E-07   9.6150801E-06
------------------------------------------------------------

 total:                                   0.196 sec
 * total energy  :  -148.4565740 Eh     change       -0.5787290E-03 Eh
   gradient norm :     0.0100219 Eh/α   predicted    -0.5294596E-03 (  -8.51%)
   displ. norm   :     0.0269566 α      lambda       -0.7496310E-04
   maximum displ.:     0.0093630 α      in ANC's #16, #21, #22, ...

........................................................................
.............................. CYCLE    4 ..............................
........................................................................
------------------------------------------------------------
  cycle        total energy    energy error   density error
------------------------------------------------------------
      1     -148.4564389488  -1.5114458E+02   8.0254812E-04
      2     -148.4199816304   3.6457318E-02   1.0585003E-02
      3     -148.4566146884  -3.6633058E-02   2.4955957E-04
      4     -148.4566246831  -9.9946977E-06   1.5221183E-04
      5     -148.4566265028  -1.8197276E-06   1.2953076E-04
      6     -148.4566292463  -2.7435240E-06   8.0976867E-05
      7     -148.4566301314  -8.8507474E-07   5.8982084E-05
      8     -148.4566305661  -4.3468023E-07   4.4579110E-05
      9     -148.4566311145  -5.4842141E-07   1.4344511E-05
------------------------------------------------------------

 total:                                   0.173 sec
 * total energy  :  -148.4566311 Eh     change       -0.5710009E-04 Eh
   gradient norm :     0.0051945 Eh/α   predicted    -0.3908598E-04 ( -31.55%)
   displ. norm   :     0.0378821 α      lambda       -0.4568972E-04
   maximum displ.:     0.0157216 α      in ANC's #16, #6, #21, ...

........................................................................
.............................. CYCLE    5 ..............................
........................................................................
------------------------------------------------------------
  cycle        total energy    energy error   density error
------------------------------------------------------------
      1     -148.4560885013  -1.5114427E+02   1.3331781E-03
      2     -148.3731627773   8.2925724E-02   1.5905765E-02
      3     -148.4566317678  -8.3468990E-02   2.9486889E-04
      4     -148.4566475597  -1.5791886E-05   1.9058957E-04
      5     -148.4566434911   4.0685471E-06   2.2051464E-04
      6     -148.4566531976  -9.7064856E-06   1.1813590E-04
      7     -148.4566562062  -3.0086324E-06   6.2810988E-05
      8     -148.4566568187  -6.1250142E-07   4.2972418E-05
      9     -148.4566572784  -4.5970589E-07   1.9261925E-05
------------------------------------------------------------

 total:                                   0.173 sec
 * total energy  :  -148.4566573 Eh     change       -0.2616394E-04 Eh
   gradient norm :     0.0010519 Eh/α   predicted    -0.2287932E-04 ( -12.55%)
   displ. norm   :     0.0291420 α      lambda       -0.3838461E-05
   maximum displ.:     0.0131118 α      in ANC's #16, #6, #5, ...

........................................................................
.............................. CYCLE    6 ..............................
........................................................................
------------------------------------------------------------
  cycle        total energy    energy error   density error
------------------------------------------------------------
      1     -148.4564727091  -1.5114469E+02   7.7201440E-04
      2     -148.4198400542   3.6632655E-02   1.0598330E-02
      3     -148.4566535771  -3.6813523E-02   1.7671040E-04
      4     -148.4566598844  -6.3072431E-06   8.6017312E-05
      5     -148.4566614333  -1.5489166E-06   4.8920107E-05
      6     -148.4566610974   3.3585485E-07   5.1671419E-05
      7     -148.4566617288  -6.3139450E-07   2.7297742E-05
      8     -148.4566618604  -1.3158945E-07   1.7753745E-05
------------------------------------------------------------

 total:                                   0.156 sec
 * total energy  :  -148.4566619 Eh     change       -0.4581952E-05 Eh
   gradient norm :     0.0010608 Eh/α   predicted    -0.2092999E-05 ( -54.32%)
   displ. norm   :     0.0533708 α      lambda       -0.5233747E-05
   maximum displ.:     0.0233516 α      in ANC's #16, #6, #5, ...

........................................................................
.............................. CYCLE    7 ..............................
........................................................................
------------------------------------------------------------
  cycle        total energy    energy error   density error
------------------------------------------------------------
      1     -148.4565616002  -1.5114480E+02   6.2312008E-04
      2     -148.4363589921   2.0202608E-02   7.8723795E-03
      3     -148.4566586106  -2.0299618E-02   2.2167180E-04
      4     -148.4566656156  -7.0050478E-06   9.3073548E-05
      5     -148.4566668574  -1.2417995E-06   5.4593289E-05
      6     -148.4566676759  -8.1848526E-07   2.7011895E-05
      7     -148.4566679224  -2.4649466E-07   6.0752896E-06
------------------------------------------------------------

 total:                                   0.138 sec
 * total energy  :  -148.4566679 Eh     change       -0.6062009E-05 Eh
   gradient norm :     0.0011710 Eh/α   predicted    -0.2626919E-05 ( -56.67%)
   displ. norm   :     0.0812398 α      lambda       -0.5565784E-05
   maximum displ.:     0.0330192 α      in ANC's #16, #6, #5, ...

........................................................................
.............................. CYCLE    8 ..............................
........................................................................
------------------------------------------------------------
  cycle        total energy    energy error   density error
------------------------------------------------------------
      1     -148.4566668396  -1.5114482E+02   3.8487687E-04
      2     -148.4557049496   9.6188997E-04   1.7295479E-03
      3     -148.4566432096  -9.3825999E-04   3.6601549E-04
      4     -148.4566729364  -2.9726858E-05   5.9660434E-05
      5     -148.4566736745  -7.3809545E-07   3.0161223E-05
      6     -148.4566739353  -2.6072320E-07   9.5586581E-06
------------------------------------------------------------

 total:                                   0.122 sec
 * total energy  :  -148.4566739 Eh     change       -0.6012843E-05 Eh
   gradient norm :     0.0010995 Eh/α   predicted    -0.2792938E-05 ( -53.55%)
   displ. norm   :     0.0746713 α      lambda       -0.3811655E-05
   maximum displ.:     0.0310732 α      in ANC's #3, #5, #6, ...

........................................................................
.............................. CYCLE    9 ..............................
........................................................................
------------------------------------------------------------
  cycle        total energy    energy error   density error
------------------------------------------------------------
      1     -148.4566330258  -1.5114475E+02   4.7958801E-04
      2     -148.4536824926   2.9505332E-03   3.0083529E-03
      3     -148.4566747360  -2.9922434E-03   1.9401993E-04
      4     -148.4566713130   3.4230623E-06   1.4465808E-04
      5     -148.4566781761  -6.8631648E-06   2.5517051E-05
      6     -148.4566782013  -2.5221965E-08   2.1502129E-05
      7     -148.4566783645  -1.6313578E-07   3.7545327E-06
------------------------------------------------------------

 total:                                   0.149 sec
 * total energy  :  -148.4566784 Eh     change       -0.4429227E-05 Eh
   gradient norm :     0.0007032 Eh/α   predicted    -0.1922182E-05 ( -56.60%)
   displ. norm   :     0.0723795 α      lambda       -0.3432501E-05
   maximum displ.:     0.0336362 α      in ANC's #3, #5, #6, ...

........................................................................
.............................. CYCLE   10 ..............................
........................................................................
------------------------------------------------------------
  cycle        total energy    energy error   density error
------------------------------------------------------------
      1     -148.4566555401  -1.5114477E+02   3.8898879E-04
      2     -148.4546501618   2.0053784E-03   2.4813608E-03
      3     -148.4566766726  -2.0265109E-03   1.9284640E-04
      4     -148.4566748264   1.8462665E-06   1.4586492E-04
      5     -148.4566820579  -7.2315055E-06   3.2854199E-05
      6     -148.4566823748  -3.1688162E-07   1.1983158E-05
------------------------------------------------------------

 total:                                   0.121 sec
 * total energy  :  -148.4566824 Eh     change       -0.4010274E-05 Eh
   gradient norm :     0.0003711 Eh/α   predicted    -0.1726467E-05 ( -56.95%)
   displ. norm   :     0.0813426 α      lambda       -0.3613519E-05
   maximum displ.:     0.0401256 α      in ANC's #3, #5, #6, ...

........................................................................
.............................. CYCLE   11 ..............................
........................................................................
------------------------------------------------------------
  cycle        total energy    energy error   density error
------------------------------------------------------------
      1     -148.4566788540  -1.5114483E+02   3.0752035E-04
      2     -148.4556047125   1.0741416E-03   1.8199887E-03
      3     -148.4566817457  -1.0770332E-03   1.9674516E-04
      4     -148.4566816277   1.1800188E-07   1.2988507E-04
      5     -148.4566857856  -4.1578732E-06   5.4570471E-05
      6     -148.4566867062  -9.2058704E-07   1.5569462E-05
------------------------------------------------------------

 total:                                   0.121 sec
 * total energy  :  -148.4566867 Eh     change       -0.4331420E-05 Eh
   gradient norm :     0.0009123 Eh/α   predicted    -0.1816955E-05 ( -58.05%)
   displ. norm   :     0.1030298 α      lambda       -0.4441658E-05
   maximum displ.:     0.0518240 α      in ANC's #3, #5, #6, ...

........................................................................
.............................. CYCLE   12 ..............................
........................................................................
------------------------------------------------------------
  cycle        total energy    energy error   density error
------------------------------------------------------------
      1     -148.4566409329  -1.5114490E+02   5.1666766E-04
      2     -148.4533901433   3.2507895E-03   3.1569261E-03
      3     -148.4566898889  -3.2997455E-03   2.0160228E-04
      4     -148.4566873112   2.5776911E-06   1.2879789E-04
      5     -148.4566920962  -4.7850634E-06   2.5256428E-05
      6     -148.4566921334  -3.7134669E-08   2.0019096E-05
      7     -148.4566922667  -1.3326957E-07   2.8697338E-06
------------------------------------------------------------

 total:                                   0.138 sec
 * total energy  :  -148.4566923 Eh     change       -0.5560481E-05 Eh
   gradient norm :     0.0010851 Eh/α   predicted    -0.2234084E-05 ( -59.82%)
   displ. norm   :     0.1435150 α      lambda       -0.5811418E-05
   maximum displ.:     0.0731358 α      in ANC's #3, #5, #6, ...

........................................................................
.............................. CYCLE   13 ..............................
........................................................................
------------------------------------------------------------
  cycle        total energy    energy error   density error
------------------------------------------------------------
      1     -148.4566986993  -1.5114498E+02   4.5386652E-04
      2     -148.4566740948   2.4604539E-05   3.8014741E-04
      3     -148.4555820362   1.0920586E-03   1.8474877E-03
      4     -148.4566970518  -1.1150155E-03   7.4401733E-05
      5     -148.4566985530  -1.5011931E-06   3.8874622E-05
      6     -148.4566988720  -3.1903585E-07   2.0159021E-05
      7     -148.4566990015  -1.2952080E-07   2.6338081E-06
------------------------------------------------------------

 total:                                   0.138 sec
 * total energy  :  -148.4566990 Eh     change       -0.6734874E-05 Eh
   gradient norm :     0.0010094 Eh/α   predicted    -0.2934086E-05 ( -56.43%)
   displ. norm   :     0.1411175 α      lambda       -0.4721149E-05
   maximum displ.:     0.0738563 α      in ANC's #3, #5, #6, ...

........................................................................
.............................. CYCLE   14 ..............................
........................................................................
------------------------------------------------------------
  cycle        total energy    energy error   density error
------------------------------------------------------------
      1     -148.4566981417  -1.5114500E+02   4.4274418E-04
      2     -148.4558715060   8.2663569E-04   1.6072721E-03
      3     -148.4566164650  -7.4495907E-04   5.6919815E-04
      4     -148.4567040493  -8.7584225E-05   2.6360100E-05
      5     -148.4567037952   2.5403199E-07   3.7942833E-05
      6     -148.4567041534  -3.5820344E-07   1.9044867E-05
------------------------------------------------------------

 total:                                   0.122 sec
 * total energy  :  -148.4567042 Eh     change       -0.5151918E-05 Eh
   gradient norm :     0.0006484 Eh/α   predicted    -0.2388132E-05 ( -53.65%)
   displ. norm   :     0.1001158 α      lambda       -0.2943363E-05
   maximum displ.:     0.0547687 α      in ANC's #3, #5, #6, ...

........................................................................
.............................. CYCLE   15 ..............................
........................................................................
------------------------------------------------------------
  cycle        total energy    energy error   density error
------------------------------------------------------------
      1     -148.4566700621  -1.5114508E+02   4.2322201E-04
      2     -148.4540926734   2.5773887E-03   2.8092447E-03
      3     -148.4567068121  -2.6141387E-03   1.5650000E-04
      4     -148.4567031417   3.6703926E-06   1.1635054E-04
      5     -148.4567063869  -3.2452645E-06   5.4819476E-05
      6     -148.4567072947  -9.0779869E-07   1.4978855E-05
------------------------------------------------------------

 total:                                   0.121 sec
 * total energy  :  -148.4567073 Eh     change       -0.3141297E-05 Eh
   gradient norm :     0.0004354 Eh/α   predicted    -0.1481543E-05 ( -52.84%)
   displ. norm   :     0.0618961 α      lambda       -0.1848750E-05
   maximum displ.:     0.0355594 α      in ANC's #3, #5, #2, ...

........................................................................
.............................. CYCLE   16 ..............................
........................................................................
------------------------------------------------------------
  cycle        total energy    energy error   density error
------------------------------------------------------------
      1     -148.4566641676  -1.5114504E+02   4.0242237E-04
      2     -148.4488545384   7.8096293E-03   4.8884371E-03
      3     -148.4567061781  -7.8516397E-03   1.3658709E-04
      4     -148.4567066478  -4.6974120E-07   9.7179110E-05
      5     -148.4567093615  -2.7136417E-06   2.6020038E-05
      6     -148.4567095207  -1.5919528E-07   1.3333790E-05
------------------------------------------------------------

 total:                                   0.122 sec
 * total energy  :  -148.4567095 Eh     change       -0.2225910E-05 Eh
   gradient norm :     0.0004414 Eh/α   predicted    -0.9277302E-06 ( -58.32%)
   displ. norm   :     0.0602496 α      lambda       -0.2057946E-05
   maximum displ.:     0.0349628 α      in ANC's #3, #5, #2, ...

........................................................................
.............................. CYCLE   17 ..............................
........................................................................
------------------------------------------------------------
  cycle        total energy    energy error   density error
------------------------------------------------------------
      1     -148.4566937890  -1.5114499E+02   2.8271703E-04
      2     -148.4540405898   2.6531992E-03   2.8513547E-03
      3     -148.4567082007  -2.6676109E-03   1.3866682E-04
      4     -148.4567097139  -1.5131626E-06   1.0033427E-04
      5     -148.4567116790  -1.9651073E-06   3.7558105E-05
      6     -148.4567120915  -4.1250675E-07   6.6405572E-06
------------------------------------------------------------

 total:                                   0.123 sec
 * total energy  :  -148.4567121 Eh     change       -0.2570837E-05 Eh
   gradient norm :     0.0004983 Eh/α   predicted    -0.1031756E-05 ( -59.87%)
   displ. norm   :     0.0749142 α      lambda       -0.2452576E-05
   maximum displ.:     0.0430358 α      in ANC's #3, #2, #1, ...

........................................................................
.............................. CYCLE   18 ..............................
........................................................................
------------------------------------------------------------
  cycle        total energy    energy error   density error
------------------------------------------------------------
      1     -148.4567143789  -1.5114492E+02   2.1281041E-04
      2     -148.4566683295   4.6049379E-05   3.9422147E-04
      3     -148.4566467027   2.1626859E-05   4.6942548E-04
      4     -148.4567125826  -6.5879943E-05   9.8485609E-05
      5     -148.4567148767  -2.2941532E-06   2.3009872E-05
      6     -148.4567149979  -1.2113830E-07   9.3044729E-06
------------------------------------------------------------

 total:                                   0.121 sec
 * total energy  :  -148.4567150 Eh     change       -0.2906398E-05 Eh
   gradient norm :     0.0005001 Eh/α   predicted    -0.1230934E-05 ( -57.65%)
   displ. norm   :     0.0816720 α      lambda       -0.2265595E-05
   maximum displ.:     0.0475024 α      in ANC's #3, #2, #1, ...

........................................................................
.............................. CYCLE   19 ..............................
........................................................................
------------------------------------------------------------
  cycle        total energy    energy error   density error
------------------------------------------------------------
      1     -148.4566917207  -1.5114485E+02   3.6790841E-04
      2     -148.4547218679   1.9698528E-03   2.4557907E-03
      3     -148.4567165432  -1.9946754E-03   1.4467065E-04
      4     -148.4567171016  -5.5835176E-07   4.2191934E-05
      5     -148.4567176569  -5.5530748E-07   1.6444178E-05
------------------------------------------------------------

 total:                                   0.103 sec
 * total energy  :  -148.4567177 Eh     change       -0.2659006E-05 Eh
   gradient norm :     0.0003921 Eh/α   predicted    -0.1139126E-05 ( -57.16%)
   displ. norm   :     0.0800894 α      lambda       -0.2098943E-05
   maximum displ.:     0.0473301 α      in ANC's #3, #2, #1, ...

........................................................................
.............................. CYCLE   20 ..............................
........................................................................
------------------------------------------------------------
  cycle        total energy    energy error   density error
------------------------------------------------------------
      1     -148.4567174964  -1.5114492E+02   2.5769788E-04
      2     -148.4566484632   6.9033138E-05   4.8829830E-04
      3     -148.4566006866   4.7776594E-05   6.1380889E-04
      4     -148.4567097217  -1.0903507E-04   1.7664198E-04
      5     -148.4567200611  -1.0339433E-05   2.5963443E-05
      6     -148.4567201957  -1.3452345E-07   1.5300001E-05
------------------------------------------------------------

 total:                                   0.120 sec
 * total energy  :  -148.4567202 Eh     change       -0.2538764E-05 Eh
   gradient norm :     0.0003747 Eh/α   predicted    -0.1055833E-05 ( -58.41%)
   displ. norm   :     0.0714205 α      lambda       -0.1811888E-05
   maximum displ.:     0.0428846 α      in ANC's #3, #2, #1, ...
 * RMSD in coord.:     0.1261888 α      energy gain  -0.3063689E-02 Eh

generating ANC from exact Hessian ...
Using Lindh-Hessian (1995)
 Shifting diagonal of input Hessian by   9.933690855478620E-003
 Lowest  eigenvalues of input Hessian
    0.000000    0.000000    0.000000    0.000000    0.000000    0.000000
    0.010000    0.010053    0.010057    0.010258    0.010353    0.010427
    0.010891    0.011052    0.011295    0.011705    0.012152    0.012251
 Highest eigenvalues
    2.168086    2.178845    2.205514    2.216024    2.229767    2.282122
 

........................................................................
.............................. CYCLE   21 ..............................
........................................................................
------------------------------------------------------------
  cycle        total energy    energy error   density error
------------------------------------------------------------
      1     -148.4566724868  -1.5114495E+02   4.5458416E-04
      2     -148.4534757987   3.1966882E-03   3.1254126E-03
      3     -148.4567220528  -3.2462541E-03   1.3423574E-04
      4     -148.4567187056   3.3471981E-06   1.1173482E-04
      5     -148.4567221538  -3.4482420E-06   3.3311460E-05
      6     -148.4567222930  -1.3920612E-07   2.1729541E-05
      7     -148.4567224529  -1.5992575E-07   3.7368773E-06
------------------------------------------------------------

 total:                                   0.128 sec
 * total energy  :  -148.4567225 Eh     change       -0.2257274E-05 Eh
   gradient norm :     0.0002893 Eh/α   predicted     0.0000000E+00 (-100.00%)
   displ. norm   :     0.0100939 α      lambda       -0.4431038E-06
   maximum displ.:     0.0039358 α      in ANC's #15, #3, #6, ...

........................................................................
.............................. CYCLE   22 ..............................
........................................................................
------------------------------------------------------------
  cycle        total energy    energy error   density error
------------------------------------------------------------
      1     -148.4567231996  -1.5114508E+02   5.5334313E-05
      2     -148.4567214891   1.7105182E-06   7.8939602E-05
      3     -148.4567143886   7.1004710E-06   1.6676316E-04
      4     -148.4567228563  -8.4677640E-06   3.7198266E-05
      5     -148.4567232823  -4.2600320E-07   3.1216734E-06
------------------------------------------------------------

 total:                                   0.096 sec
 * total energy  :  -148.4567233 Eh     change       -0.8294153E-06 Eh
   gradient norm :     0.0001291 Eh/α   predicted    -0.3044296E-06 ( -63.30%)
   displ. norm   :     0.0595476 α      lambda       -0.2935203E-05
   maximum displ.:     0.0226857 α      in ANC's #15, #3, #6, ...

........................................................................
.............................. CYCLE   23 ..............................
........................................................................
------------------------------------------------------------
  cycle        total energy    energy error   density error
------------------------------------------------------------
      1     -148.4567221318  -1.5114519E+02   3.2654233E-04
      2     -148.4562180841   5.0404777E-04   1.2564149E-03
      3     -148.4566923718  -4.7428774E-04   3.6225298E-04
      4     -148.4567235672  -3.1195401E-05   8.1536058E-05
      5     -148.4567260881  -2.5209108E-06   1.2738479E-05
      6     -148.4567260834   4.6965170E-09   1.1635149E-05
------------------------------------------------------------

 total:                                   0.112 sec
 * total energy  :  -148.4567261 Eh     change       -0.2801062E-05 Eh
   gradient norm :     0.0004647 Eh/α   predicted    -0.1470437E-05 ( -47.50%)
   displ. norm   :     0.0395844 α      lambda       -0.1074535E-05
   maximum displ.:     0.0161941 α      in ANC's #3, #1, #2, ...

........................................................................
.............................. CYCLE   24 ..............................
........................................................................
------------------------------------------------------------
  cycle        total energy    energy error   density error
------------------------------------------------------------
      1     -148.4566987530  -1.5114517E+02   3.5019366E-04
      2     -148.4545840634   2.1146896E-03   2.5411510E-03
      3     -148.4567269583  -2.1428948E-03   1.0978389E-04
      4     -148.4567269245   3.3810409E-08   3.7890412E-05
      5     -148.4567271814  -2.5691153E-07   1.8563337E-05
------------------------------------------------------------

 total:                                   0.096 sec
 * total energy  :  -148.4567272 Eh     change       -0.1097988E-05 Eh
   gradient norm :     0.0005501 Eh/α   predicted    -0.5386064E-06 ( -50.95%)
   displ. norm   :     0.0400308 α      lambda       -0.1062427E-05
   maximum displ.:     0.0178545 α      in ANC's #3, #1, #2, ...

........................................................................
.............................. CYCLE   25 ..............................
........................................................................
------------------------------------------------------------
  cycle        total energy    energy error   density error
------------------------------------------------------------
      1     -148.4566934768  -1.5114515E+02   3.6472430E-04
      2     -148.4510474093   5.6460675E-03   4.1633236E-03
      3     -148.4567260104  -5.6786011E-03   1.2576190E-04
      4     -148.4567253885   6.2189815E-07   1.0411892E-04
      5     -148.4567285135  -3.1250138E-06   1.8728176E-05
      6     -148.4567285127   8.4520480E-10   1.5837842E-05
------------------------------------------------------------

 total:                                   0.113 sec
 * total energy  :  -148.4567285 Eh     change       -0.1331279E-05 Eh
   gradient norm :     0.0002904 Eh/α   predicted    -0.5357650E-06 ( -59.76%)
   displ. norm   :     0.0538135 α      lambda       -0.1530463E-05
   maximum displ.:     0.0256001 α      in ANC's #3, #1, #2, ...

........................................................................
.............................. CYCLE   26 ..............................
........................................................................
------------------------------------------------------------
  cycle        total energy    energy error   density error
------------------------------------------------------------
      1     -148.4567099920  -1.5114507E+02   3.1391114E-04
      2     -148.4536376879   3.0723041E-03   3.0690460E-03
      3     -148.4567291991  -3.0915112E-03   1.3492249E-04
      4     -148.4567267214   2.4776725E-06   1.3289055E-04
      5     -148.4567306191  -3.8976333E-06   2.7680461E-05
      6     -148.4567308372  -2.1812343E-07   8.6948428E-06
------------------------------------------------------------

 total:                                   0.112 sec
 * total energy  :  -148.4567308 Eh     change       -0.2324510E-05 Eh
   gradient norm :     0.0002316 Eh/α   predicted    -0.7666999E-06 ( -67.02%)
   displ. norm   :     0.0708209 α      lambda       -0.1723753E-05
   maximum displ.:     0.0347504 α      in ANC's #3, #1, #2, ...

........................................................................
.............................. CYCLE   27 ..............................
........................................................................
------------------------------------------------------------
  cycle        total energy    energy error   density error
------------------------------------------------------------
      1     -148.4567288289  -1.5114501E+02   2.6160469E-04
      2     -148.4562157263   5.1310264E-04   1.2627612E-03
      3     -148.4567278103  -5.1208400E-04   1.8270393E-04
      4     -148.4567305648  -2.7544973E-06   8.5172636E-05
      5     -148.4567326456  -2.0808131E-06   2.4963867E-05
      6     -148.4567328308  -1.8515382E-07   8.5110173E-06
------------------------------------------------------------

 total:                                   0.112 sec
 * total energy  :  -148.4567328 Eh     change       -0.1993566E-05 Eh
   gradient norm :     0.0005604 Eh/α   predicted    -0.8709145E-06 ( -56.31%)
   displ. norm   :     0.0754791 α      lambda       -0.1674479E-05
   maximum displ.:     0.0380182 α      in ANC's #3, #1, #2, ...

........................................................................
.............................. CYCLE   28 ..............................
........................................................................
------------------------------------------------------------
  cycle        total energy    energy error   density error
------------------------------------------------------------
      1     -148.4567273049  -1.5114495E+02   2.8835060E-04
      2     -148.4560482137   6.7909123E-04   1.4489138E-03
      3     -148.4567192770  -6.7106332E-04   2.5613662E-04
      4     -148.4567263977  -7.1206158E-06   1.5821222E-04
      5     -148.4567347469  -8.3492025E-06   2.4768430E-05
      6     -148.4567349352  -1.8829820E-07   4.1247115E-06
------------------------------------------------------------

 total:                                   0.112 sec
 * total energy  :  -148.4567349 Eh     change       -0.2104403E-05 Eh
   gradient norm :     0.0006153 Eh/α   predicted    -0.8398494E-06 ( -60.09%)
   displ. norm   :     0.0873095 α      lambda       -0.1953074E-05
   maximum displ.:     0.0450191 α      in ANC's #3, #1, #2, ...

........................................................................
.............................. CYCLE   29 ..............................
........................................................................
------------------------------------------------------------
  cycle        total energy    energy error   density error
------------------------------------------------------------
      1     -148.4567372871  -1.5114492E+02   2.6859789E-04
      2     -148.4567369921   2.9506649E-07   1.5963811E-04
      3     -148.4565313431   2.0564895E-04   7.9367769E-04
      4     -148.4567359579  -2.0461481E-04   6.4226336E-05
      5     -148.4567373537  -1.3957792E-06   8.0259260E-06
      6     -148.4567373673  -1.3605359E-08   4.0109301E-06
------------------------------------------------------------

 total:                                   0.112 sec
 * total energy  :  -148.4567374 Eh     change       -0.2432150E-05 Eh
   gradient norm :     0.0004730 Eh/α   predicted    -0.9806823E-06 ( -59.68%)
   displ. norm   :     0.0961557 α      lambda       -0.2074703E-05
   maximum displ.:     0.0507834 α      in ANC's #3, #1, #2, ...

........................................................................
.............................. CYCLE   30 ..............................
........................................................................
------------------------------------------------------------
  cycle        total energy    energy error   density error
------------------------------------------------------------
      1     -148.4567373316  -1.5114496E+02   2.9999393E-04
      2     -148.4564235294   3.1380215E-04   9.9572762E-04
      3     -148.4567047264  -2.8119693E-04   3.6299866E-04
      4     -148.4567378522  -3.3125852E-05   7.8055407E-05
      5     -148.4567398256  -1.9734292E-06   1.5626286E-05
      6     -148.4567398698  -4.4113932E-08   8.6235153E-06
------------------------------------------------------------

 total:                                   0.112 sec
 * total energy  :  -148.4567399 Eh     change       -0.2502455E-05 Eh
   gradient norm :     0.0002437 Eh/α   predicted    -0.1044368E-05 ( -58.27%)
   displ. norm   :     0.0948183 α      lambda       -0.1868803E-05
   maximum displ.:     0.0512297 α      in ANC's #3, #1, #2, ...

........................................................................
.............................. CYCLE   31 ..............................
........................................................................
------------------------------------------------------------
  cycle        total energy    energy error   density error
------------------------------------------------------------
      1     -148.4567359346  -1.5114504E+02   3.0594296E-04
      2     -148.4561645926   5.7134198E-04   1.3293505E-03
      3     -148.4567256970  -5.6110441E-04   2.7160280E-04
      4     -148.4567381142  -1.2417150E-05   1.0392254E-04
      5     -148.4567421364  -4.0222006E-06   1.3949526E-05
      6     -148.4567421639  -2.7517501E-08   9.4212076E-06
------------------------------------------------------------

 total:                                   0.112 sec
 * total energy  :  -148.4567422 Eh     change       -0.2294152E-05 Eh
   gradient norm :     0.0002573 Eh/α   predicted    -0.9411375E-06 ( -58.98%)
   displ. norm   :     0.0862833 α      lambda       -0.1724426E-05
   maximum displ.:     0.0475189 α      in ANC's #3, #1, #2, ...

........................................................................
.............................. CYCLE   32 ..............................
........................................................................
------------------------------------------------------------
  cycle        total energy    energy error   density error
------------------------------------------------------------
      1     -148.4567340368  -1.5114513E+02   3.0288205E-04
      2     -148.4558342969   8.9973987E-04   1.6653253E-03
      3     -148.4567383668  -9.0406994E-04   1.9203370E-04
      4     -148.4567409959  -2.6290635E-06   1.0468944E-04
      5     -148.4567443051  -3.3091700E-06   1.2284599E-05
      6     -148.4567443237  -1.8675138E-08   7.7085924E-06
------------------------------------------------------------

 total:                                   0.112 sec
 * total energy  :  -148.4567443 Eh     change       -0.2159817E-05 Eh
   gradient norm :     0.0004249 Eh/α   predicted    -0.8664745E-06 ( -59.88%)
   displ. norm   :     0.0997125 α      lambda       -0.2097155E-05
   maximum displ.:     0.0554841 α      in ANC's #3, #2, #1, ...

........................................................................
.............................. CYCLE   33 ..............................
........................................................................
------------------------------------------------------------
  cycle        total energy    energy error   density error
------------------------------------------------------------
      1     -148.4567407778  -1.5114520E+02   3.1827391E-04
      2     -148.4561669951   5.7378268E-04   1.3344980E-03
      3     -148.4567279816  -5.6098652E-04   2.8966959E-04
      4     -148.4567423807  -1.4399064E-05   1.1948112E-04
      5     -148.4567469343  -4.5536223E-06   2.6124835E-05
      6     -148.4567470878  -1.5344608E-07   1.2902519E-05
------------------------------------------------------------

 total:                                   0.112 sec
 * total energy  :  -148.4567471 Eh     change       -0.2764044E-05 Eh
   gradient norm :     0.0004607 Eh/α   predicted    -0.1054349E-05 ( -61.85%)
   displ. norm   :     0.1226423 α      lambda       -0.2418274E-05
   maximum displ.:     0.0687967 α      in ANC's #3, #2, #1, ...

........................................................................
.............................. CYCLE   34 ..............................
........................................................................
------------------------------------------------------------
  cycle        total energy    energy error   density error
------------------------------------------------------------
      1     -148.4567122716  -1.5114519E+02   4.9323569E-04
      2     -148.4540794573   2.6328143E-03   2.8449912E-03
      3     -148.4567450711  -2.6656138E-03   2.3335257E-04
      4     -148.4567471048  -2.0337083E-06   9.9331267E-05
      5     -148.4567502346  -3.1298009E-06   2.0980009E-05
      6     -148.4567503285  -9.3869318E-08   1.0522766E-05
------------------------------------------------------------

 total:                                   0.112 sec
 * total energy  :  -148.4567503 Eh     change       -0.3240695E-05 Eh
   gradient norm :     0.0004515 Eh/α   predicted    -0.1217711E-05 ( -62.42%)
   displ. norm   :     0.1274903 α      lambda       -0.2195613E-05
   maximum displ.:     0.0722349 α      in ANC's #3, #2, #1, ...

........................................................................
.............................. CYCLE   35 ..............................
........................................................................
------------------------------------------------------------
  cycle        total energy    energy error   density error
------------------------------------------------------------
      1     -148.4567489705  -1.5114517E+02   3.8843560E-04
      2     -148.4562613645   4.8760609E-04   1.2414124E-03
      3     -148.4566859575  -4.2459300E-04   4.9814056E-04
      4     -148.4567441605  -5.8203011E-05   1.7667256E-04
      5     -148.4567515403  -7.3798557E-06   7.0166933E-05
      6     -148.4567529409  -1.4005747E-06   2.5877140E-05
      7     -148.4567531316  -1.9070004E-07   4.0293046E-06
------------------------------------------------------------

 total:                                   0.128 sec
 * total energy  :  -148.4567531 Eh     change       -0.2803137E-05 Eh
   gradient norm :     0.0002243 Eh/α   predicted    -0.1107749E-05 ( -60.48%)
   displ. norm   :     0.1142417 α      lambda       -0.1751703E-05
   maximum displ.:     0.0654667 α      in ANC's #3, #2, #1, ...

........................................................................
.............................. CYCLE   36 ..............................
........................................................................
------------------------------------------------------------
  cycle        total energy    energy error   density error
------------------------------------------------------------
      1     -148.4567529891  -1.5114516E+02   3.4662823E-04
      2     -148.4565344541   2.1853499E-04   8.4166142E-04
      3     -148.4566518488  -1.1739465E-04   5.8984645E-04
      4     -148.4567529068  -1.0105801E-04   8.5905061E-05
      5     -148.4567545070  -1.6002280E-06   4.8927827E-05
      6     -148.4567552296  -7.2253493E-07   9.7524366E-06
------------------------------------------------------------

 total:                                   0.112 sec
 * total energy  :  -148.4567552 Eh     change       -0.2097946E-05 Eh
   gradient norm :     0.0002010 Eh/α   predicted    -0.8827448E-06 ( -57.92%)
   displ. norm   :     0.1115627 α      lambda       -0.1717332E-05
   maximum displ.:     0.0644860 α      in ANC's #3, #2, #1, ...

........................................................................
.............................. CYCLE   37 ..............................
........................................................................
------------------------------------------------------------
  cycle        total energy    energy error   density error
------------------------------------------------------------
      1     -148.4567401016  -1.5114510E+02   4.0657079E-04
      2     -148.4553165679   1.4235337E-03   2.0974816E-03
      3     -148.4567447455  -1.4281776E-03   2.6922012E-04
      4     -148.4567552340  -1.0488497E-05   8.4906373E-05
      5     -148.4567572904  -2.0564411E-06   2.6340659E-05
      6     -148.4567574665  -1.7606499E-07   8.5122699E-06
------------------------------------------------------------

 total:                                   0.112 sec
 * total energy  :  -148.4567575 Eh     change       -0.2236932E-05 Eh
   gradient norm :     0.0002896 Eh/α   predicted    -0.8679819E-06 ( -61.20%)
   displ. norm   :     0.1368267 α      lambda       -0.2184743E-05
   maximum displ.:     0.0793986 α      in ANC's #3, #2, #1, ...

........................................................................
.............................. CYCLE   38 ..............................
........................................................................
------------------------------------------------------------
  cycle        total energy    energy error   density error
------------------------------------------------------------
      1     -148.4567580911  -1.5114501E+02   4.3098820E-04
      2     -148.4565840688   1.7402225E-04   7.7178581E-04
      3     -148.4564297847   1.5428408E-04   1.0275968E-03
      4     -148.4567505080  -3.2072329E-04   1.8551374E-04
      5     -148.4567589107  -8.4026372E-06   6.5357677E-05
      6     -148.4567599974  -1.0866955E-06   2.8453205E-05
      7     -148.4567602226  -2.2519620E-07   4.9593415E-06
------------------------------------------------------------

 total:                                   0.128 sec
 * total energy  :  -148.4567602 Eh     change       -0.2756075E-05 Eh
   gradient norm :     0.0003570 Eh/α   predicted    -0.1102159E-05 ( -60.01%)
   displ. norm   :     0.1770177 α      lambda       -0.2703717E-05
   maximum displ.:     0.1029050 α      in ANC's #3, #2, #1, ...

........................................................................
.............................. CYCLE   39 ..............................
........................................................................
------------------------------------------------------------
  cycle        total energy    energy error   density error
------------------------------------------------------------
      1     -148.4567600672  -1.5114490E+02   5.6661846E-04
      2     -148.4563454055   4.1466162E-04   1.1748592E-03
      3     -148.4564259925  -8.0586964E-05   1.0560109E-03
      4     -148.4567602068  -3.3421426E-04   1.0401012E-04
      5     -148.4567614527  -1.2459856E-06   8.3521649E-05
      6     -148.4567632980  -1.8452737E-06   3.0205270E-05
      7     -148.4567635260  -2.2793554E-07   1.3008224E-05
------------------------------------------------------------

 total:                                   0.128 sec
 * total energy  :  -148.4567635 Eh     change       -0.3303396E-05 Eh
   gradient norm :     0.0003823 Eh/α   predicted    -0.1371392E-05 ( -58.49%)
   displ. norm   :     0.2030989 α      lambda       -0.2872301E-05
   maximum displ.:     0.1183267 α      in ANC's #3, #2, #1, ...

........................................................................
.............................. CYCLE   40 ..............................
........................................................................
------------------------------------------------------------
  cycle        total energy    energy error   density error
------------------------------------------------------------
      1     -148.4567249363  -1.5114477E+02   7.3356248E-04
      2     -148.4494132862   7.3116501E-03   4.7535191E-03
      3     -148.4567149555  -7.3016693E-03   5.3893154E-04
      4     -148.4567619092  -4.6953689E-05   1.3697025E-04
      5     -148.4567654445  -3.5352773E-06   7.9819026E-05
      6     -148.4567672429  -1.7983949E-06   2.4020199E-05
      7     -148.4567673207  -7.7830947E-08   1.5380646E-05
------------------------------------------------------------

 total:                                   0.128 sec
 * total energy  :  -148.4567673 Eh     change       -0.3794768E-05 Eh
   gradient norm :     0.0004017 Eh/α   predicted    -0.1463166E-05 ( -61.44%)
   displ. norm   :     0.2381776 α      lambda       -0.3343283E-05
   maximum displ.:     0.1389139 α      in ANC's #3, #2, #1, ...

........................................................................
.............................. CYCLE   41 ..............................
........................................................................
------------------------------------------------------------
  cycle        total energy    energy error   density error
------------------------------------------------------------
      1     -148.4567414966  -1.5114483E+02   8.0235483E-04
      2     -148.4545726378   2.1688588E-03   2.6091013E-03
      3     -148.4565528790  -1.9802412E-03   9.1291692E-04
      4     -148.4567544599  -2.0158090E-04   2.2716612E-04
      5     -148.4567632872  -8.8272829E-06   1.6409702E-04
      6     -148.4567703409  -7.0536470E-06   6.1033190E-05
      7     -148.4567714582  -1.1173576E-06   1.4150110E-05
      8     -148.4567714892  -3.1005101E-08   9.1071658E-06
------------------------------------------------------------

 total:                                   0.144 sec
 * total energy  :  -148.4567715 Eh     change       -0.4168507E-05 Eh
   gradient norm :     0.0002966 Eh/α   predicted    -0.1714968E-05 ( -58.86%)
   displ. norm   :     0.2747367 α      lambda       -0.3685366E-05
   maximum displ.:     0.1604358 α      in ANC's #3, #2, #1, ...

........................................................................
.............................. CYCLE   42 ..............................
........................................................................
------------------------------------------------------------
  cycle        total energy    energy error   density error
------------------------------------------------------------
      1     -148.4567524459  -1.5114484E+02   8.8592334E-04
      2     -148.4530757480   3.6766979E-03   3.3957715E-03
      3     -148.4565442945  -3.4685465E-03   9.6429361E-04
      4     -148.4567584269  -2.1413239E-04   2.3752280E-04
      5     -148.4567690701  -1.0643205E-05   1.5000772E-04
      6     -148.4567751193  -6.0492390E-06   5.3705419E-05
      7     -148.4567759922  -8.7289393E-07   7.8756623E-06
------------------------------------------------------------

 total:                                   0.144 sec
 * total energy  :  -148.4567760 Eh     change       -0.4502993E-05 Eh
   gradient norm :     0.0003051 Eh/α   predicted    -0.1906089E-05 ( -57.67%)
   displ. norm   :     0.2854295 α      lambda       -0.3665804E-05
   maximum displ.:     0.1666658 α      in ANC's #3, #2, #1, ...
 * RMSD in coord.:     0.2497893 α      energy gain  -0.5579656E-04 Eh

generating ANC from exact Hessian ...
Using Lindh-Hessian (1995)
 Shifting diagonal of input Hessian by   9.934640560213990E-003
 Lowest  eigenvalues of input Hessian
    0.000000    0.000000    0.000000    0.000000    0.000000    0.000000
    0.010000    0.010054    0.010060    0.010262    0.010348    0.010426
    0.010891    0.011051    0.011295    0.011708    0.012156    0.012263
 Highest eigenvalues
    2.167903    2.178773    2.205525    2.215814    2.229446    2.282200
 

........................................................................
.............................. CYCLE   43 ..............................
........................................................................
------------------------------------------------------------
  cycle        total energy    energy error   density error
------------------------------------------------------------
      1     -148.4567785591  -1.5114502E+02   8.5964056E-04
      2     -148.4566377186   1.4084053E-04   8.2516070E-04
      3     -148.4541552659   2.4824527E-03   2.8401814E-03
      4     -148.4567464264  -2.5911606E-03   3.1805889E-04
      5     -148.4567705972  -2.4170779E-05   1.8088614E-04
      6     -148.4567791905  -8.5933169E-06   6.2950768E-05
      7     -148.4567803472  -1.1566408E-06   1.9659430E-05
      8     -148.4567803949  -4.7700496E-08   1.5195835E-05
------------------------------------------------------------

 total:                                   0.178 sec
 * total energy  :  -148.4567804 Eh     change       -0.4402664E-05 Eh
   gradient norm :     0.0004285 Eh/α   predicted     0.0000000E+00 (-100.00%)
   displ. norm   :     0.0120805 α      lambda       -0.6434047E-06
   maximum displ.:     0.0054103 α      in ANC's #5, #13, #16, ...

........................................................................
.............................. CYCLE   44 ..............................
........................................................................
------------------------------------------------------------
  cycle        total energy    energy error   density error
------------------------------------------------------------
      1     -148.4567381301  -1.5114515E+02   3.6762113E-04
      2     -148.4490737052   7.6644249E-03   4.8508478E-03
      3     -148.4567810249  -7.7073197E-03   6.0031881E-05
      4     -148.4567809554   6.9492501E-08   5.1273751E-05
      5     -148.4567816180  -6.6258511E-07   2.1134015E-05
      6     -148.4567816371  -1.9085405E-08   1.5293379E-05
------------------------------------------------------------

 total:                                   0.137 sec
 * total energy  :  -148.4567816 Eh     change       -0.1242166E-05 Eh
   gradient norm :     0.0001988 Eh/α   predicted    -0.4937913E-06 ( -60.25%)
   displ. norm   :     0.0523938 α      lambda       -0.3158698E-05
   maximum displ.:     0.0233954 α      in ANC's #5, #13, #16, ...

........................................................................
.............................. CYCLE   45 ..............................
........................................................................
------------------------------------------------------------
  cycle        total energy    energy error   density error
------------------------------------------------------------
      1     -148.4567590300  -1.5114534E+02   3.7891091E-04
      2     -148.4526298828   4.1291472E-03   3.5596521E-03
      3     -148.4567832564  -4.1533736E-03   1.6324004E-04
      4     -148.4567733324   9.9239620E-06   1.7462407E-04
      5     -148.4567837536  -1.0421153E-05   5.0380727E-05
      6     -148.4567845583  -8.0473441E-07   1.0312885E-05
------------------------------------------------------------

 total:                                   0.136 sec
 * total energy  :  -148.4567846 Eh     change       -0.2921253E-05 Eh
   gradient norm :     0.0005335 Eh/α   predicted    -0.1581928E-05 ( -45.85%)
   displ. norm   :     0.0273296 α      lambda       -0.8633571E-06
   maximum displ.:     0.0141590 α      in ANC's #5, #13, #16, ...

........................................................................
.............................. CYCLE   46 ..............................
........................................................................
------------------------------------------------------------
  cycle        total energy    energy error   density error
------------------------------------------------------------
      1     -148.4567687631  -1.5114526E+02   2.5941847E-04
      2     -148.4542440454   2.5247177E-03   2.7840789E-03
      3     -148.4567846111  -2.5405657E-03   9.3342619E-05
      4     -148.4567835264   1.0846677E-06   9.0120624E-05
      5     -148.4567850488  -1.5224362E-06   3.6725239E-05
      6     -148.4567854542  -4.0536455E-07   1.4096558E-05
------------------------------------------------------------

 total:                                   0.137 sec
 * total energy  :  -148.4567855 Eh     change       -0.8959040E-06 Eh
   gradient norm :     0.0004157 Eh/α   predicted    -0.4320729E-06 ( -51.77%)
   displ. norm   :     0.0262467 α      lambda       -0.7351186E-06
   maximum displ.:     0.0149866 α      in ANC's #5, #13, #15, ...

........................................................................
.............................. CYCLE   47 ..............................
........................................................................
------------------------------------------------------------
  cycle        total energy    energy error   density error
------------------------------------------------------------
      1     -148.4567195762  -1.5114515E+02   4.6551479E-04
      2     -148.4442595679   1.2460008E-02   6.1831791E-03
      3     -148.4567843206  -1.2524753E-02   1.0657413E-04
      4     -148.4567840335   2.8703545E-07   8.7181215E-05
      5     -148.4567861781  -2.1445628E-06   2.6722342E-05
      6     -148.4567861342   4.3934222E-08   2.6453659E-05
      7     -148.4567863840  -2.4984482E-07   4.6534242E-06
------------------------------------------------------------

 total:                                   0.156 sec
 * total energy  :  -148.4567864 Eh     change       -0.9298053E-06 Eh
   gradient norm :     0.0002134 Eh/α   predicted    -0.3733385E-06 ( -59.85%)
   displ. norm   :     0.0259920 α      lambda       -0.6774204E-06
   maximum displ.:     0.0159015 α      in ANC's #5, #8, #4, ...

........................................................................
.............................. CYCLE   48 ..............................
........................................................................
------------------------------------------------------------
  cycle        total energy    energy error   density error
------------------------------------------------------------
      1     -148.4567721358  -1.5114518E+02   2.3906876E-04
      2     -148.4544835505   2.2885853E-03   2.6525852E-03
      3     -148.4567855159  -2.3019654E-03   9.0476246E-05
      4     -148.4567860615  -5.4558353E-07   5.8876007E-05
      5     -148.4567871106  -1.0490933E-06   1.5548953E-05
      6     -148.4567871623  -5.1723390E-08   6.3068223E-06
------------------------------------------------------------

 total:                                   0.137 sec
 * total energy  :  -148.4567872 Eh     change       -0.7783069E-06 Eh
   gradient norm :     0.0002321 Eh/α   predicted    -0.3426541E-06 ( -55.97%)
   displ. norm   :     0.0251332 α      lambda       -0.5338745E-06
   maximum displ.:     0.0154999 α      in ANC's #5, #8, #4, ...

........................................................................
.............................. CYCLE   49 ..............................
........................................................................
------------------------------------------------------------
  cycle        total energy    energy error   density error
------------------------------------------------------------
      1     -148.4567793722  -1.5114520E+02   1.8441763E-04
      2     -148.4555867267   1.1926456E-03   1.9146240E-03
      3     -148.4567868428  -1.2001162E-03   7.3869111E-05
      4     -148.4567870459  -2.0310182E-07   5.4111908E-05
      5     -148.4567877972  -7.5125243E-07   1.2344148E-05
------------------------------------------------------------

 total:                                   0.117 sec
 * total energy  :  -148.4567878 Eh     change       -0.6348723E-06 Eh
   gradient norm :     0.0003673 Eh/α   predicted    -0.2690084E-06 ( -57.63%)
   displ. norm   :     0.0325068 α      lambda       -0.6746519E-06
   maximum displ.:     0.0198155 α      in ANC's #5, #4, #2, ...

........................................................................
.............................. CYCLE   50 ..............................
........................................................................
------------------------------------------------------------
  cycle        total energy    energy error   density error
------------------------------------------------------------
      1     -148.4567642372  -1.5114521E+02   2.9249651E-04
      2     -148.4528301429   3.9340944E-03   3.4747863E-03
      3     -148.4567880167  -3.9578738E-03   7.8709684E-05
      4     -148.4567871796   8.3705740E-07   7.6508547E-05
      5     -148.4567886369  -1.4572408E-06   1.3214724E-05
      6     -148.4567886106   2.6292184E-08   1.2776475E-05
------------------------------------------------------------

 total:                                   0.137 sec
 * total energy  :  -148.4567886 Eh     change       -0.8133668E-06 Eh
   gradient norm :     0.0003678 Eh/α   predicted    -0.3418727E-06 ( -57.97%)
   displ. norm   :     0.0378257 α      lambda       -0.7288656E-06
   maximum displ.:     0.0232621 α      in ANC's #5, #2, #4, ...

........................................................................
.............................. CYCLE   51 ..............................
........................................................................
------------------------------------------------------------
  cycle        total energy    energy error   density error
------------------------------------------------------------
      1     -148.4567658859  -1.5114525E+02   2.9371520E-04
      2     -148.4529837640   3.7821219E-03   3.4082090E-03
      3     -148.4567890276  -3.8052637E-03   8.0764589E-05
      4     -148.4567874603   1.5673657E-06   7.9090952E-05
      5     -148.4567893508  -1.8905434E-06   2.2073566E-05
      6     -148.4567894325  -8.1686238E-08   1.5132149E-05
------------------------------------------------------------

 total:                                   0.137 sec
 * total energy  :  -148.4567894 Eh     change       -0.8219341E-06 Eh
   gradient norm :     0.0002220 Eh/α   predicted    -0.3663025E-06 ( -55.43%)
   displ. norm   :     0.0358142 α      lambda       -0.6074100E-06
   maximum displ.:     0.0223312 α      in ANC's #5, #2, #4, ...

........................................................................
.............................. CYCLE   52 ..............................
........................................................................
------------------------------------------------------------
  cycle        total energy    energy error   density error
------------------------------------------------------------
      1     -148.4567514692  -1.5114525E+02   3.5844294E-04
      2     -148.4501028000   6.6486692E-03   4.5151461E-03
      3     -148.4567895490  -6.6867490E-03   8.3889326E-05
      4     -148.4567881268   1.4222425E-06   9.0544453E-05
      5     -148.4567900711  -1.9443332E-06   2.5289168E-05
      6     -148.4567901098  -3.8648608E-08   1.9087147E-05
------------------------------------------------------------

 total:                                   0.137 sec
 * total energy  :  -148.4567901 Eh     change       -0.6772800E-06 Eh
   gradient norm :     0.0001321 Eh/α   predicted    -0.3044162E-06 ( -55.05%)
   displ. norm   :     0.0397336 α      lambda       -0.6575037E-06
   maximum displ.:     0.0246907 α      in ANC's #5, #2, #4, ...

........................................................................
.............................. CYCLE   53 ..............................
........................................................................
------------------------------------------------------------
  cycle        total energy    energy error   density error
------------------------------------------------------------
      1     -148.4567208444  -1.5114521E+02   4.7583852E-04
      2     -148.4435903546   1.3130490E-02   6.3465431E-03
      3     -148.4567897759  -1.3199421E-02   9.7454883E-05
      4     -148.4567881556   1.6203776E-06   9.8258321E-05
      5     -148.4567906467  -2.4911377E-06   3.6682261E-05
      6     -148.4567907747  -1.2804753E-07   2.7341000E-05
      7     -148.4567910409  -2.6615950E-07   4.3698768E-06
------------------------------------------------------------

 total:                                   0.156 sec
 * total energy  :  -148.4567910 Eh     change       -0.9311335E-06 Eh
   gradient norm :     0.0003147 Eh/α   predicted    -0.3298292E-06 ( -64.58%)
   displ. norm   :     0.0497258 α      lambda       -0.8056340E-06
   maximum displ.:     0.0304644 α      in ANC's #5, #2, #4, ...

........................................................................
.............................. CYCLE   54 ..............................
........................................................................
------------------------------------------------------------
  cycle        total energy    energy error   density error
------------------------------------------------------------
      1     -148.4567874557  -1.5114527E+02   1.9941927E-04
      2     -148.4561686216   6.1883412E-04   1.3810721E-03
      3     -148.4567897671  -6.2114551E-04   1.2378330E-04
      4     -148.4567902629  -4.9584546E-07   7.5258839E-05
      5     -148.4567920189  -1.7559345E-06   9.7272347E-06
      6     -148.4567920432  -2.4338362E-08   3.8197307E-06
------------------------------------------------------------

 total:                                   0.136 sec
 * total energy  :  -148.4567920 Eh     change       -0.1002286E-05 Eh
   gradient norm :     0.0003622 Eh/α   predicted    -0.4051387E-06 ( -59.58%)
   displ. norm   :     0.0620052 α      lambda       -0.8639835E-06
   maximum displ.:     0.0377287 α      in ANC's #5, #2, #4, ...

........................................................................
.............................. CYCLE   55 ..............................
........................................................................
------------------------------------------------------------
  cycle        total energy    energy error   density error
------------------------------------------------------------
      1     -148.4567884970  -1.5114521E+02   2.2962978E-04
      2     -148.4561710962   6.1740075E-04   1.3794511E-03
      3     -148.4567875283  -6.1643202E-04   1.7190679E-04
      4     -148.4567913825  -3.8541951E-06   6.5709895E-05
      5     -148.4567930060  -1.6235557E-06   1.0828913E-05
      6     -148.4567930395  -3.3536168E-08   3.7810636E-06
------------------------------------------------------------

 total:                                   0.137 sec
 * total energy  :  -148.4567930 Eh     change       -0.9963493E-06 Eh
   gradient norm :     0.0003028 Eh/α   predicted    -0.4345227E-06 ( -56.39%)
   displ. norm   :     0.0543620 α      lambda       -0.5678126E-06
   maximum displ.:     0.0331296 α      in ANC's #5, #2, #4, ...

........................................................................
.............................. CYCLE   56 ..............................
........................................................................
------------------------------------------------------------
  cycle        total energy    energy error   density error
------------------------------------------------------------
      1     -148.4567915718  -1.5114520E+02   1.8270452E-04
      2     -148.4565275227   2.6404912E-04   9.0490303E-04
      3     -148.4567872736  -2.5975095E-04   1.6780441E-04
      4     -148.4567919605  -4.6869052E-06   7.7237588E-05
      5     -148.4567936410  -1.6804501E-06   1.0665946E-05
      6     -148.4567936756  -3.4666073E-08   3.1082373E-06
------------------------------------------------------------

 total:                                   0.148 sec
 * total energy  :  -148.4567937 Eh     change       -0.6360994E-06 Eh
   gradient norm :     0.0001708 Eh/α   predicted    -0.2848024E-06 ( -55.23%)
   displ. norm   :     0.0406914 α      lambda       -0.3594148E-06
   maximum displ.:     0.0247225 α      in ANC's #5, #2, #1, ...

........................................................................
.............................. CYCLE   57 ..............................
........................................................................
------------------------------------------------------------
  cycle        total energy    energy error   density error
------------------------------------------------------------
      1     -148.4567921806  -1.5114522E+02   1.3632130E-04
      2     -148.4565444800   2.4770061E-04   8.7366830E-04
      3     -148.4567925336  -2.4805361E-04   9.4117363E-05
      4     -148.4567939418  -1.4082161E-06   2.1778134E-05
      5     -148.4567940934  -1.5157312E-07   4.7101605E-06
------------------------------------------------------------

 total:                                   0.117 sec
 * total energy  :  -148.4567941 Eh     change       -0.4177142E-06 Eh
   gradient norm :     0.0000745 Eh/α   predicted    -0.1807395E-06 ( -56.73%)
   displ. norm   :     0.0372739 α      lambda       -0.3317878E-06
   maximum displ.:     0.0222354 α      in ANC's #5, #2, #1, ...

........................................................................
.............................. CYCLE   58 ..............................
........................................................................
------------------------------------------------------------
  cycle        total energy    energy error   density error
------------------------------------------------------------
      1     -148.4567926172  -1.5114525E+02   1.2212858E-04
      2     -148.4565298088   2.6280833E-04   8.9843700E-04
      3     -148.4567936738  -2.6386493E-04   7.6745164E-05
      4     -148.4567935346   1.3913527E-07   5.8396893E-05
      5     -148.4567947148  -1.1801202E-06   5.8417127E-06
      6     -148.4567947225  -7.7091329E-09   2.9493442E-06
------------------------------------------------------------

 total:                                   0.136 sec
[...]

 * 3 distinct bonds (by element types)

   Z      Z             #   av. dist./Å        max./Å        min./Å
   1 H    6 C          34     1.0809144     1.0884079     1.0777691
   6 C    6 C          54     1.4036131     1.5403254     1.3671409
   6 C    7 N          14     1.3551093     1.4241442     1.3062554

           -------------------------------------------------
          |               Frequency Printout                |
           -------------------------------------------------
 projected vibrational frequencies (cm⁻¹)
eigval :       -0.00    -0.00    -0.00     0.00     0.00     0.00
eigval :        5.58     9.44     9.61    20.45    27.30    33.24
eigval :       42.12    48.77    55.16    64.49    73.62    75.58
eigval :       78.07    84.04    90.06   100.41   105.20   113.21
eigval :      119.74   128.33   129.59   141.54   169.94   172.20
eigval :      185.49   186.05   191.03   196.36   200.87   213.74
eigval :      223.84   234.90   239.36   262.03   267.40   273.87
eigval :      287.97   296.22   306.76   315.22   337.06   341.59
eigval :      355.15   363.74   379.75   380.72   381.64   384.86
eigval :      392.77   398.23   400.48   404.88   406.14   422.10
eigval :      424.16   434.29   436.81   440.49   448.16   452.09
eigval :      477.70   495.36   498.67   511.05   520.22   522.16
eigval :      524.00   530.14   531.58   536.28   541.65   556.50
eigval :      572.17   583.04   585.69   588.04   593.63   596.06
eigval :      602.43   618.74   624.20   632.83   638.97   640.45
eigval :      655.12   656.20   666.28   674.01   678.79   683.31
eigval :      686.34   692.09   696.20   696.82   704.41   705.16
eigval :      722.95   733.98   744.53   762.20   765.53   770.83
eigval :      775.98   776.62   785.67   795.23   800.70   815.15
eigval :      817.36   833.99   838.07   859.48   867.90   868.56
eigval :      871.88   873.86   875.93   886.84   903.36   903.80
eigval :      905.02   908.47   910.04   910.48   913.05   914.90
eigval :      916.00   916.94   921.13   922.13   922.59   927.81
eigval :      933.47   933.84   934.65   938.07   957.12   972.68
eigval :      995.34  1014.53  1017.40  1018.60  1026.07  1041.12
eigval :     1071.32  1079.21  1081.61  1082.74  1088.29  1090.32
eigval :     1095.29  1096.57  1116.09  1117.93  1125.31  1129.87
eigval :     1137.03  1140.35  1154.60  1156.05  1156.54  1157.13
eigval :     1173.77  1176.13  1179.25  1179.39  1181.25  1183.52
eigval :     1186.86  1195.35  1204.01  1215.74  1226.20  1231.66
eigval :     1234.16  1242.73  1245.14  1251.11  1253.32  1261.60
eigval :     1269.49  1273.03  1283.73  1289.08  1293.11  1295.67
eigval :     1308.96  1316.55  1318.25  1325.21  1327.55  1335.21
eigval :     1338.21  1340.77  1347.01  1354.10  1362.68  1375.50
eigval :     1376.93  1387.75  1398.35  1401.90  1402.49  1408.06
eigval :     1416.18  1419.60  1425.72  1434.49  1435.86  1441.26
eigval :     1442.39  1449.80  1454.07  1458.56  1462.97  1473.72
eigval :     1480.40  1482.23  1486.08  1488.88  1490.69  1500.59
eigval :     1504.20  1505.79  1508.60  1513.83  1543.31  1556.41
eigval :     1558.18  1571.13  1573.52  1576.79  1581.67  1585.72
eigval :     1590.62  1591.34  1594.98  1598.06  1613.81  3027.68
eigval :     3029.83  3040.14  3042.89  3050.49  3051.92  3052.54
eigval :     3054.62  3075.69  3076.10  3076.58  3079.47  3080.18
eigval :     3081.88  3082.42  3084.57  3086.08  3086.60  3088.77
eigval :     3091.02  3091.50  3091.59  3091.86  3095.15  3096.19
eigval :     3097.50  3097.83  3098.35  3100.49  3100.93  3103.21
eigval :     3106.00  3107.12  3113.56
 reduced masses (amu)
   1: 11.57   2: 11.77   3: 11.80   4: 11.83   5: 11.31   6: 11.41   7: 11.30   8: 10.93
   9: 11.37  10: 11.10  11: 10.10  12: 11.04  13: 11.76  14: 10.86  15: 10.57  16: 10.22
  17: 10.91  18: 10.64  19: 10.78  20: 10.37  21: 10.46  22: 10.59  23: 10.43  24: 10.61
  25: 11.07  26:  4.46  27: 10.45  28:  9.80  29: 11.52  30: 10.73  31: 10.95  32: 11.29
  33:  2.53  34:  9.42  35:  9.76  36: 10.46  37: 10.95  38: 10.85  39: 10.44  40: 10.85
  41: 10.53  42: 10.54  43: 10.32  44: 10.87  45: 10.87  46: 10.54  47:  9.54  48: 10.60
  49: 11.19  50: 10.42  51: 11.04  52:  9.61  53:  9.85  54: 10.20  55:  9.95  56: 11.53
  57: 11.35  58: 11.63  59: 10.28  60: 10.35  61: 11.17  62: 10.83  63: 10.71  64: 11.73
  65: 10.61  66: 10.13  67: 10.30  68: 11.32  69: 11.15  70: 10.61  71: 11.56  72:  9.72
  73: 10.87  74: 10.12  75: 11.33  76: 11.22  77: 10.83  78: 11.02  79: 10.94  80: 12.04
  81: 11.98  82: 11.62  83: 11.42  84: 11.50  85: 11.41  86: 11.21  87: 10.85  88: 11.23
  89: 11.67  90: 11.70  91: 11.78  92: 11.26  93: 10.62  94: 10.37  95: 11.62  96: 11.51
  97: 11.34  98: 11.56  99: 11.46 100: 12.50 101: 11.61 102: 11.65 103: 11.60 104: 11.01
 105: 12.08 106:  7.99 107:  7.67 108:  4.19 109:  3.59 110:  3.38 111:  3.79 112:  3.94
 113: 11.07 114: 10.79 115:  5.59 116:  5.82 117:  7.81 118:  3.82 119:  3.49 120:  3.35
 121:  3.59 122:  3.50 123: 11.58 124:  3.27 125:  3.87 126:  4.20 127:  4.21 128:  3.93
 129:  4.04 130:  3.58 131: 10.66 132:  3.81 133:  3.63 134:  3.60 135:  3.26 136:  3.09
 137:  3.16 138: 10.80 139: 10.38 140:  3.98 141:  4.12 142:  9.17 143:  4.58 144: 11.59
 145: 10.79 146:  3.28 147: 10.01 148: 11.65 149: 10.19 150: 10.27 151:  5.97 152:  7.28
 153:  6.72 154:  7.13 155:  7.74 156:  7.65 157:  6.18 158:  8.25 159:  5.90 160:  3.99
 161:  7.44 162:  3.91 163:  5.24 164:  6.17 165:  7.46 166:  9.38 167:  7.63 168:  7.18
 169:  6.52 170:  5.11 171:  2.22 172:  2.79 173:  1.50 174:  4.83 175:  1.53 176:  2.96
 177:  7.41 178:  6.82 179:  5.68 180:  6.09 181:  4.87 182:  8.96 183:  6.34 184:  6.29
 185:  6.95 186:  8.18 187:  7.67 188:  7.41 189:  6.62 190:  8.20 191:  9.20 192:  9.33
 193: 10.29 194: 10.87 195: 11.78 196:  9.40 197: 10.62 198: 11.10 199: 10.38 200: 10.85
 201: 10.93 202: 11.76 203: 10.89 204: 10.37 205: 10.68 206: 10.98 207: 11.44 208: 10.49
 209:  2.98 210: 10.70 211: 10.30 212:  4.17 213:  9.29 214:  9.42 215:  9.51 216:  9.87
 217: 11.07 218: 11.40 219: 11.81 220: 10.87 221: 10.65 222: 10.37 223:  9.68 224: 10.09
 225: 10.42 226:  1.61 227:  1.61 228:  1.59 229:  2.66 230: 11.65 231: 11.69 232: 11.62
 233: 11.61 234: 11.81 235: 11.73 236: 11.96 237: 11.55 238: 11.57 239: 11.54 240: 11.62
 241: 11.46 242: 11.48 243: 11.49 244: 11.70 245: 11.73 246:  1.86 247:  1.78 248:  1.92
 249:  1.92 250:  1.36 251:  1.79 252:  1.79 253:  1.44 254:  1.79 255:  1.79 256:  1.77
 257:  1.75 258:  1.76 259:  1.75 260:  1.78 261:  1.80 262:  1.82 263:  1.81 264:  1.79
 265:  1.85 266:  1.89 267:  1.86 268:  1.89 269:  1.87 270:  1.85 271:  1.83 272:  1.87
 273:  1.91 274:  1.92 275:  1.88 276:  1.87 277:  1.85 278:  1.84 279:  1.82
 IR intensities (km·mol⁻¹)
   1:  0.68   2:  1.08   3:  1.71   4:  1.75   5:  4.20   6:  2.72   7:  0.21   8: 18.04
   9:  0.42  10:  5.05  11:  0.00  12:  0.92  13:  2.13  14:  4.23  15:  3.46  16:  5.50
  17:  1.87  18:  4.71  19:  3.25  20:  6.44  21: 11.45  22:  3.16  23:  0.35  24:  0.67
  25:  8.52  26:  0.23  27:  0.18  28:  6.76  29:  1.95  30:  4.16  31:  3.27  32: 18.18
  33:  0.26  34:  1.04  35:  0.31  36: 11.14  37:  1.36  38:  0.35  39:  5.23  40:  0.20
  41: 11.50  42: 54.26  43:  1.95  44:  3.71  45:  4.60  46:  3.79  47:  0.67  48:  0.29
  49:  4.39  50:  5.22  51:  0.71  52: 33.10  53: 14.00  54:  1.11  55: 24.90  56:  0.43
  57:  6.04  58: 10.39  59:  2.37  60:  1.03  61:  4.24  62:  2.71  63:  0.09  64:  1.56
  65:  2.70  66:  1.14  67:  1.51  68:  3.66  69:  1.61  70:  1.79  71: 15.03  72:  3.36
  73:  0.72  74: 18.99  75:  8.72  76:  6.25  77:  7.02  78:  1.52  79:  2.40  80: 30.56
  81:  4.02  82: 10.13  83: 13.06  84:  3.87  85:  3.70  86:  3.53  87: 43.18  88:  4.10
  89:  5.69  90:  3.23  91:  0.56  92:  7.06  93:  3.10  94: 22.95  95:  2.02  96:  1.49
  97:  1.33  98: 11.16  99: 25.44 100:328.24 101: 25.98 102:  1.86 103:  0.75 104:  0.65
 105:  0.54 106: 13.94 107: 19.87 108: 14.59 109: 38.67 110: 15.82 111: 30.66 112:  5.65
 113: 69.72 114: 36.68 115:  5.33 116: 27.77 117:  1.85 118: 11.16 119:  0.20 120:  1.19
 121: 17.05 122:  2.79 123: 30.08 124:  3.15 125:  9.74 126:  2.81 127: 26.81 128: 11.62
 129: 26.83 130:  3.03 131: 15.89 132:  3.84 133:  2.24 134:  2.21 135:  0.12 136:  0.26
 137:  0.21 138: 51.45 139: 10.82 140:  1.42 141:  0.91 142: 11.39 143:  0.68 144: 16.95
 145:  0.35 146:  2.92 147: 21.54 148:140.07 149:  1.63 150:  8.79 151: 16.09 152:  1.82
 153: 36.58 154:132.95 155: 13.86 156: 82.75 157:  3.10 158:121.22 159: 44.97 160: 19.73
 161: 17.81 162:  0.68 163: 66.35 164:  4.44 165: 57.76 166: 11.29 167:  8.33 168: 48.97
 169: 61.13 170:  1.87 171:  7.39 172:  9.60 173:  3.12 174: 46.09 175: 17.37 176:  3.97
 177: 14.94 178:191.18 179:  0.47 180: 31.80 181:134.96 182: 68.13 183: 43.56 184: 28.60
 185:  4.27 186: 74.28 187: 60.60 188: 11.91 189: 39.36 190: 10.65 191:  5.60 192:  9.04
 193: 73.85 194: 52.61 195:  4.33 196: 16.52 197: 48.72 198: 60.99 199:124.20 200: 20.26
 201:  9.42 202: 23.88 203:  2.71 204: 54.98 205: 23.12 206:445.11 207: 10.16 208:  2.36
 209:  3.45 210: 12.13 211:  1.52 212:119.57 213:210.71 214: 56.41 215:184.36 216:161.14
 217:  7.08 218:141.90 219:****** 220: 75.23 221: 27.94 222:133.27 223: 72.04 224:147.42
 225: 93.17 226:  0.36 227:  1.04 228:  0.98 229:  6.90 230: 21.20 231: 11.88 232: 41.48
 233: 43.61 234: 11.08 235:202.20 236: 14.86 237:  0.75 238: 21.43 239:  8.80 240: 74.54
 241: 14.59 242:  4.84 243: 73.63 244:252.29 245:335.52 246: 38.32 247:170.90 248:  1.36
 249: 38.35 250: 12.43 251: 39.14 252:139.31 253: 45.53 254: 10.09 255: 45.43 256:  6.91
 257:  4.55 258: 15.92 259:  1.28 260: 11.23 261: 45.27 262: 95.51 263:  6.12 264: 21.67
 265:308.19 266:123.81 267: 12.57 268: 30.57 269: 81.24 270:  9.09 271:  9.29 272:244.37
 273:287.76 274:135.42 275: 44.31 276:  8.83 277: 69.60 278: 31.78 279: 12.93
 Raman intensities (Ä⁴*amu⁻¹)
   1:  0.00   2:  0.00   3:  0.00   4:  0.00   5:  0.00   6:  0.00   7:  0.00   8:  0.00
   9:  0.00  10:  0.00  11:  0.00  12:  0.00  13:  0.00  14:  0.00  15:  0.00  16:  0.00
  17:  0.00  18:  0.00  19:  0.00  20:  0.00  21:  0.00  22:  0.00  23:  0.00  24:  0.00
  25:  0.00  26:  0.00  27:  0.00  28:  0.00  29:  0.00  30:  0.00  31:  0.00  32:  0.00
  33:  0.00  34:  0.00  35:  0.00  36:  0.00  37:  0.00  38:  0.00  39:  0.00  40:  0.00
  41:  0.00  42:  0.00  43:  0.00  44:  0.00  45:  0.00  46:  0.00  47:  0.00  48:  0.00
  49:  0.00  50:  0.00  51:  0.00  52:  0.00  53:  0.00  54:  0.00  55:  0.00  56:  0.00
  57:  0.00  58:  0.00  59:  0.00  60:  0.00  61:  0.00  62:  0.00  63:  0.00  64:  0.00
  65:  0.00  66:  0.00  67:  0.00  68:  0.00  69:  0.00  70:  0.00  71:  0.00  72:  0.00
  73:  0.00  74:  0.00  75:  0.00  76:  0.00  77:  0.00  78:  0.00  79:  0.00  80:  0.00
  81:  0.00  82:  0.00  83:  0.00  84:  0.00  85:  0.00  86:  0.00  87:  0.00  88:  0.00
  89:  0.00  90:  0.00  91:  0.00  92:  0.00  93:  0.00  94:  0.00  95:  0.00  96:  0.00
  97:  0.00  98:  0.00  99:  0.00 100:  0.00 101:  0.00 102:  0.00 103:  0.00 104:  0.00
 105:  0.00 106:  0.00 107:  0.00 108:  0.00 109:  0.00 110:  0.00 111:  0.00 112:  0.00
 113:  0.00 114:  0.00 115:  0.00 116:  0.00 117:  0.00 118:  0.00 119:  0.00 120:  0.00
 121:  0.00 122:  0.00 123:  0.00 124:  0.00 125:  0.00 126:  0.00 127:  0.00 128:  0.00
 129:  0.00 130:  0.00 131:  0.00 132:  0.00 133:  0.00 134:  0.00 135:  0.00 136:  0.00
 137:  0.00 138:  0.00 139:  0.00 140:  0.00 141:  0.00 142:  0.00 143:  0.00 144:  0.00
 145:  0.00 146:  0.00 147:  0.00 148:  0.00 149:  0.00 150:  0.00 151:  0.00 152:  0.00
 153:  0.00 154:  0.00 155:  0.00 156:  0.00 157:  0.00 158:  0.00 159:  0.00 160:  0.00
 161:  0.00 162:  0.00 163:  0.00 164:  0.00 165:  0.00 166:  0.00 167:  0.00 168:  0.00
 169:  0.00 170:  0.00 171:  0.00 172:  0.00 173:  0.00 174:  0.00 175:  0.00 176:  0.00
 177:  0.00 178:  0.00 179:  0.00 180:  0.00 181:  0.00 182:  0.00 183:  0.00 184:  0.00
 185:  0.00 186:  0.00 187:  0.00 188:  0.00 189:  0.00 190:  0.00 191:  0.00 192:  0.00
 193:  0.00 194:  0.00 195:  0.00 196:  0.00 197:  0.00 198:  0.00 199:  0.00 200:  0.00
 201:  0.00 202:  0.00 203:  0.00 204:  0.00 205:  0.00 206:  0.00 207:  0.00 208:  0.00
 209:  0.00 210:  0.00 211:  0.00 212:  0.00 213:  0.00 214:  0.00 215:  0.00 216:  0.00
 217:  0.00 218:  0.00 219:  0.00 220:  0.00 221:  0.00 222:  0.00 223:  0.00 224:  0.00
 225:  0.00 226:  0.00 227:  0.00 228:  0.00 229:  0.00 230:  0.00 231:  0.00 232:  0.00
 233:  0.00 234:  0.00 235:  0.00 236:  0.00 237:  0.00 238:  0.00 239:  0.00 240:  0.00
 241:  0.00 242:  0.00 243:  0.00 244:  0.00 245:  0.00 246:  0.00 247:  0.00 248:  0.00
 249:  0.00 250:  0.00 251:  0.00 252:  0.00 253:  0.00 254:  0.00 255:  0.00 256:  0.00
 257:  0.00 258:  0.00 259:  0.00 260:  0.00 261:  0.00 262:  0.00 263:  0.00 264:  0.00
 265:  0.00 266:  0.00 267:  0.00 268:  0.00 269:  0.00 270:  0.00 271:  0.00 272:  0.00
 273:  0.00 274:  0.00 275:  0.00 276:  0.00 277:  0.00 278:  0.00 279:  0.00
 output can be read by thermo (or use thermo option).
 writing <g98.out> molden fake output.
 recommended (thermochemical) frequency scaling factor: 1.0
           -------------------------------------------------
          |             Thermodynamic Functions             |
           -------------------------------------------------

Molecule has no symmetry elements
It seems to be the C1 point group
c1  symmetry found (for desy threshold:  0.10E+00) used in thermo

          ...................................................
          :                      SETUP                      :
          :.................................................:
          :  # frequencies                         273      :
          :  # imaginary freq.                       0      :
          :  linear?                             false      :
          :  only rotor calc.                    false      :
          :  symmetry                               c1      :
          :  rotational number                       1      :
          :  scaling factor                  1.0000000      :
          :  rotor cutoff                   50.0000000 cm⁻¹ :
          :  imag. cutoff                  -20.0000000 cm⁻¹ :
          :.................................................:

    mode    ω/cm⁻¹     T·S(HO)/kcal·mol⁻¹    T·S(FR)/kcal·mol⁻¹   T·S(vib)
   ------------------------------------------------------------------------
       1      5.58    -2.73358 (  0.02%)    -1.70585 ( 99.98%)    -1.70601
       2      9.44    -2.42273 (  0.13%)    -1.55043 ( 99.87%)    -1.55154
       3      9.61    -2.41198 (  0.14%)    -1.54506 ( 99.86%)    -1.54624
       4     20.45    -1.96494 (  2.72%)    -1.32145 ( 97.28%)    -1.33895
       5     27.30    -1.79380 (  8.16%)    -1.23580 ( 91.84%)    -1.28135
       6     33.24    -1.67736 ( 16.34%)    -1.17747 ( 83.66%)    -1.25917
       7     42.12    -1.53746 ( 33.50%)    -1.10733 ( 66.50%)    -1.25142
       8     48.77    -1.45103 ( 47.50%)    -1.06394 ( 52.50%)    -1.24783
       9     55.16    -1.37847 ( 59.69%)    -1.02747 ( 40.31%)    -1.23698
      10     64.49    -1.28651 ( 73.45%)    -0.98118 ( 26.55%)    -1.20545
      11     73.62    -1.20874 ( 82.46%)    -0.94193 ( 17.54%)    -1.16193
      12     75.58    -1.19335 ( 83.92%)    -0.93415 ( 16.08%)    -1.15168
      13     78.07    -1.17434 ( 85.60%)    -0.92454 ( 14.40%)    -1.13837
      14     84.04    -1.13123 ( 88.87%)    -0.90271 ( 11.13%)    -1.10579
      15     90.06    -1.09088 ( 91.32%)    -0.88224 (  8.68%)    -1.07278
      16    100.41    -1.02753 ( 94.21%)    -0.85000 (  5.79%)    -1.01725
      17    105.20    -1.00048 ( 95.14%)    -0.83619 (  4.86%)    -0.99250
      18    113.21    -0.95797 ( 96.34%)    -0.81444 (  3.66%)    -0.95271
      19    119.74    -0.92562 ( 97.05%)    -0.79784 (  2.95%)    -0.92185
      20    128.33    -0.88580 ( 97.75%)    -0.77733 (  2.25%)    -0.88335
      21    129.59    -0.88018 ( 97.83%)    -0.77443 (  2.17%)    -0.87789
      22    141.54    -0.82975 ( 98.47%)    -0.74830 (  1.53%)    -0.82850
      23    169.94    -0.72635 ( 99.26%)    -0.69413 (  0.74%)    -0.72611
      24    172.20    -0.71894 ( 99.29%)    -0.69020 (  0.71%)    -0.71873
      25    185.49    -0.67751 ( 99.47%)    -0.66818 (  0.53%)    -0.67746
      26    186.05    -0.67586 ( 99.48%)    -0.66729 (  0.52%)    -0.67581
      27    191.03    -0.66123 ( 99.53%)    -0.65946 (  0.47%)    -0.66122
      28    196.36    -0.64607 ( 99.58%)    -0.65131 (  0.42%)    -0.64609
      29    200.87    -0.63361 ( 99.62%)    -0.64459 (  0.38%)    -0.63365
      30    213.74    -0.59972 ( 99.70%)    -0.62618 (  0.30%)    -0.59979
      31    223.84    -0.57478 ( 99.75%)    -0.61251 (  0.25%)    -0.57487
      32    234.90    -0.54895 ( 99.80%)    -0.59822 (  0.20%)    -0.54905
      33    239.36    -0.53894 ( 99.81%)    -0.59265 (  0.19%)    -0.53904
      34    262.03    -0.49142 ( 99.87%)    -0.56585 (  0.13%)    -0.49152
      35    267.40    -0.48089 ( 99.88%)    -0.55983 (  0.12%)    -0.48099
      36    273.87    -0.46860 ( 99.89%)    -0.55276 (  0.11%)    -0.46869
      37    287.97    -0.44301 ( 99.91%)    -0.53788 (  0.09%)    -0.44309
      38    296.22    -0.42878 ( 99.92%)    -0.52951 (  0.08%)    -0.42886
   ------------------------------------------------------------------------

   temp. (K)  partition function   enthalpy   heat capacity  entropy
                                   cal/mol     cal/K/mol   cal/K/mol   J/K/mol
 298.15  VIB  0.360E+21            26846.269    172.927    166.557
         ROT  0.168E+09              888.752      2.981     40.616
         INT  0.605E+29            27735.021    175.908    207.173
         TR   0.201E+29             1481.254      4.968     45.723
         TOT                       29216.2752   180.8761   252.8953  1058.1141

       T/K    H(0)-H(T)+PV         H(T)/Eh          T*S/Eh         G(T)/Eh
   ------------------------------------------------------------------------
    298.15    0.465591E-01    0.751587E+00    0.120159E+00    0.631428E+00
   ------------------------------------------------------------------------

         :::::::::::::::::::::::::::::::::::::::::::::::::::::
         ::                  THERMODYNAMIC                  ::
         :::::::::::::::::::::::::::::::::::::::::::::::::::::
         :: total free energy        -147.825369379664 Eh   ::
         ::.................................................::
         :: total energy             -148.456797215083 Eh   ::
         :: zero point energy           0.705027470395 Eh   ::
         :: G(RRHO) w/o ZPVE           -0.073599634976 Eh   ::
         :: G(RRHO) contrib.            0.631427835419 Eh   ::
         :::::::::::::::::::::::::::::::::::::::::::::::::::::

optimized geometry written to: xtbopt.xyz


           -------------------------------------------------
          | TOTAL ENERGY             -148.456797215083 Eh   |
          | TOTAL ENTHALPY           -147.705210646573 Eh   |
          | TOTAL FREE ENERGY        -147.825369379664 Eh   |
          | GRADIENT NORM               0.000060894381 Eh/α |
           -------------------------------------------------

------------------------------------------------------------------------
 * finished run on 2025/09/08 at 08:55:59.000     
------------------------------------------------------------------------
 total:
 * wall-time:     0 d,  0 h,  0 min, 18.816 sec
 *  cpu-time:     0 d,  0 h, 11 min, 48.120 sec
 * ratio c/w:    37.633 speedup
 SCF:
 * wall-time:     0 d,  0 h,  0 min,  0.544 sec
 *  cpu-time:     0 d,  0 h,  0 min, 21.566 sec
 * ratio c/w:    39.641 speedup
 ANC optimizer:
 * wall-time:     0 d,  0 h,  0 min,  9.196 sec
 *  cpu-time:     0 d,  0 h,  6 min,  7.764 sec
 * ratio c/w:    39.991 speedup
 analytical hessian:
 * wall-time:     0 d,  0 h,  0 min,  9.014 sec
 *  cpu-time:     0 d,  0 h,  5 min, 17.496 sec
 * ratio c/w:    35.224 speedup

