$hessian                                                                        
        0.5250361068   0.0115856931  -0.0115527168  -0.0658207994   0.0133356477
       -0.0157071979   0.0011709990  -0.0002799485  -0.0000718012   0.0031970729
       -0.0143973948   0.0107014311  -0.0013570719  -0.0004598780   0.0005367961
        0.0007168599   0.0000695039  -0.0004642373  -0.0001078997   0.0001241603
       -0.0001170292   0.0000702268  -0.0001221730  -0.0001289487   0.0000257594
        0.0000564020   0.0000281880   0.0000233444  -0.0000220764  -0.0000246254
       -0.0000176975   0.0000050807  -0.0000003919   0.0000072991   0.0000024798
       -0.0000014464  -0.0000399274  -0.0000119003  -0.0000133318  -0.0000299114
        0.0000138815   0.0000180631   0.0000114254   0.0000017980  -0.0000018855
       -0.0000107040   0.0000114084   0.0000129599   0.0000441957   0.0000011459
        0.0000234876  -0.0000072524   0.0000042691  -0.0000374241   0.0001006054
        0.0000090814   0.0001186908  -0.0003313402  -0.0000980421   0.0000688323
        0.0004473598  -0.0001175071  -0.0008919236  -0.0037408721  -0.0006555327
        0.0005450424   0.0028162995   0.0008255950  -0.0001251171   0.0000513949
       -0.0000715847   0.0000067231   0.0000011864   0.0000081796  -0.0000317978
        0.0000042258   0.0000149243   0.0000056745   0.0000005524  -0.0000196115
        0.0000155705  -0.0000051879   0.0000251758   0.0000024974  -0.0000011737
       -0.0000029199   0.0000008367  -0.0000011552  -0.0000002003  -0.0000028456
       -0.0000004218  -0.0000020653  -0.0000008246  -0.0000005032   0.0000011729
        0.0000012266   0.0000015888  -0.0000022474   0.0000053459  -0.0000043412
        0.0000138641  -0.0000012241  -0.0000082482  -0.0000355411  -0.0000158374
        0.0000115430   0.0000272205   0.0000131224   0.0000048142  -0.0000323945
       -0.0000068004   0.0000054710   0.0000275968  -0.0000287471  -0.0046344968
       -0.0016110613  -0.0006818031   0.0002319131   0.0004200540   0.0013077056
       -0.0002331994   0.0000190396   0.0000273899   0.0007403418   0.0003276767
        0.0007187990  -0.0000969439  -0.0001267389  -0.0000338782   0.0002463073
        0.0000071741   0.0001590403  -0.0000390359   0.0000099149  -0.0000479867
        0.0000522719   0.0000090291   0.0000255466  -0.0000138478  -0.0000298720
        0.0000092275   0.0000216638   0.0000143239   0.0000023956  -0.0000380781
       -0.0000701010   0.0000137228  -0.0000432249   0.0000099956  -0.0000308774
        0.0000116446  -0.0000151298   0.0000090788  -0.0000026017  -0.0000267203
        0.0000155020   0.0000165676   0.0000845165  -0.0000624378   0.0002580106
        0.0000427907   0.0000233619  -0.0000266147   0.0001405206  -0.0000646433
       -0.0011772495   0.0005768860  -0.0008056842  -0.0123665985   0.0223471157
       -0.0157621076  -0.2520924753   0.0799174502   0.0258899203  -0.1453702175
       -0.1192188915  -0.0133568202  -0.0461775821   0.0079962973   0.0189918723
        0.0005439768   0.0000541275   0.0003768309   0.0003860475  -0.0004764503
        0.0005481155   0.0000878164   0.0003848550  -0.0002273490  -0.0007026742
       -0.0012987692   0.0008647558  -0.0000024192  -0.0000261775  -0.0000144982
       -0.0000029749   0.0000076693   0.0000206315  -0.0000155417   0.0000088208
        0.0000140553  -0.0000196998   0.0000035205   0.0000050531  -0.0000232402
        0.0000022665   0.0000013356  -0.0000189652  -0.0000035903  -0.0000098488
       -0.0000072828  -0.0000081120  -0.0000144656  -0.0000009748   0.0000022006
        0.0000109982   0.0000215096  -0.0000934500   0.0001237832  -0.0001051527
       -0.0001958661   0.0000472701  -0.0000145145   0.0000060697   0.0000175034
       -0.0000053592   0.0000076580   0.0000053585  -0.0000011005   0.0000009972
        0.0000016093  -0.0000021090   0.0000012743   0.0000001824  -0.0000023492
        0.0000008262  -0.0000012083  -0.0000013320  -0.0000029771   0.0000003462
       -0.0000104226  -0.0000169160   0.0000177840  -0.0002404452   0.0001438585
       -0.0000350582  -0.0000419531   0.0001017741  -0.0001751564   0.0000103245
       -0.0000061985   0.0000158948  -0.0000150301   0.0000092372  -0.0000150422
       -0.0000229923  -0.0000021815  -0.0000111105  -0.0000249912  -0.0000154235
       -0.0000041750  -0.0000243672  -0.0000208797  -0.0000021381  -0.0000306985
       -0.0000380037   0.0000085079  -0.0000152170  -0.0000285717   0.0000222821
       -0.0001654819  -0.0000132937  -0.0000067221  -0.0010627635   0.0008541724
       -0.0008111842
        0.0115856931   0.4833425100   0.0429504874   0.0137779855  -0.1112853188
        0.0582283512  -0.0010873394   0.0047834798  -0.0038247235  -0.0047870725
       -0.0257232633   0.0148289358   0.0012360692  -0.0007307282   0.0008047922
        0.0001480976  -0.0003532711  -0.0008502268  -0.0001201705   0.0000454669
        0.0000761830   0.0000724771  -0.0000973929  -0.0001309729   0.0000301887
        0.0000212141   0.0000411125   0.0000196360  -0.0000138398  -0.0000262060
       -0.0000192560   0.0000056635  -0.0000034287   0.0000062776   0.0000054404
        0.0000059873  -0.0000253687   0.0000027518  -0.0000072235  -0.0000247772
        0.0000095323   0.0000110670   0.0000018960  -0.0000054171  -0.0000078436
       -0.0000058414   0.0000052618   0.0000049301   0.0000270639   0.0000034625
        0.0000164554   0.0000060604  -0.0000135424  -0.0000464525   0.0001120936
        0.0000699074   0.0000814675  -0.0000241628   0.0000055018  -0.0001368760
       -0.0001484735  -0.0005544418  -0.0010989092  -0.0029156401  -0.0006368663
        0.0012020423   0.0006262705   0.0000914051  -0.0000302491  -0.0000318711
        0.0001525875  -0.0000781232   0.0000042479   0.0000310613   0.0000293225
        0.0000063893  -0.0000228894   0.0000033953  -0.0000213161   0.0000494344
       -0.0000147019   0.0000205725  -0.0000540119   0.0000029335  -0.0000074414
        0.0000147054  -0.0000105078   0.0000070144  -0.0000007398   0.0000111628
       -0.0000005681   0.0000051010  -0.0000035137   0.0000019706   0.0000013296
       -0.0000001342  -0.0000050936   0.0000042752  -0.0000164585   0.0000143358
       -0.0000337895   0.0000051586  -0.0000274967   0.0000713010  -0.0000026163
        0.0000149359  -0.0000385515  -0.0000063217   0.0000089013  -0.0000093367
        0.0000147119   0.0000035422   0.0000109443   0.0000167007   0.0010164755
        0.0003035053   0.0007505907   0.0003937136  -0.0002391037  -0.0006348342
       -0.0001444110  -0.0000365503  -0.0001669343   0.0001967361  -0.0001723969
       -0.0006151753   0.0000106808   0.0001153910  -0.0000634302  -0.0000014324
        0.0000596015   0.0000309934  -0.0000043039  -0.0000496433   0.0000237776
       -0.0000096710   0.0000023829  -0.0000069513   0.0000015306   0.0000116252
       -0.0000055506   0.0000318957   0.0000012805   0.0000131785  -0.0000072836
       -0.0000094366  -0.0000022482   0.0000332968   0.0000391081   0.0000125406
       -0.0000049720  -0.0000139680   0.0000057153   0.0000311873   0.0000290754
        0.0000165672   0.0000421235  -0.0000021892   0.0000254075   0.0001027737
       -0.0000169998  -0.0001124872  -0.0000367367  -0.0001428264   0.0000953885
       -0.0012545906  -0.0011269415   0.0006707527   0.0131728643  -0.0119881692
        0.0077495156   0.0800142457  -0.0724648738  -0.0108917400  -0.1192680089
       -0.1810499345  -0.0170510297   0.0080152089  -0.0831058963  -0.0892810673
        0.0000220061   0.0000206742  -0.0024878664  -0.0001856787   0.0004891215
       -0.0004455209  -0.0000466383   0.0006499540  -0.0006631252   0.0001911982
       -0.0003206124   0.0003925280  -0.0000425633  -0.0000243066  -0.0000261591
       -0.0000095521   0.0000063465   0.0000129304  -0.0000106324   0.0000064319
        0.0000076729  -0.0000116401   0.0000063404   0.0000053330  -0.0000155594
        0.0000027357   0.0000010864  -0.0000155268   0.0000023466  -0.0000018672
       -0.0000112089  -0.0000024339  -0.0000065809  -0.0000134717   0.0000078676
        0.0000326423   0.0000260370  -0.0000198487   0.0001728874  -0.0001209748
       -0.0001621962   0.0001254610  -0.0000033338  -0.0000240781   0.0000072856
        0.0000024349  -0.0000235734  -0.0000117848   0.0000013566  -0.0000023940
       -0.0000033308   0.0000039681  -0.0000050029   0.0000008004   0.0000049362
       -0.0000043716   0.0000040331   0.0000012756   0.0000048600   0.0000025354
       -0.0000075458   0.0000068171  -0.0000190183   0.0000903430  -0.0000203155
        0.0000763785  -0.0000050578   0.0000038825   0.0001043231   0.0000001531
        0.0000317409  -0.0000109382  -0.0000000874   0.0000101702  -0.0000044821
        0.0000019954   0.0000110182  -0.0000034931   0.0000013173   0.0000082249
       -0.0000007332  -0.0000140044   0.0000064434  -0.0000092341  -0.0000108764
        0.0000004817  -0.0000021603  -0.0000088556   0.0000203366  -0.0000204685
       -0.0001417209  -0.0000053232   0.0001328971  -0.0004832450   0.0000166857
        0.0000352810
       -0.0115527168   0.0429504874   0.4747063570  -0.0139898199   0.0511853897
       -0.1129952125  -0.0050847090   0.0170840311  -0.0287144382   0.0030784975
        0.0049239892   0.0006166847  -0.0004112639  -0.0002737224   0.0002671284
        0.0001042872   0.0000769695   0.0000193185  -0.0001844078   0.0000586379
        0.0000621826   0.0000965849  -0.0001410662  -0.0001816157  -0.0000854869
        0.0000056516   0.0000272167   0.0000076586  -0.0000054470  -0.0000084284
       -0.0000110659   0.0000008814   0.0000011594   0.0000276120  -0.0000173367
       -0.0000198673  -0.0000781391   0.0000093590  -0.0000109764   0.0000069492
        0.0000049990   0.0000263745  -0.0000101670  -0.0000062445  -0.0000114503
       -0.0000071365  -0.0000016821   0.0000093167   0.0000423419  -0.0000042742
        0.0000215685  -0.0000081026  -0.0000030814  -0.0000249574   0.0000455234
        0.0000477137   0.0000610476  -0.0001560965   0.0001925213   0.0000565008
        0.0003498447   0.0001841209  -0.0000239325  -0.0004284937  -0.0009248111
       -0.0006182559  -0.0001423804  -0.0001269758  -0.0002239542  -0.0000361305
        0.0001893198   0.0001257348  -0.0000022631  -0.0000004249   0.0000052849
       -0.0000055480   0.0000131293   0.0000130801  -0.0000211177   0.0000581803
       -0.0000132515   0.0000248028  -0.0000461237   0.0000381453  -0.0000151682
        0.0000147244  -0.0000386415   0.0000071324  -0.0000133120   0.0000102112
       -0.0000057792   0.0000012448  -0.0000140316  -0.0000000160   0.0000050726
        0.0000044057   0.0000009441  -0.0000136668  -0.0000057320   0.0000002138
        0.0000104141   0.0000099614  -0.0000504845  -0.0000331354  -0.0001867828
        0.0000172918   0.0000571439   0.0001263400   0.0000359428  -0.0000352039
        0.0000600486  -0.0000033955  -0.0000393118  -0.0000501739   0.0010870343
       -0.0004674146  -0.0005931040  -0.0004246441  -0.0000188104  -0.0000628296
        0.0000704271   0.0002257244   0.0000427260  -0.0001528496  -0.0000072064
        0.0000164707   0.0001999145   0.0000063838   0.0000642816  -0.0002013203
       -0.0000103496  -0.0001130774   0.0000402152   0.0000279092   0.0000205705
       -0.0000201098  -0.0000099998  -0.0000066376   0.0000096017   0.0000025244
        0.0000060180  -0.0000354585  -0.0000185592  -0.0000110107   0.0000489786
        0.0000824534  -0.0000166137   0.0000088848  -0.0000386985   0.0000453830
       -0.0000071828   0.0000286118  -0.0000169206   0.0000019616  -0.0000034326
        0.0000088545  -0.0000230280  -0.0000633316   0.0000198116  -0.0001251532
       -0.0001134342  -0.0001150933   0.0000516828   0.0000719279  -0.0000336205
        0.0006984483  -0.0000441148   0.0002590192  -0.0044419507   0.0018197306
        0.0018119014   0.0262311688  -0.0112855544  -0.0460488873  -0.0133798390
       -0.0173399990  -0.0446559994   0.0189624222  -0.0891197043  -0.2395200647
        0.0000933712  -0.0013759129  -0.0062069614  -0.0005472766   0.0009153863
        0.0009667589   0.0001784019   0.0009601433   0.0009079119   0.0000527764
        0.0003173138  -0.0001509796   0.0000281431  -0.0000082219  -0.0000117361
        0.0000016926   0.0000098063   0.0000240959   0.0000078707   0.0000018266
        0.0000083973   0.0000004635   0.0000023795   0.0000058951  -0.0000081439
        0.0000034371   0.0000057629  -0.0000080310   0.0000015356   0.0000014046
       -0.0000042674  -0.0000003430  -0.0000002954  -0.0000131036   0.0000033068
        0.0000104345  -0.0000337020  -0.0000178201   0.0000117524  -0.0000035523
       -0.0000874633   0.0000648523   0.0000000045  -0.0000310970  -0.0000000786
        0.0000016264  -0.0000083060   0.0000007669   0.0000001894   0.0000033057
        0.0000021474   0.0000000820   0.0000017272   0.0000017957  -0.0000005509
        0.0000000054  -0.0000013706   0.0000005464  -0.0000020051   0.0000001861
        0.0000046718  -0.0000027882   0.0000033266   0.0000601011  -0.0000891090
        0.0000508470   0.0000365710  -0.0000014620   0.0000102596  -0.0000096587
       -0.0000237998   0.0000005917   0.0000066822  -0.0000120294   0.0000114670
        0.0000063395  -0.0000052830   0.0000088323   0.0000064142   0.0000037462
        0.0000013183   0.0000270096   0.0000078757   0.0000123459   0.0000227234
        0.0000239102   0.0000022989   0.0000025755  -0.0000187345   0.0000273331
        0.0000647503   0.0001362697   0.0000689353  -0.0001296627   0.0001795825
       -0.0000658390
       -0.0658207994   0.0137779855  -0.0139898199   0.4949219066   0.0102341816
       -0.0060829736  -0.0622466551   0.0013387010   0.0053873641  -0.1209112208
       -0.0621376939  -0.0056291517  -0.0292393558  -0.0194324298  -0.0007036236
       -0.0032047772   0.0028485437   0.0012273400  -0.0011742769  -0.0008135165
       -0.0001607191   0.0000177788  -0.0000284627  -0.0000702242  -0.0000002064
       -0.0000052713  -0.0000521742   0.0000202629   0.0000019200   0.0000096621
        0.0000126723  -0.0000078500  -0.0000004516   0.0000034427  -0.0000052450
       -0.0000133387  -0.0000343179   0.0000157756  -0.0000047817  -0.0000797038
        0.0000297162  -0.0000463558  -0.0000045450   0.0000240760  -0.0000019262
        0.0000038841  -0.0000031147   0.0000005963   0.0000061574   0.0000137430
       -0.0000099293   0.0000279911  -0.0000137229  -0.0000244097  -0.0001879621
       -0.0000870518   0.0002078957   0.0000566674  -0.0004016816  -0.0000940113
       -0.0002613208   0.0018514051   0.0008743795   0.0075414405  -0.0027488007
       -0.0010999036  -0.0026179193  -0.0013694891  -0.0002374017  -0.0001499635
        0.0000229545  -0.0000177193  -0.0000409478  -0.0000599832  -0.0000018862
        0.0000058099  -0.0000270844  -0.0000111263   0.0000000436   0.0000268015
       -0.0000198619   0.0000086226  -0.0000271168   0.0000107149  -0.0000042471
        0.0000033458  -0.0000100788   0.0000001744  -0.0000040872   0.0000036609
       -0.0000018409   0.0000020653  -0.0000025169  -0.0000013842  -0.0000014542
       -0.0000013266  -0.0000020078  -0.0000025266  -0.0000038173   0.0000028743
       -0.0000056704   0.0000012542  -0.0000067136   0.0000078056  -0.0000404775
        0.0000114410   0.0000045148   0.0000236798   0.0000053499   0.0000021688
        0.0000116792  -0.0000378422  -0.0000557064   0.0000225978  -0.0063234769
        0.0119684876   0.0030061515   0.0011652245   0.0001477249   0.0004409351
       -0.0006077446   0.0002092030   0.0000617666  -0.0008473429  -0.0034675563
       -0.0001981806  -0.0007653241   0.0004048930   0.0001081418  -0.0002850651
       -0.0000182391   0.0000960670   0.0000573964   0.0000370020   0.0000069461
       -0.0000308819  -0.0000248500  -0.0000305801   0.0000152124   0.0000227289
       -0.0000012593  -0.0000047886  -0.0000262024  -0.0000097809  -0.0000231147
        0.0000286548  -0.0000714095   0.0000385458  -0.0000077627   0.0000255835
       -0.0000154198   0.0000079890  -0.0000114338   0.0000186349   0.0000174534
        0.0000061683  -0.0000078240  -0.0000256641   0.0000206961  -0.0000232776
        0.0000618578  -0.0000574836   0.0000341947  -0.0001097494   0.0000003086
       -0.0319965226   0.0008053649   0.0031687577  -0.1692782611   0.0399471941
        0.0175621316  -0.0081514053   0.0200471727  -0.0186852011   0.0024814792
       -0.0135149769   0.0127319942   0.0003064749  -0.0012776357   0.0007867076
        0.0002675133  -0.0017938052  -0.0047077078  -0.0042785792   0.0113319476
        0.0249366280  -0.0000520390  -0.0086128274  -0.0179751096   0.0007412617
       -0.0006931327  -0.0003876710  -0.0000511918   0.0000270976   0.0000682630
        0.0000097915   0.0000045791   0.0000005667   0.0000004504  -0.0000036616
        0.0000057460  -0.0000040077  -0.0000002048   0.0000014378  -0.0000115975
       -0.0000016806  -0.0000058860  -0.0000079702  -0.0000036041   0.0000039640
       -0.0000073232  -0.0000007183  -0.0000003477  -0.0000321176  -0.0000039581
        0.0000143206   0.0000717215   0.0000926499  -0.0001302993   0.0002341817
        0.0005460782  -0.0000184798   0.0000203852  -0.0000044748  -0.0000091376
        0.0000059007  -0.0000067084  -0.0000009107  -0.0000004795   0.0000000922
        0.0000001890  -0.0000003164   0.0000002468   0.0000004782  -0.0000007068
        0.0000006229   0.0000002331  -0.0000012213   0.0000013235   0.0000000295
        0.0000063220   0.0000345334   0.0000004325  -0.0000483421  -0.0001731930
       -0.0000895716   0.0001810466  -0.0000090858  -0.0001473681  -0.0000327747
       -0.0000293159   0.0000084648  -0.0000030963  -0.0000057665   0.0000064617
       -0.0000036641  -0.0000004190   0.0000097391  -0.0000002678  -0.0000000239
       -0.0000049981   0.0000081804   0.0000025230   0.0000050469   0.0000077984
        0.0000034023  -0.0000042393   0.0000112339   0.0000014740  -0.0000042360
       -0.0000234029  -0.0000827873   0.0000392823   0.0006180855   0.0011779627
       -0.0000231651
        0.0133356477  -0.1112853188   0.0511853897   0.0102341816   0.4579284654
        0.0049767707   0.0017060438  -0.0742396467  -0.0366119933  -0.0592943215
       -0.1283766746  -0.0083429771  -0.0049215265   0.0049233442   0.0011845529
        0.0013822139   0.0002076728  -0.0014745004   0.0010955561   0.0000692402
        0.0000416164  -0.0000494311   0.0002967118   0.0002368817   0.0000066692
       -0.0000702295  -0.0000695778  -0.0000635537   0.0000240373   0.0000528796
        0.0000379774  -0.0000004248   0.0000061340  -0.0000257328  -0.0000051480
       -0.0000001063   0.0001506867  -0.0000008345   0.0000785283   0.0001261400
       -0.0000734935  -0.0000820288  -0.0000168420   0.0000125198   0.0000096860
        0.0000470217  -0.0000122443  -0.0000175116  -0.0000938274   0.0000116390
       -0.0000284148   0.0000959056   0.0000145166   0.0000538018  -0.0001820664
       -0.0001356805  -0.0002593558  -0.0011418496  -0.0001567274   0.0000082172
        0.0029874811  -0.0031025942  -0.0019729113  -0.0163808731  -0.0259287411
       -0.0034701478  -0.0014769493   0.0029626342   0.0013151610   0.0000227867
       -0.0002282361  -0.0000318762  -0.0000496051   0.0001766807   0.0000700313
       -0.0000070257   0.0000534988   0.0000240816   0.0000190376  -0.0000795669
       -0.0000207779  -0.0000259272   0.0001014837   0.0000040231   0.0000058000
       -0.0000052586   0.0000116577  -0.0000061105   0.0000120570  -0.0000134941
        0.0000050309  -0.0000077286   0.0000038662   0.0000033204  -0.0000002889
        0.0000053267   0.0000035188   0.0000103613   0.0000125345  -0.0000080616
        0.0000240613  -0.0000053721   0.0000334990  -0.0000089887   0.0000837053
       -0.0000153545   0.0000000328  -0.0000395937  -0.0000249667   0.0000635354
       -0.0000204160  -0.0000844428   0.0001968187  -0.0000318250   0.0257272146
       -0.0110909465  -0.0049373497  -0.0011072481  -0.0045311522  -0.0018938735
        0.0009294526   0.0004360520   0.0000163224  -0.0020472582  -0.0021034252
       -0.0014677503  -0.0016490564  -0.0002539833  -0.0000939165   0.0001542333
       -0.0001702948   0.0002774803  -0.0000752395  -0.0000029313  -0.0000418024
        0.0000847696   0.0000319066   0.0000340253  -0.0000203486  -0.0000384812
        0.0000100980   0.0000253939   0.0000105676  -0.0000059876  -0.0000909464
       -0.0001562976   0.0000112749  -0.0001264370  -0.0000324556  -0.0000776170
        0.0000361030   0.0000005074   0.0000049963  -0.0000065796  -0.0000036012
       -0.0000007644   0.0000675823   0.0000660355  -0.0000146091   0.0000400620
       -0.0000741083   0.0000093821  -0.0000770591   0.0003566793  -0.0001136540
       -0.0137520544   0.0075361092   0.0030830817   0.0373894462  -0.0780603441
       -0.0078132412   0.0052599550  -0.0100034689   0.0079398352   0.0016842683
       -0.0201101972   0.0161374466  -0.0016751826   0.0065039677  -0.0051369750
       -0.0011230995   0.0070277113   0.0173455404   0.0029205992  -0.0057114658
       -0.0110945571  -0.0010117181  -0.0114012193  -0.0205793886   0.0009505800
       -0.0003131382   0.0004457046  -0.0000262314   0.0000514788   0.0000121803
        0.0000050363   0.0000012201  -0.0000105319   0.0000185104  -0.0000019586
       -0.0000100164   0.0000300662   0.0000037035   0.0000051784   0.0000256926
        0.0000007473  -0.0000046856   0.0000129047   0.0000133320   0.0000141342
        0.0000031229   0.0000178267   0.0000193031  -0.0000283377   0.0000061724
        0.0000222791   0.0002022014   0.0001180200   0.0002676491  -0.0007534853
       -0.0007887247   0.0000864656   0.0000131655  -0.0000391797   0.0000092464
        0.0000023152   0.0000241015   0.0000012444   0.0000011006   0.0000034075
        0.0000026655   0.0000002472   0.0000034614   0.0000005916   0.0000003327
        0.0000026286  -0.0000010492   0.0000026225  -0.0000007491  -0.0000003038
        0.0000302139  -0.0000410571  -0.0000003321   0.0011375599  -0.0004605451
       -0.0001536703  -0.0001184771  -0.0000274689   0.0002620909   0.0000213399
        0.0000192345  -0.0000023354  -0.0000045000   0.0000149554  -0.0000124083
       -0.0000097073   0.0000038732  -0.0000091294  -0.0000175243  -0.0000125541
       -0.0000011457  -0.0000203254  -0.0000089023  -0.0000072085  -0.0000064345
       -0.0000126064   0.0000099774   0.0000034779  -0.0000017329   0.0000041987
       -0.0000285487   0.0000078567   0.0000403145  -0.0004338214  -0.0001800516
        0.0005396300
       -0.0157071979   0.0582283512  -0.1129952125  -0.0060829736   0.0049767707
        0.4255320188   0.0070005694  -0.0437020135  -0.1537574105  -0.0056955318
       -0.0085681284  -0.0552558256   0.0018550277   0.0025916852  -0.0002382407
        0.0010285216  -0.0011497955   0.0065633994   0.0005774650   0.0001433695
        0.0001140080  -0.0000194530   0.0000839912   0.0000610221  -0.0000053083
       -0.0000386022  -0.0000030188  -0.0000413101   0.0000141942  -0.0000157067
       -0.0000193820   0.0000005788  -0.0000076777  -0.0000008828  -0.0000126440
       -0.0000248596   0.0000084731   0.0000239344   0.0000208978   0.0000420132
       -0.0000222133  -0.0000230174  -0.0000170741   0.0000090928   0.0000022536
        0.0000104809  -0.0000114578  -0.0000096800  -0.0000130339   0.0000120881
       -0.0000169508   0.0000301874   0.0000038549  -0.0000235709  -0.0000188303
       -0.0000662743  -0.0000733018  -0.0000995803  -0.0001407239   0.0000520526
        0.0012974192  -0.0016702705   0.0057847142  -0.0038859092  -0.0043039459
        0.0013931712   0.0002559406   0.0013912655  -0.0030642064   0.0000116200
       -0.0000696202   0.0001679885   0.0000357596   0.0000005005   0.0000377396
       -0.0000021854   0.0000404296  -0.0000332037   0.0000008938  -0.0000207692
        0.0000101006   0.0000032248   0.0000174956   0.0000334118  -0.0000041734
       -0.0000011961  -0.0000101576  -0.0000000995   0.0000025151  -0.0000029901
       -0.0000010788  -0.0000010811  -0.0000043140   0.0000013473  -0.0000013121
       -0.0000018538   0.0000017996  -0.0000024575   0.0000014183  -0.0000068758
        0.0000034123  -0.0000010910   0.0000012836   0.0000086460  -0.0000012659
        0.0000064804  -0.0000108147   0.0000080240   0.0000100767   0.0000095476
       -0.0000452227   0.0000199009   0.0000799709   0.0000246521   0.0054248974
       -0.0040623979   0.0004978930   0.0004843367  -0.0021174531   0.0057685279
        0.0002722097   0.0001975170   0.0000981631   0.0003505412  -0.0017009829
        0.0065459601   0.0000409301  -0.0000466846   0.0000579426   0.0000283296
        0.0000132947   0.0000531509  -0.0000081784   0.0000149826  -0.0000382170
        0.0000268142   0.0000069021  -0.0000074756  -0.0000078505   0.0000022697
       -0.0000026956  -0.0000049800  -0.0000096079  -0.0000026070  -0.0000087689
       -0.0000151774  -0.0000003667  -0.0000334945  -0.0000383953  -0.0000225650
        0.0000022216   0.0000219178  -0.0000169124  -0.0000274142  -0.0000106778
       -0.0000108511  -0.0000113831   0.0000030052  -0.0000317337  -0.0000074441
        0.0000002174   0.0000201039  -0.0000140259   0.0000436893  -0.0000220983
        0.0004010579   0.0016531165  -0.0001675618   0.0163457426  -0.0079068870
       -0.0570940351  -0.0011639998   0.0002849901   0.0008275568   0.0008174380
        0.0016085501   0.0000156548  -0.0051156919   0.0185535324  -0.0235057353
        0.0007209973  -0.0063949901  -0.0240152301   0.0031551033  -0.0045100369
       -0.0075540358  -0.0013113790  -0.0048791615  -0.0059729243  -0.0001879765
        0.0005034745  -0.0028245476   0.0000613677   0.0000178047  -0.0000304307
        0.0000157613   0.0000053218   0.0000172425   0.0000148245  -0.0000054627
        0.0000046966   0.0000151131   0.0000022919   0.0000116064   0.0000076805
        0.0000001619   0.0000036621  -0.0000003882   0.0000002651   0.0000082831
       -0.0000014614   0.0000035007   0.0000063381  -0.0000313083  -0.0000093654
        0.0000039332  -0.0001150809   0.0002366175  -0.0013940195  -0.0002260303
       -0.0001063430  -0.0005712381  -0.0000113850  -0.0000402309  -0.0000496382
        0.0000037112  -0.0000016120  -0.0000051039   0.0000003429   0.0000005351
        0.0000008127  -0.0000001221   0.0000021552   0.0000013409  -0.0000009625
        0.0000024313  -0.0000015514  -0.0000020671   0.0000016358  -0.0000042733
       -0.0000257173   0.0000338628  -0.0000365465   0.0001467133   0.0000433910
       -0.0005963712  -0.0002054685   0.0002944454  -0.0013778225  -0.0000230078
        0.0000020477   0.0000001275  -0.0000032448   0.0000002012  -0.0000006039
       -0.0000045850  -0.0000011381   0.0000040191  -0.0000006357  -0.0000027129
        0.0000038613   0.0000048882  -0.0000044510   0.0000084040   0.0000059064
        0.0000035808   0.0000120500   0.0000189514  -0.0000061457   0.0000185244
        0.0000578762   0.0000363679  -0.0000206500  -0.0004473094   0.0004274629
       -0.0028101074
        0.0011709990  -0.0010873394  -0.0050847090  -0.0622466551   0.0017060438
        0.0070005694   0.5272784478   0.0028684604   0.0044114770   0.0001011596
       -0.0110181169  -0.0161823233  -0.0013384236  -0.0004832389  -0.0005579856
        0.0007870215  -0.0000206539   0.0003478564  -0.0000841952   0.0000420914
       -0.0000265412  -0.0000069171  -0.0000641984  -0.0000452201   0.0002405705
        0.0001088868  -0.0000180875   0.0000529463  -0.0000277112  -0.0000615081
        0.0000062440   0.0000062655   0.0000258759   0.0000013546   0.0000126545
        0.0000158459  -0.0000134118  -0.0000232916  -0.0000280172  -0.0000565414
        0.0000313191   0.0000288206   0.0000348301  -0.0000005575   0.0000049111
       -0.0000161614   0.0000104796   0.0000145930   0.0000344363   0.0000038350
        0.0000185518  -0.0000332956   0.0000016730  -0.0000314913   0.0001971289
        0.0000057250   0.0001391821  -0.0002662820  -0.0001239654  -0.0000723279
        0.0005385546  -0.0004230155   0.0007687622  -0.0039329715  -0.0002544121
       -0.0001285854   0.0028574082   0.0005891699  -0.0001842335   0.0000316023
        0.0000117855  -0.0000189856   0.0000075198  -0.0000148136  -0.0000402424
       -0.0000063864   0.0000258085   0.0000017301  -0.0000000185  -0.0000245758
        0.0000063655   0.0000001963   0.0000155053   0.0000094276  -0.0000038697
       -0.0000004154  -0.0000073633   0.0000010077  -0.0000021945  -0.0000002687
       -0.0000000666  -0.0000008620  -0.0000037055   0.0000004778   0.0000022178
        0.0000016554   0.0000036272  -0.0000034792   0.0000041110  -0.0000026360
        0.0000152538   0.0000008886  -0.0000155203  -0.0000363724  -0.0000245857
        0.0000222588   0.0000314378   0.0000206360   0.0000065924  -0.0000120913
        0.0000045279   0.0000130094  -0.0000130254  -0.0000122539  -0.0044994322
       -0.0015051882   0.0008473993   0.0000471836   0.0008906187  -0.0010284084
       -0.0002921118  -0.0000631351   0.0000109055   0.0005610692   0.0006495080
       -0.0006329544  -0.0000953496  -0.0001581755  -0.0001282606   0.0001662754
       -0.0000259273   0.0001345708  -0.0000121490   0.0000160082  -0.0000503992
        0.0000587943   0.0000116857   0.0000320523  -0.0000062120  -0.0000218169
        0.0000060968   0.0000064310   0.0000068692  -0.0000052394  -0.0000226929
       -0.0000369759   0.0000110805  -0.0000539092  -0.0000106552  -0.0000160973
        0.0000108404   0.0000016736  -0.0000013737  -0.0000203247  -0.0000158948
       -0.0000062434   0.0000128432   0.0000469762  -0.0000198303   0.0000550330
       -0.0000557268   0.0000204831   0.0000082615   0.0002553445  -0.0001087983
       -0.0009985816  -0.0000429611   0.0010388306  -0.0073789821   0.0138192720
        0.0235936533   0.0003329507  -0.0003924929  -0.0005915166   0.0001786128
        0.0000669261   0.0004465150   0.0003287776   0.0007271277  -0.0010787219
       -0.0526465845   0.0308937364  -0.0294189318  -0.2459218952   0.0833340252