$hessian                                                                        
        0.4933793809   0.0379556338  -0.0173939412  -0.0935153927   0.0525269759
       -0.0241457656   0.0059357067  -0.0090292338   0.0041398624  -0.0168524055
        0.0088492413  -0.0153109186  -0.0008233381   0.0013851139   0.0011092911
       -0.0006810044  -0.0007233824  -0.0000972221   0.0001701066  -0.0001122365
       -0.0000691266  -0.0006389472  -0.0007049743   0.0001738094   0.0001773789
       -0.0004466386  -0.0024702387  -0.0004766134   0.0000471124  -0.0000723130
        0.0003594201   0.0000131411   0.0000020994  -0.0000694517   0.0000732616
        0.0000401642   0.0000377629   0.0000791498   0.0000195784  -0.0000969184
       -0.0000088749   0.0000004682   0.0001725245   0.0000049590  -0.0000059288
       -0.0001161635  -0.0001197713  -0.0000368871   0.0001343858  -0.0001348788
       -0.0000236069  -0.0003081723  -0.0000154141  -0.0000113275   0.0002681678
        0.0000778409   0.0000123726  -0.0001911236  -0.0001339792  -0.0000305674
        0.0001534176  -0.0001780350   0.0000090030   0.0000084060  -0.0000035099
        0.0000022119   0.0000201596   0.0000197230  -0.0000026428  -0.0000275481
       -0.0000180846   0.0000036044   0.0000238389  -0.0000367704   0.0000015251
        0.0000052535   0.0000466678  -0.0000037373  -0.0000099206  -0.0000301540
        0.0000050633  -0.0000499777   0.0000069106  -0.0000002891   0.0000297243
       -0.0000461176   0.0000073997  -0.0000095358   0.0000201247  -0.0000017727
        0.0000195047   0.0000140180  -0.0000037345  -0.0000049431   0.0000307194
       -0.0000053404   0.0000848268  -0.0000257362   0.0000034610   0.0000102696
        0.0002118027  -0.0000086276  -0.0001495098   0.0000714355   0.0000088499
        0.0000166561   0.0000570082   0.0000000822  -0.0000381246  -0.0000567493
        0.0000483433  -0.0000155970   0.0000811835   0.0000482314  -0.0000307121
       -0.0001398504   0.0000015831   0.0000375774   0.0001544458  -0.0000054773
       -0.0000290192  -0.0000985894   0.0000039793   0.0000495364   0.0000497935
       -0.0000536535   0.0000131763  -0.0000665255  -0.0000400416   0.0001305704
        0.0001396971   0.0000443376  -0.0001264205   0.0001184354   0.0000338332
        0.0000474955  -0.0000811744  -0.0000192080  -0.0000136416  -0.0000561449
       -0.0000601669   0.0006036275   0.0016763352   0.0019566296  -0.0005260787
       -0.0006239615   0.0004321926   0.0001050421  -0.0000448102   0.0000415320
       -0.0005841858  -0.0004977100   0.0005487415  -0.0007744538   0.0001591793
       -0.0017427372  -0.0172445795   0.0174410866   0.0035663576  -0.1252133878
       -0.0496852546  -0.1046679297  -0.1202425581  -0.1020171833   0.0472638333
       -0.1234950960   0.0468794383   0.1053505007  -0.0007689347  -0.0029624150
        0.0013468736   0.0006983049  -0.0003165631   0.0003435525   0.0007097191
       -0.0004627610   0.0000198649  -0.0000121876   0.0003293276   0.0002484556
        0.0000071091   0.0000442086  -0.0000099799   0.0000198043   0.0001084309
       -0.0000514484  -0.0000819853  -0.0000250150  -0.0001684647   0.0000009118
       -0.0000405967   0.0000029249  -0.0000095638  -0.0000063198  -0.0000119142
       -0.0000077511   0.0000133754   0.0000011621   0.0000010625   0.0000052402
        0.0000004315  -0.0000013723  -0.0000021164   0.0000004294  -0.0000012453
        0.0000008370  -0.0000013788   0.0000009362   0.0000007781  -0.0000003871
        0.0000011526   0.0000002995  -0.0000012272  -0.0000005213   0.0000006822
        0.0000004292   0.0000000486  -0.0000011365   0.0000004577   0.0000010090
       -0.0000030119   0.0000006625  -0.0000021185  -0.0000008218   0.0000022143
        0.0000026835  -0.0000011967  -0.0000077731   0.0000033308   0.0000011629
       -0.0000008211  -0.0000032940   0.0000024112   0.0000048676  -0.0000041621
        0.0000002367   0.0000069045   0.0000032388  -0.0000123155  -0.0000001174
       -0.0000049699  -0.0000154676  -0.0000031569  -0.0000160192   0.0000033244
        0.0000199105  -0.0000347463   0.0000197703  -0.0000110066  -0.0001135952
        0.0000326646   0.0001117057   0.0000061880   0.0001243494  -0.0000422259
        0.0000055303   0.0000454977  -0.0000342347  -0.0000376591   0.0000624504
       -0.0003624498
        0.0379556338   0.4701344943   0.0267580007   0.0444297186  -0.1174372616
        0.0256876571   0.0108012311  -0.0247478244   0.0119366081  -0.0005098145
        0.0062204409   0.0021519904  -0.0000683324  -0.0004011646  -0.0017628737
        0.0007179488   0.0001275906   0.0006609077  -0.0004190184   0.0001089448
        0.0000582662  -0.0002065793  -0.0001938394   0.0000799363  -0.0014230143
       -0.0010076969  -0.0009672977   0.0005660276   0.0001475315   0.0006690056
       -0.0002044395   0.0001974875  -0.0000596488   0.0000284253  -0.0001273067
       -0.0000294554  -0.0000486383  -0.0000924963  -0.0000183096   0.0001487239
        0.0000022440  -0.0000075172  -0.0002700608   0.0000031222   0.0000080422
        0.0001892123   0.0001935426   0.0000616072  -0.0002074981   0.0002289880
        0.0000368123   0.0005016150   0.0000256292   0.0000108916  -0.0005126425
       -0.0000988524  -0.0000264491   0.0003706795   0.0002131783   0.0000624737
       -0.0003138817   0.0004006923  -0.0000186772   0.0000140670   0.0000108599
       -0.0000016290  -0.0000637740  -0.0000217225   0.0000055000   0.0000616700
        0.0000481973  -0.0000079933  -0.0000430122   0.0000907679  -0.0000051546
        0.0000036554  -0.0001220367   0.0000111285   0.0000189851   0.0000823669
       -0.0000146112   0.0000948520  -0.0000330572   0.0000043180  -0.0000500691
        0.0001179920  -0.0000186735   0.0000204689  -0.0000690118   0.0000084785
       -0.0000098970  -0.0000409966   0.0000108319  -0.0000117763  -0.0000833615
        0.0000123731  -0.0001116282   0.0000489688  -0.0000014473   0.0000070211
       -0.0004246375   0.0000085294   0.0002592040  -0.0001350115  -0.0000065464
       -0.0000249184  -0.0001062798   0.0000020961   0.0000348842   0.0001048820
       -0.0000416494   0.0000023001  -0.0001283104  -0.0000411720   0.0000586062
        0.0002438992  -0.0000061355  -0.0000964284  -0.0003580161   0.0000143534
        0.0000659026   0.0002295524  -0.0000121684  -0.0000563439  -0.0000896846
        0.0000496746   0.0000110224   0.0000983860   0.0000267700  -0.0002115691
       -0.0002390826  -0.0000651395   0.0002033789  -0.0002060511  -0.0000570126
        0.0000043809   0.0001127713   0.0000306114   0.0001191787   0.0000358017
        0.0000383149  -0.0011030721  -0.0016474545  -0.0009277760   0.0003187102
        0.0003808881  -0.0004005715   0.0000537582   0.0000505997  -0.0000830540
        0.0003506412   0.0003798554  -0.0000493002   0.0001818285   0.0001750298
        0.0004115182   0.0135909123  -0.0111966845  -0.0028202023  -0.0499512827
       -0.0703308646  -0.0615623203  -0.1018393424  -0.1768022086   0.0611639386
        0.0464895237  -0.0705759549  -0.0619543056  -0.0020805372  -0.0043887023
        0.0022391728   0.0010942601   0.0007481411   0.0000609449   0.0007524602
        0.0008718352  -0.0006095478  -0.0001902660   0.0000767913  -0.0004113451
       -0.0000021225  -0.0000225580  -0.0000030159  -0.0000387441   0.0000359768
       -0.0000300664  -0.0000633596  -0.0000653848  -0.0000866894  -0.0000079416
        0.0000489901  -0.0000128607  -0.0000138445   0.0000126275   0.0000161624
        0.0000089544  -0.0000197188  -0.0000043467  -0.0000127058  -0.0000036087
        0.0000037929   0.0000037948   0.0000025064  -0.0000006660   0.0000013921
       -0.0000142846   0.0000016288  -0.0000102330  -0.0000056779   0.0000023067
       -0.0000104315   0.0000068813  -0.0000004060  -0.0000086602  -0.0000060806
        0.0000051102  -0.0000097565   0.0000030400  -0.0000017557  -0.0000005956
        0.0000146661  -0.0000032845   0.0000073867  -0.0000003562  -0.0000049857
       -0.0000006693  -0.0000099288   0.0000036677   0.0000052116   0.0000028849
       -0.0000113154  -0.0000039267   0.0000076669   0.0000051046  -0.0000047384
       -0.0000085936  -0.0000018888  -0.0000166760   0.0000179942  -0.0000060157
        0.0000061023   0.0000326407   0.0000045757  -0.0000037246   0.0000056810
       -0.0000092344  -0.0000269211  -0.0000069610  -0.0000182427   0.0000336211
       -0.0000141197  -0.0000850263   0.0000389700  -0.0000720193   0.0000351312
        0.0000111635  -0.0000554591   0.0000442315   0.0006254031  -0.0006927055
       -0.0001346804
       -0.0173939412   0.0267580007   0.5168539577  -0.0204426524   0.0255680669
       -0.0730427474  -0.0049491869   0.0119132205  -0.0041325051  -0.0180002833
        0.0124108228  -0.0115854619  -0.0002215414  -0.0001361855  -0.0009447985
        0.0000770691  -0.0002825203   0.0008517836  -0.0004338686  -0.0000519351
       -0.0000267133  -0.0006428934  -0.0008908436   0.0000974650   0.0000073695
       -0.0004202616  -0.0032059609   0.0000534103   0.0006634623   0.0012254666
       -0.0000986161  -0.0001223414   0.0000747773   0.0001017448  -0.0000421199
        0.0000209087  -0.0000948217  -0.0000424580   0.0000117321   0.0001019622
        0.0000104564  -0.0000023210  -0.0000224504  -0.0000030484  -0.0000022097
       -0.0000294133  -0.0000346958  -0.0000199090   0.0000563833  -0.0000873847
       -0.0000128702  -0.0001933285  -0.0000153016  -0.0000001753   0.0002739296
        0.0000293361   0.0000096669  -0.0002359400  -0.0001044753  -0.0000362947
        0.0002166494  -0.0002819383   0.0000137345  -0.0000175327  -0.0000054589
        0.0000076312   0.0000454954   0.0000110911  -0.0000090900  -0.0000533137
       -0.0000298029   0.0000025479   0.0000380175  -0.0000713142   0.0000007007
       -0.0000000884   0.0000900744  -0.0000037449  -0.0000107657  -0.0000650797
        0.0000053910  -0.0000750696   0.0000271980  -0.0000019833   0.0000393059
       -0.0000834230   0.0000129451  -0.0000141025   0.0000549410  -0.0000090310
        0.0000007620   0.0000229679  -0.0000025303   0.0000024872   0.0000679421
       -0.0000136907   0.0000788334  -0.0000385259   0.0000036804  -0.0000363244
        0.0002813344  -0.0000030429  -0.0001390018   0.0001055860   0.0000004558
       -0.0000096546  -0.0000036482  -0.0000012382   0.0000311638  -0.0000154811
       -0.0000206078   0.0000134103   0.0000044149  -0.0000166169  -0.0000012841
       -0.0000223546  -0.0000023971   0.0000160276   0.0000720360  -0.0000054224
       -0.0000133976  -0.0000418983   0.0000033663  -0.0000122538   0.0000042182
        0.0000203421  -0.0000250161   0.0000082194   0.0000235821   0.0000588885
        0.0000956083   0.0000179309  -0.0000379045   0.0000341863   0.0000213783
       -0.0000899801   0.0000352203  -0.0000121351   0.0000522675   0.0000525694
        0.0000356490   0.0005862118  -0.0014492960  -0.0027981168   0.0004387328
        0.0006199683  -0.0004667579   0.0006439351   0.0000460439   0.0001215933
       -0.0006759883   0.0007785160   0.0007551941   0.0003196962  -0.0013514097
       -0.0016541825   0.0125600027  -0.0129482924   0.0055821290  -0.1043691206
       -0.0613795779  -0.1759882030   0.0471671998   0.0611886705  -0.0727742771
        0.1053817044  -0.0621695140  -0.1772358865   0.0009388488   0.0022558718
       -0.0004922255  -0.0000422194  -0.0006920905   0.0003870774  -0.0007920425
        0.0001409835   0.0002966593  -0.0010038391   0.0005801399  -0.0011830213
       -0.0000149034   0.0000668380  -0.0000140868  -0.0000704529   0.0001393858
       -0.0000622253  -0.0001146591  -0.0000783875  -0.0001621697  -0.0000057454
       -0.0000064022  -0.0000082245   0.0000044409   0.0000022834  -0.0000099928
       -0.0000006604   0.0000084407   0.0000009175   0.0000039743  -0.0000030989
       -0.0000032817  -0.0000022761   0.0000003144   0.0000002298  -0.0000011400
        0.0000098466  -0.0000008367   0.0000049076   0.0000041981  -0.0000021359
        0.0000060237  -0.0000043865  -0.0000000976   0.0000069983   0.0000040305
       -0.0000051472   0.0000065037  -0.0000010533  -0.0000000715   0.0000002615
       -0.0000089839   0.0000002680  -0.0000038837  -0.0000015260   0.0000005794
       -0.0000019135   0.0000110211   0.0000028973  -0.0000046955  -0.0000080412
        0.0000088105   0.0000032183  -0.0000062809  -0.0000066726   0.0000059862
        0.0000084697  -0.0000025635   0.0000046487  -0.0000012423   0.0000035002
       -0.0000056664  -0.0000074774  -0.0000026004   0.0000019985  -0.0000074264
       -0.0000009502   0.0000218151   0.0000176432  -0.0000148053   0.0001613009
        0.0000130381  -0.0001478179   0.0000860582  -0.0001048429   0.0000293134
        0.0000053993  -0.0000159252   0.0000155951   0.0007787891  -0.0010789254
       -0.0003700099
       -0.0935153927   0.0444297186  -0.0204426524   0.4508879125   0.0012193776
       -0.0004953691  -0.0880489583  -0.0425791050   0.0195206478  -0.1009782874
       -0.0228840196  -0.0480532595   0.0091588034   0.0003284604   0.0009614883
        0.0008326288   0.0014587179   0.0040310783  -0.0012746113  -0.0000263793
       -0.0001557674  -0.0045183195   0.0002357434   0.0011462900  -0.0225717405
       -0.0089661141  -0.0197850724   0.0054508279   0.0002635380   0.0000125685
       -0.0008941578  -0.0000011972   0.0000008259   0.0003359404  -0.0000973504
       -0.0001648372   0.0000485560  -0.0001848220  -0.0000785573   0.0003058870
        0.0000149228  -0.0000098109  -0.0007133820  -0.0000252799   0.0000272733
        0.0005452878   0.0005110460   0.0001720282  -0.0006632225   0.0007126211
        0.0001205733   0.0015755015   0.0000718328   0.0000303965  -0.0017644371
       -0.0002582154  -0.0000797346   0.0012190214   0.0008145037   0.0002407774
       -0.0010667254   0.0013732022  -0.0000693258   0.0001071343   0.0000939587
       -0.0000077404  -0.0001976295  -0.0000803433   0.0000200421   0.0002546798
        0.0001334821  -0.0000263674  -0.0001942433   0.0002948613  -0.0000011726
       -0.0000164716  -0.0004071697   0.0000314174   0.0000578560   0.0003014264
       -0.0000495453   0.0003724969  -0.0000925778   0.0000154637  -0.0001936837
        0.0003828195  -0.0000564815   0.0000596030  -0.0002435655   0.0000284765
       -0.0000347621  -0.0001196477   0.0000234832   0.0000055033  -0.0003453066
        0.0000508920  -0.0003928132   0.0001289587   0.0000053319   0.0001404671
       -0.0013953393   0.0000083421   0.0008103181  -0.0005979498   0.0000019703
       -0.0000305542  -0.0002555406   0.0000072068   0.0000677676   0.0002632192
       -0.0000936017   0.0000408803  -0.0003716355  -0.0001781490   0.0001743063
        0.0006213408  -0.0000323197  -0.0002786828  -0.0008868619   0.0000608445
        0.0001838778   0.0006069715  -0.0000508289  -0.0001810740  -0.0002450116
        0.0001731502   0.0000512363   0.0002226670   0.0000451762  -0.0006527797
       -0.0007620084  -0.0002168257   0.0005914427  -0.0005136984  -0.0001411169
        0.0000407975   0.0001828645   0.0000725679   0.0003393634   0.0001120390
        0.0001484397  -0.0224960843   0.0075975058   0.0203159090  -0.0044856198
       -0.0008073803  -0.0009068574  -0.0012824903  -0.0000304187   0.0001587561
        0.0008553742  -0.0018034719  -0.0038922424   0.0091188016   0.0001814359
       -0.0011143143  -0.1012275675   0.0205129640   0.0492103037  -0.0133981963
        0.0124944940  -0.0087488706   0.0081029858  -0.0092090125   0.0042125680
       -0.0131382813   0.0146943004  -0.0036697716   0.0081965593   0.0107881992
       -0.0049130451  -0.0121098022  -0.0150717173   0.0039037478  -0.0122575031
       -0.0129926013   0.0088495372  -0.0002409174   0.0003218099   0.0005413344
        0.0002354681   0.0004252168   0.0009059501   0.0000954456   0.0001526799
        0.0001860862  -0.0006360651  -0.0003749272  -0.0009026663  -0.0000879722
        0.0000892344   0.0000126230  -0.0000171329  -0.0000395976   0.0000454914
        0.0000359645  -0.0000606293  -0.0000068942  -0.0000212337   0.0000418121
        0.0000299238  -0.0000329749  -0.0000011196   0.0000017090   0.0000000951
       -0.0000511508  -0.0000434474  -0.0000056967  -0.0000098553   0.0000057057
       -0.0000270685   0.0001251874  -0.0000938713  -0.0000443438  -0.0000183448
        0.0001107169  -0.0000192075  -0.0000175283  -0.0000038807   0.0000927436
        0.0000407401  -0.0000108361  -0.0000208279  -0.0000263882  -0.0000003435
       -0.0000007606  -0.0000477874   0.0000141267   0.0000208708   0.0000030801
       -0.0000220160  -0.0000136305   0.0000116769   0.0000113735  -0.0000190745
       -0.0000349349  -0.0000130799  -0.0000324377   0.0000009785  -0.0000364587
        0.0000278105   0.0000605278   0.0000006914  -0.0000098058   0.0000362715
       -0.0000468187  -0.0000781847  -0.0000988622  -0.0000145507  -0.0006393675
        0.0003324163   0.0009089121   0.0000922761  -0.0000674137  -0.0002278011
        0.0002358432  -0.0004069810  -0.0009144849  -0.0002441603  -0.0001795626
       -0.0006114310
        0.0525269759  -0.1174372616   0.0255680669   0.0012193776   0.4276650951
        0.0311581355  -0.0505975756  -0.1221905096   0.0275434724  -0.0262241209
       -0.0704516521  -0.0378144337  -0.0040806076  -0.0057106652  -0.0120088195
        0.0015755262   0.0053228270  -0.0031089751  -0.0003642525  -0.0003085345
        0.0002312800   0.0005742320   0.0049579695  -0.0017461380  -0.0033087933
        0.0026359141  -0.0011705717   0.0002308985  -0.0032523881   0.0003096893
       -0.0000108571  -0.0006812531   0.0001819254   0.0002261970   0.0000539263
        0.0000699795   0.0000293277  -0.0001062577  -0.0000109447   0.0000830017
       -0.0000758483   0.0000003168  -0.0001061513  -0.0000098806   0.0000199492
        0.0000680942   0.0000551363   0.0000251098  -0.0000661223   0.0000627292
        0.0000112808   0.0001366039  -0.0000086198   0.0000078144  -0.0000923161
       -0.0000284544  -0.0000084436   0.0000352049   0.0000588611   0.0000058955
       -0.0000096555   0.0000235545  -0.0000004965  -0.0000101346  -0.0000030444
        0.0000031019  -0.0000005882  -0.0000031199  -0.0000002412   0.0000012390
        0.0000041608  -0.0000010689  -0.0000008277   0.0000007195  -0.0000000175
       -0.0000003938  -0.0000057876   0.0000002928   0.0000072255  -0.0000029889
        0.0000000415   0.0000101192   0.0000091584  -0.0000016922  -0.0000025720
        0.0000050991  -0.0000017131   0.0000039216   0.0000021998  -0.0000008383
       -0.0000125444  -0.0000067270   0.0000010849   0.0000050497  -0.0000075313
        0.0000023636  -0.0000291762   0.0000043384   0.0000003513   0.0000024545
       -0.0000350549   0.0000035658   0.0000433265  -0.0000150629  -0.0000002654
       -0.0000289354  -0.0000878412   0.0000018916   0.0000620166   0.0000636881
       -0.0000549228   0.0000245157  -0.0001086243  -0.0000664035   0.0000458177
        0.0001706743  -0.0000090188  -0.0000472700  -0.0001847585   0.0000086848
        0.0000312196   0.0001257090  -0.0000060910  -0.0000714139  -0.0000718901
        0.0000773210  -0.0000204033   0.0000876054   0.0000467067  -0.0000661287
       -0.0000606596  -0.0000237856   0.0000678728  -0.0000712796  -0.0000084449
       -0.0000932254  -0.0000167894  -0.0000030520  -0.0001629817   0.0000925141
        0.0000713687   0.0018792828   0.0032613125  -0.0001371788  -0.0011695964
        0.0048675176  -0.0017813939   0.0003264184  -0.0002911144   0.0002150041
       -0.0019225045   0.0051104955  -0.0032932652   0.0046614064  -0.0055915044
       -0.0122829728   0.0237813962  -0.0681502976  -0.0358923042  -0.0029180378
        0.0051594419  -0.0016957157   0.0124855237  -0.0202823331   0.0092927783
        0.0095802106  -0.0104093752   0.0023476073  -0.0109339028  -0.0204068256
        0.0093148504  -0.0095907350  -0.0115750520   0.0027153187   0.0020267096
        0.0046714567  -0.0013216891  -0.0003714434  -0.0022968051   0.0013095278
       -0.0002218456  -0.0000635774  -0.0003566341   0.0000081557  -0.0011819160
        0.0005658114   0.0000193284   0.0001171956   0.0001218152   0.0000466365
       -0.0000101004   0.0000232370   0.0000276360   0.0000042359  -0.0000351223
        0.0000017875   0.0000001186  -0.0000017702  -0.0000035767  -0.0000000237
       -0.0000038029  -0.0000015696   0.0000013260   0.0000000219  -0.0000000909
       -0.0000003618  -0.0000017101  -0.0000012117   0.0000010957  -0.0000004830
       -0.0000003646   0.0000039210  -0.0000025608   0.0000008471  -0.0000000890
        0.0000026525   0.0000003537  -0.0000001389   0.0000002704   0.0000030738
        0.0000008442  -0.0000000188  -0.0000005563  -0.0000008272  -0.0000006217
       -0.0000013842   0.0000051317   0.0000050673  -0.0000035837  -0.0000002584
        0.0000035438   0.0000024577  -0.0000026056  -0.0000029072   0.0000028571
        0.0000018185  -0.0000045367  -0.0000027813   0.0000087948  -0.0000014111
        0.0000019406   0.0000123800   0.0000028625  -0.0000294839  -0.0000033153
       -0.0000336992  -0.0000447063  -0.0000244765   0.0000236874  -0.0000619516
        0.0001362170   0.0001758208   0.0000745752  -0.0011793989   0.0005601897
        0.0002323076  -0.0000764524  -0.0004129134   0.0005132513  -0.0022758500
        0.0012793327
       -0.0241457656   0.0256876571  -0.0730427474  -0.0004953691   0.0311581355
        0.4870875612   0.0231941202   0.0276984970  -0.0739966479  -0.0531292239
       -0.0374079106  -0.1328297060  -0.0100208210  -0.0121078877  -0.0273013041
        0.0032767089  -0.0035371694  -0.0011181936  -0.0002931224   0.0000520405
       -0.0004187802   0.0010503733  -0.0019409844   0.0016685037  -0.0088409556
       -0.0009176878   0.0019618387  -0.0001008836   0.0004680237  -0.0027432395
        0.0000074882   0.0002507339  -0.0002205162  -0.0001006325  -0.0000449221
       -0.0000993958  -0.0000092507   0.0000357941   0.0000092681  -0.0000253807
        0.0000278273   0.0000097949   0.0000323511   0.0000054070  -0.0000104943
       -0.0000181412  -0.0000212620  -0.0000137001   0.0000218343  -0.0000202583
       -0.0000057594  -0.0000376101   0.0000017461  -0.0000040915   0.0000259456
        0.0000084478   0.0000028126  -0.0000062901  -0.0000161301  -0.0000026304
       -0.0000003025  -0.0000036332  -0.0000004817   0.0000030764   0.0000011100
        0.0000003848   0.0000007924  -0.0000001266  -0.0000012608  -0.0000007468
       -0.0000009419  -0.0000021386   0.0000009735  -0.0000007604   0.0000007050
       -0.0000006817   0.0000006672   0.0000012189  -0.0000009146   0.0000014343
       -0.0000013379  -0.0000004444  -0.0000026873   0.0000011799  -0.0000014325
       -0.0000000812   0.0000014320  -0.0000019363  -0.0000017942  -0.0000010728
        0.0000028158   0.0000032068   0.0000029688  -0.0000022941   0.0000002068
       -0.0000036348   0.0000056800   0.0000003747  -0.0000002805  -0.0000011329
        0.0000045469  -0.0000008396  -0.0000090397   0.0000068621   0.0000000279
        0.0000087523   0.0000267034  -0.0000014795  -0.0000196936  -0.0000195128
        0.0000168188  -0.0000079919   0.0000320175   0.0000197695  -0.0000126737
       -0.0000506160   0.0000028754   0.0000131006   0.0000564033  -0.0000021610
       -0.0000095786  -0.0000375561   0.0000019779   0.0000224161   0.0000225614
       -0.0000239709   0.0000067376  -0.0000274562  -0.0000154905   0.0000160915
        0.0000177392   0.0000059207  -0.0000214659   0.0000187062  -0.0000031403
        0.0000300805   0.0000064965   0.0000052509   0.0000781607  -0.0000559737
       -0.0001014743   0.0094134328  -0.0005656740   0.0012802284  -0.0007850057
       -0.0019906021   0.0017248013   0.0002986632   0.0000687260  -0.0004250280
       -0.0031006042  -0.0037086560  -0.0009353083   0.0098396380  -0.0116450448
       -0.0273966337   0.0542931108  -0.0352583101  -0.1347828551  -0.0150664605
        0.0156820587  -0.0097739215  -0.0057630678   0.0093243864  -0.0042891723
        0.0120684129  -0.0151058929   0.0056661741   0.0050410241   0.0093653620
       -0.0042878123  -0.0109649938  -0.0153761895   0.0058217183   0.0143275427
        0.0166763840  -0.0102504437  -0.0009069240   0.0013434368   0.0001522505
       -0.0005178680  -0.0003559717  -0.0008186211   0.0000785405   0.0006114185
       -0.0000809490   0.0003573612  -0.0000805013   0.0001247468   0.0000026928
        0.0000163710   0.0000065365  -0.0000091308   0.0000037431   0.0000264646
       -0.0000022272   0.0000048620   0.0000031411   0.0000010818   0.0000013099
        0.0000027552   0.0000010026  -0.0000002856   0.0000001421   0.0000002807
        0.0000000811   0.0000004950   0.0000004453  -0.0000005061  -0.0000000839
        0.0000001564  -0.0000014463   0.0000006713   0.0000000334  -0.0000003146
       -0.0000014539  -0.0000000733   0.0000000105  -0.0000002721  -0.0000012450
       -0.0000006072  -0.0000002318  -0.0000003736  -0.0000007892  -0.0000009309
       -0.0000001243  -0.0000007261  -0.0000005614   0.0000013280  -0.0000008398
       -0.0000006687  -0.0000017476   0.0000016300   0.0000016553   0.0000012316
        0.0000009728   0.0000023129   0.0000024238  -0.0000025802   0.0000017318
        0.0000012306   0.0000002668   0.0000011635   0.0000104986   0.0000070543
        0.0000261644  -0.0000045469   0.0000214298   0.0000073695  -0.0003348806
       -0.0001061556   0.0001092565  -0.0001160316   0.0006122739  -0.0000795186
        0.0005119507  -0.0003201411  -0.0008076909   0.0008394992   0.0014014623
        0.0001380380
        0.0059357067   0.0108012311  -0.0049491869  -0.0880489583  -0.0505975756
        0.0231941202   0.4978980657  -0.0359952329   0.0163327848  -0.0160316655
       -0.0179228478  -0.0029835927  -0.0007241819  -0.0002662093   0.0017069579
       -0.0005868628   0.0004600524  -0.0005047169   0.0000853249   0.0000525164
       -0.0000319374  -0.0005723766   0.0005853449  -0.0004130293   0.0005791878
       -0.0015951188  -0.0019945734  -0.0004369239  -0.0000741122   0.0000847171
        0.0003529537  -0.0000013736  -0.0000080323  -0.0000126703   0.0000563998
        0.0000586405   0.0000445340   0.0000837181   0.0000173249  -0.0000941408
        0.0000016469   0.0000011467   0.0001627098   0.0000064477  -0.0000033019
       -0.0001081646  -0.0001139852  -0.0000353832   0.0001252805  -0.0001229579
       -0.0000236818  -0.0002827347  -0.0000131737  -0.0000090593   0.0002371608
        0.0000728555   0.0000123845  -0.0001668435  -0.0001213298  -0.0000294147
        0.0001302314  -0.0001506004   0.0000077762   0.0000096011  -0.0000018152
        0.0000009277   0.0000163726   0.0000180232  -0.0000032301  -0.0000234704
       -0.0000149298   0.0000017771   0.0000200731  -0.0000296703   0.0000002958
        0.0000047701   0.0000396509  -0.0000039931  -0.0000092547  -0.0000237921
        0.0000033141  -0.0000433303   0.0000047750  -0.0000004252   0.0000258935
       -0.0000373138   0.0000059455  -0.0000082191   0.0000161475  -0.0000016419
        0.0000197202   0.0000123670  -0.0000028650  -0.0000061603   0.0000255165
       -0.0000052019   0.0000777892  -0.0000216806   0.0000026527   0.0000104605
        0.0001824472  -0.0000076608  -0.0001335399   0.0000649086   0.0000065491
        0.0000180191   0.0000586519  -0.0000002527  -0.0000410302  -0.0000544846
        0.0000504924  -0.0000183816   0.0000815827   0.0000537172  -0.0000293628
       -0.0001340418   0.0000018435   0.0000305834   0.0001359737  -0.0000028937
       -0.0000219656  -0.0000867812   0.0000029597   0.0000529232   0.0000497012
       -0.0000579130   0.0000160314  -0.0000671037  -0.0000431195   0.0001209082
        0.0001315982   0.0000415796  -0.0001177690   0.0001091865   0.0000301936
        0.0000445688  -0.0000734727  -0.0000186472  -0.0000670946  -0.0000740808
       -0.0000370970   0.0001274627   0.0004958559   0.0024658720  -0.0006864021
        0.0006583937  -0.0001568674   0.0001471544   0.0001121428   0.0000569663
       -0.0006808440   0.0006639390   0.0000904043  -0.0007926113  -0.0013903037
       -0.0009621113  -0.0157286414  -0.0096872981   0.0152218196   0.0007383892
        0.0004757864  -0.0000196148  -0.0010718551   0.0031686158  -0.0014459164
        0.0007231666   0.0003309614  -0.0003470164  -0.1323223680   0.1055591885
       -0.0488015265  -0.1232119131  -0.0506403394  -0.1034251065  -0.1254620467
        0.0454839749   0.1065683327  -0.0000080117  -0.0000481673   0.0003648628
        0.0000095483  -0.0000427209   0.0000321371   0.0000140583  -0.0001205829
        0.0000392530  -0.0001165852  -0.0000371870  -0.0001098728  -0.0000351742
       -0.0000227814   0.0000125937  -0.0000151097  -0.0000061141  -0.0000186555
       -0.0000050534   0.0000125261   0.0000030572   0.0000021064   0.0000062943
        0.0000002409  -0.0000012473  -0.0000020565  -0.0000002751  -0.0000013311
        0.0000010949  -0.0000023686   0.0000004635   0.0000006602  -0.0000012036
       -0.0000000200   0.0000011787  -0.0000020218  -0.0000012845   0.0000010826
        0.0000001586  -0.0000006478  -0.0000001321   0.0000000755   0.0000008756
       -0.0000009806   0.0000004278  -0.0000016794  -0.0000000035   0.0000020838
        0.0000020272  -0.0000031941  -0.0000076548   0.0000039560   0.0000020423
       -0.0000023914  -0.0000039297   0.0000034208   0.0000062937  -0.0000041570
       -0.0000002569   0.0000071182   0.0000016014  -0.0000121221  -0.0000009764
       -0.0000076464  -0.0000151957  -0.0000011151  -0.0000106503   0.0000045266
        0.0000103741  -0.0000023020   0.0000386988  -0.0000027568  -0.0000815421
        0.0000227943   0.0001726160   0.0000255460  -0.0001055958   0.0000512699
        0.0000101154  -0.0000423046   0.0000100987   0.0000128143  -0.0003229004
       -0.0002558543
       -0.0090292338  -0.0247478244   0.0119132205  -0.0425791050  -0.1221905096
        0.0276984970  -0.0359952329   0.4664272890   0.0282173740  -0.0138486011
       -0.0127229102  -0.0026631186  -0.0002111520   0.0001213069   0.0004793015