44
 energy: -74.379056229667 gnorm: 0.000053206723 xtb: 6.7.1 (edcfbbe)
O            3.71669963579863        2.38252548947749        1.44447057905092
C            3.37159115937285        1.37297361504355        0.80037716365521
C            4.33123001732874        0.46874226942313        0.18585925763044
C            5.70005038230803        0.74087945218882        0.33630389813794
C            6.64649615183331       -0.09357612454497       -0.20507872550618
C            6.25260473494125       -1.22831577315759       -0.91864397080328
C            4.91911830547798       -1.51109906729986       -1.08065488074925
C            3.93431390658922       -0.66902247971802       -0.53888853722632
C            2.53924868280091       -1.01469054442036       -0.75303016913885
O            2.18509358608142       -2.01618505548724       -1.40250069817984
C            1.57882256547471       -0.10888741484089       -0.13898771951260
C            0.21568505714869       -0.39138017257628       -0.27624589016711
C           -0.73913512762414        0.43245974404496        0.28851704624811
N           -2.09438878782646        0.13118097624472        0.14133605564039
C           -2.68156990603293       -1.09517927190510        0.37924970754010
C           -2.11240784617648       -2.27115069380560        0.85411382572787
C           -2.94510672829667       -3.36190624948092        1.03462641718783
C           -4.30774802963038       -3.28667691460022        0.76172094026733
C           -4.88521518303480       -2.10777859682599        0.31097046093033
C           -4.07093096189719       -1.00495244083467        0.12103895533860
C           -4.31952770545286        0.35155190268543       -0.30465583752262
C           -5.45730231757126        1.03560325819961       -0.69500406872884
C           -5.33356955177525        2.36722952231394       -1.06757426272954
C           -4.09547664554787        3.00294274630110       -1.06755881156792
C           -2.94405337011335        2.33804895409826       -0.68312731207463
C           -3.06743708807509        1.01294369382601       -0.27996428562716
C           -0.33933816340237        1.58363376425452        0.99884786851365
C            0.99056225009222        1.87413974301970        1.12664129124097
C            1.97884578306568        1.02846759386046        0.59102964681695
H            5.97503836819442        1.62301632667050        0.89669202650195
H            7.69568845914323        0.12699546867658       -0.07671445790697
H            6.99732560524143       -1.88254525653131       -1.34692952111871
H            4.58575808373324       -2.38006184705233       -1.62981820275124
H           -0.06778340501075       -1.25497768495693       -0.85987448198246
H           -1.05935438652032       -2.33371641709796        1.08001288745141
H           -2.52675225843000       -4.28855636191339        1.39695225031456
H           -4.92534322630977       -4.15898422134591        0.91260053209406
H           -5.94479921289506       -2.05046004477506        0.11676261463861
H           -6.41732261507064        0.54393738128634       -0.71174791316772
H           -6.20995597190492        2.91807854677186       -1.37363097061479
H           -4.02875005483744        4.03397630149142       -1.37963929609230
H           -1.98375333144860        2.82863878186446       -0.71043338886436
H           -1.08652358096601        2.20468325876470        1.46815837532995
H            1.33143931445650        2.74151574280331        1.67365640807513
