$hessian                                                                        
        0.1355526730  -0.1402750574   0.0817309825  -0.1089724833   0.1140070877
       -0.0678591030   0.0128819732  -0.0172125053   0.0107521560  -0.0025483012
       -0.0027008295   0.0017418360   0.0016226741   0.0004814230  -0.0003319238
        0.0003077259  -0.0007620299   0.0004949559  -0.0001490355  -0.0012274113
        0.0007944602  -0.0009631467  -0.0027205763   0.0016751144  -0.0039034549
       -0.0010711544   0.0009988232   0.0009816944   0.0002142750  -0.0001810968
       -0.0047821005  -0.0005395244   0.0008526601  -0.0042370779   0.0008930222
       -0.0013113150   0.0043885719   0.0000100822  -0.0003395350  -0.0035208089
        0.0008707258  -0.0002887061   0.0010893715   0.0010057765  -0.0002151965
       -0.0003043418  -0.0002292955  -0.0001256294   0.0003123204   0.0001495350
        0.0001643232  -0.0001771532   0.0003367266   0.0000395366  -0.0000580704
       -0.0004561540  -0.0000467418  -0.0000087745   0.0006824496   0.0001236195
       -0.0002728280  -0.0006060354  -0.0001584685   0.0001520786   0.0004521850
        0.0000589341  -0.0003140123  -0.0002342803  -0.0001042173   0.0002283505
       -0.0003055002  -0.0000638142  -0.0002260239   0.0003562149   0.0000661517
        0.0004348663  -0.0013497940   0.0003914553   0.0002170582   0.0019892747
       -0.0007677723   0.0018580619   0.0039089300  -0.0023429592  -0.0289815014
        0.0449340260  -0.0259437393   0.0005785673  -0.0007530273   0.0004448722
        0.0001437444   0.0001028175  -0.0000868292  -0.0000027292  -0.0000925768
        0.0000437384  -0.0002534828  -0.0002603010   0.0001611205  -0.0007912037
        0.0000974525  -0.0000926851   0.0000659017   0.0000605911   0.0000060633
       -0.0000169118  -0.0000726685  -0.0000231876  -0.0000645081  -0.0000322011
       -0.0000363896  -0.0000830670   0.0000250853   0.0000100756  -0.0000806806
        0.0000187363  -0.0000256393  -0.0000464910   0.0000656963   0.0000125303
        0.0000141675   0.0000832241   0.0000262659   0.0000265309  -0.0001021501
       -0.0000223000   0.0000843201   0.0000015063   0.0000562849  -0.0001824633
        0.0002562295  -0.0002787111
       -0.1402750574   0.5062629018  -0.2939602972   0.1107226431  -0.4239106052
        0.2244887442  -0.0140276593  -0.0516805196   0.0420818173   0.0077277728
       -0.0013497819   0.0007294591   0.0005025653  -0.0011634453  -0.0000418902
        0.0016941033   0.0002723357  -0.0001445436  -0.0023753354  -0.0028151784
        0.0008994885  -0.0070102872   0.0007373478   0.0014548232  -0.0007882450
        0.0012294847  -0.0014419168   0.0002429307  -0.0003586319   0.0006369837
        0.0020464526   0.0051287443  -0.0018958688   0.0055545128   0.0004901457
        0.0003594875  -0.0075205414   0.0011872688  -0.0001373139   0.0056434856
       -0.0010293410   0.0004427350  -0.0015540557  -0.0014599548   0.0005725662
        0.0006008245   0.0001825308   0.0001329199  -0.0005814193  -0.0002772220
       -0.0003079179   0.0002788910  -0.0006963384  -0.0000858340   0.0001600225
        0.0010405280   0.0001367258  -0.0002606989  -0.0013128068  -0.0002582747
        0.0002287925   0.0013519578   0.0002759768  -0.0003179814  -0.0010620462
       -0.0001767418   0.0006459982   0.0005898451   0.0002293036  -0.0004152576
        0.0005891969   0.0000690244   0.0005274987  -0.0004213536  -0.0000817052
       -0.0005676702   0.0017406692  -0.0007205572   0.0030787875  -0.0036038491
        0.0001417834  -0.0100366962  -0.0034596225   0.0028780172   0.0461039530
       -0.0269048911   0.0238255071  -0.0009304557   0.0004215286  -0.0001096173
       -0.0001779589  -0.0000082852   0.0000613911  -0.0000379207   0.0001090347
        0.0001957239  -0.0005733697  -0.0006045722   0.0001359673   0.0005388079
       -0.0001601232  -0.0003337830  -0.0000439709  -0.0000467828   0.0000808470
        0.0000616353   0.0001359195   0.0000644405   0.0001014299   0.0000482114
        0.0000792243   0.0001333234  -0.0000418651  -0.0000204193   0.0001386799
       -0.0000397152   0.0000442373   0.0000655957  -0.0001129684  -0.0000209163
       -0.0000453675  -0.0001396653  -0.0000492904  -0.0000753139   0.0000163427
        0.0000343054   0.0002268959  -0.0000591371  -0.0000242688   0.0005896601
        0.0011847088  -0.0002403433
        0.0817309825  -0.2939602972   0.1979548862  -0.0659550886   0.2247508626
       -0.1876889198   0.0088923281   0.0420980088  -0.0110252121  -0.0047285260
        0.0010743919  -0.0001695006  -0.0003943470  -0.0001243161  -0.0012126938
       -0.0011045502   0.0000041892   0.0002379696   0.0015283078   0.0009134954
       -0.0019155719   0.0042917237   0.0010536020   0.0013884130   0.0007236240
       -0.0009985507   0.0005507377  -0.0002125327   0.0005149015   0.0000773047
       -0.0010306490  -0.0011913895   0.0037652363  -0.0030414295  -0.0011554709
       -0.0012894618   0.0042839427  -0.0006461298  -0.0000366883  -0.0032654581
        0.0007816344   0.0001155331   0.0008956062   0.0007837616  -0.0003401180
       -0.0003460708  -0.0000865349  -0.0000470448   0.0003277882   0.0001549665
        0.0001833312  -0.0001641831   0.0004226657   0.0000523533  -0.0000897402
       -0.0006187351  -0.0000771132   0.0001722424   0.0007744008   0.0001514786
       -0.0001685563  -0.0007570373  -0.0001736995   0.0001960225   0.0005831096
        0.0000988598  -0.0003464449  -0.0003334133  -0.0001123867   0.0002313400
       -0.0003220281  -0.0000683979  -0.0002636162   0.0002185816   0.0000407007
        0.0003188667  -0.0010707630   0.0004486848  -0.0019657049   0.0014197111
       -0.0010422139   0.0061669303   0.0022892827  -0.0014021076  -0.0266201905
        0.0239034990   0.0014442537   0.0005779913  -0.0000629776   0.0002763607
        0.0001066628   0.0000353220   0.0000168614   0.0000287567   0.0001677084
        0.0002443750   0.0003432846   0.0001170516  -0.0004995067  -0.0003441609
       -0.0002663062  -0.0002460909   0.0000442531   0.0000093841  -0.0000549245
       -0.0000243908  -0.0000806008  -0.0000329454  -0.0000580627  -0.0000346887
       -0.0000423406  -0.0000798265   0.0000230561   0.0000091582  -0.0000807606
        0.0000221999  -0.0000337059  -0.0000432163   0.0000673413   0.0000073102
        0.0000199285   0.0000834550   0.0000164618   0.0000444164  -0.0000201341
       -0.0000301211  -0.0001555656   0.0000695600   0.0000540603  -0.0004419271
       -0.0006067696   0.0004064348
       -0.1089724833   0.1107226431  -0.0659550886   0.4976065204  -0.0746074446
        0.0335846810  -0.1311172299  -0.0492405138   0.0332393963  -0.0381313613
       -0.0150223622   0.0103951633  -0.0061111506   0.0028850230  -0.0015371419
       -0.0033639447   0.0014799818  -0.0009221018   0.0069903966   0.0043021045
       -0.0027307937   0.0015579357  -0.0065211088   0.0041797883   0.0150096834
        0.0015808415  -0.0023941767  -0.0040419825  -0.0002371961   0.0003710918
       -0.0193302588   0.0182191412  -0.0111634289   0.0143818372   0.0035075507
        0.0003264769  -0.0161236452   0.0017297008  -0.0002212557   0.0134349893
       -0.0031873786   0.0013383585  -0.0037886853  -0.0035696094   0.0009180216
        0.0010715401   0.0007897503   0.0003661332  -0.0010840328  -0.0004560493
       -0.0005400293   0.0005551424  -0.0010431266  -0.0001136809   0.0001109277
        0.0013815266   0.0000882990   0.0001465160  -0.0022733408  -0.0003961784
        0.0010189067   0.0019811227   0.0005436885  -0.0005054808  -0.0013470299
       -0.0001383540   0.0009477133   0.0007045098   0.0003052680  -0.0008445464
        0.0009792436   0.0002391783   0.0007011440  -0.0012318983  -0.0001287329
       -0.0014335590   0.0047607176  -0.0015634281   0.0042478244  -0.0094866807
        0.0038105968  -0.0483130136  -0.0084048308   0.0073522666  -0.1752268820
        0.0209319124  -0.0092537961  -0.0006474029  -0.0007195515   0.0003609164
       -0.0007616059  -0.0007503450   0.0005297005   0.0001044923   0.0001433039
       -0.0001223420   0.0007440473   0.0007518304  -0.0004618658   0.0006919120
        0.0001014464  -0.0000039260  -0.0002198783  -0.0000792493   0.0000475804
        0.0000510538   0.0002447915   0.0000837625   0.0001900532   0.0001085867
        0.0001210617   0.0002683330  -0.0000674115  -0.0000341532   0.0002564535
       -0.0000527777   0.0000957239   0.0001459597  -0.0001973924  -0.0000534082
       -0.0000324926  -0.0002575358  -0.0000920257  -0.0001054130   0.0002006410
       -0.0000446569  -0.0004420473   0.0000974953  -0.0002021946   0.0003637141
        0.0011489678  -0.0002243942
        0.1140070877  -0.4239106052   0.2247508626  -0.0746074446   0.6068080842
       -0.2717833243  -0.0404186572  -0.0949782225   0.0205439683  -0.0155076955
        0.0058474300  -0.0025010349   0.0030320200   0.0052596119   0.0020805633
       -0.0019469263  -0.0010377339   0.0004631113   0.0061523900   0.0005729302
        0.0046556301  -0.0106203815  -0.0244991725   0.0144704717   0.0026841396
       -0.0008566034  -0.0017028550  -0.0012061351   0.0012549356  -0.0011665321
        0.0220945343  -0.0138681741   0.0069071694  -0.0034423587  -0.0032439968
        0.0050798163   0.0075476797  -0.0023850606   0.0011341882  -0.0060711160
        0.0006118908  -0.0012844304   0.0015852621   0.0015920867  -0.0006652402
       -0.0006110063  -0.0001902355  -0.0001521030   0.0006234649   0.0002983253
        0.0003495372  -0.0002985902   0.0007610557   0.0000893613  -0.0001682458
       -0.0011352380  -0.0001435655   0.0002790102   0.0014113921   0.0002908215
       -0.0002175378  -0.0014992902  -0.0002933914   0.0003578022   0.0011755725
        0.0002056591  -0.0007001943  -0.0006422191  -0.0002453556   0.0004774113
       -0.0006480901  -0.0000550587  -0.0005850553   0.0004366163   0.0000394673
        0.0006144583  -0.0017542607   0.0007344431  -0.0072524826   0.0041821381
        0.0041211331  -0.0043153493   0.0091251477  -0.0055596539   0.0084619630
       -0.0659868092   0.0025535086   0.0021305464  -0.0010698577  -0.0013708217
        0.0009858785   0.0003484793  -0.0003956895   0.0001429324  -0.0005626585
       -0.0010654015  -0.0003156232  -0.0001039195   0.0005193021   0.0008411215
       -0.0000380687   0.0006984337   0.0000616185   0.0000492390  -0.0000884615
       -0.0000642713  -0.0001482514  -0.0000711963  -0.0001184548  -0.0000587393
       -0.0000925185  -0.0001587290   0.0000446582   0.0000191464  -0.0001582682
        0.0000372374  -0.0000517588  -0.0000802237   0.0001306791   0.0000125595
        0.0000434748   0.0001578092   0.0000493158   0.0000769836   0.0000519029
       -0.0000186207  -0.0013896519   0.0002784294   0.0000071259  -0.0019453806
       -0.0018184445  -0.0010685824
       -0.0678591030   0.2244887442  -0.1876889198   0.0335846810  -0.2717833243
        0.3285201383   0.0273859427   0.0211777799  -0.0780466273   0.0105963689
       -0.0026789433   0.0024445863  -0.0015147529   0.0020764585   0.0073087042
        0.0013376379   0.0002989462  -0.0006692431  -0.0039671540   0.0045155137
        0.0049483218   0.0067722040   0.0147633085  -0.0106646659  -0.0023842296
       -0.0020085528  -0.0030932294   0.0009301369  -0.0010701570   0.0004142635
       -0.0134917885   0.0063472799  -0.0056059509   0.0012213201   0.0065270292
        0.0035637089  -0.0039387425   0.0014058829  -0.0002147593   0.0030750733
       -0.0014257687  -0.0011759063  -0.0008429152  -0.0005828013   0.0002335803
        0.0003898192   0.0000654861   0.0000886543  -0.0003638607  -0.0001924355
       -0.0001441416   0.0001942190  -0.0004617628  -0.0000723253   0.0001091285
        0.0006924015   0.0001162218  -0.0003016650  -0.0007927744  -0.0001551465
        0.0001843590   0.0007378428   0.0001774169  -0.0001799006  -0.0005923003
       -0.0000730363   0.0003237348   0.0003255957   0.0001081263  -0.0002326932
        0.0002927896   0.0000944166   0.0002329430  -0.0001540062  -0.0000039602
       -0.0001466927   0.0010919798  -0.0005379328   0.0051519466   0.0026589887
        0.0047157081   0.0047693482  -0.0055570915   0.0037013616  -0.0009034881
        0.0023615150  -0.0632241492  -0.0013751364  -0.0012578299  -0.0022366965
       -0.0006037548  -0.0003267757   0.0000336402  -0.0001385183  -0.0010014633
       -0.0014651692   0.0002120740   0.0004810960   0.0003494339  -0.0004803586
        0.0006099613   0.0002976257  -0.0000386144  -0.0000224125   0.0000165681
        0.0000279683   0.0000722732   0.0000400559   0.0000671361   0.0000303531
        0.0000355983   0.0000806087  -0.0000316062  -0.0000070120   0.0000868691
       -0.0000299961   0.0000330808   0.0000439541  -0.0000673779  -0.0000311535
       -0.0000229655  -0.0000961967  -0.0000240154  -0.0000619436  -0.0000163689
       -0.0000290731   0.0009044569  -0.0001020178  -0.0000075216   0.0011663473
       -0.0007692627  -0.0020705765
        0.0128819732  -0.0140276593   0.0088923281  -0.1311172299  -0.0404186572
        0.0273859427   0.6200962318  -0.0367141542   0.0101231971  -0.2893150854
        0.0779081665  -0.0435133817  -0.0566301366  -0.0489802403   0.0324883776
       -0.0253674879   0.0264086079  -0.0162489081   0.0364773465  -0.0072700148
        0.0037753739  -0.0948169396   0.0287161803  -0.0166695103  -0.0158085999
        0.0208123879  -0.0127779899  -0.0057058201   0.0034784185  -0.0019735716
        0.0032713332  -0.0014697674   0.0007196085  -0.0008703639   0.0000614465
       -0.0002165189   0.0017552666  -0.0010707483   0.0008408602  -0.0016575800
        0.0005623485  -0.0003817455   0.0005764873   0.0005129753  -0.0000194036
       -0.0000839738  -0.0001764249  -0.0000784774   0.0000837041   0.0000182378
        0.0000147501  -0.0000471746  -0.0000087166  -0.0000053219   0.0000364396
        0.0000623443   0.0000373564  -0.0001815771   0.0001014794   0.0000050719
       -0.0002379270   0.0000069386  -0.0000491504   0.0000067772  -0.0000960809
       -0.0000441389  -0.0000025852   0.0000635098   0.0000089377   0.0000794994
       -0.0000278324  -0.0000509336  -0.0000038413   0.0001986057   0.0000292923
        0.0002698156  -0.0008098981   0.0001540906  -0.0022509043   0.0003292160
        0.0000788945  -0.0028817631   0.0029474714  -0.0017873687  -0.0337328085
       -0.0124753044   0.0094492402  -0.0092577030   0.0060884872  -0.0036068885
       -0.0025011591  -0.0027028738   0.0019390512   0.0000919651   0.0006706480
       -0.0004255560  -0.0031440711  -0.0029104647   0.0021051677  -0.0000602329
       -0.0000590415  -0.0000697252   0.0000260667   0.0000436806   0.0000433869
        0.0000042554  -0.0000082259   0.0000002468  -0.0000072332  -0.0000079469
        0.0000027280  -0.0000146527   0.0000018167  -0.0000013161  -0.0000073661
        0.0000005444  -0.0000084737  -0.0000058853   0.0000019961   0.0000094153
       -0.0000070687   0.0000106966   0.0000045489   0.0000055854  -0.0000596813
        0.0000254712  -0.0004376787   0.0001018842  -0.0000356365   0.0004921019
        0.0001856446  -0.0001693212
       -0.0172125053  -0.0516805196   0.0420980088  -0.0492405138  -0.0949782225
        0.0211777799  -0.0367141542   0.4867625070  -0.2314573537   0.0303763085
       -0.0934847780   0.0267312853  -0.0037011514   0.0320527293  -0.0182365905
        0.0280603872  -0.0209932859   0.0088943218  -0.0457401518  -0.0366850872
        0.0268005292   0.0622144378  -0.2136503601   0.1009971217   0.0160641529
       -0.0123614898   0.0064224260  -0.0001952737   0.0042371411  -0.0010784032
       -0.0006164656  -0.0016912086   0.0013520866  -0.0003441049  -0.0009148212
       -0.0003789098   0.0014652730  -0.0008088741   0.0003770290  -0.0014918318
        0.0004636098  -0.0000262217   0.0004762456   0.0004218088  -0.0000008354
       -0.0001313535  -0.0001134512  -0.0000795831   0.0001102248   0.0000416136
        0.0000093052  -0.0000527920   0.0000585491  -0.0000057737   0.0000220625
       -0.0000382761   0.0000057217  -0.0001096042   0.0001742831   0.0000176460
       -0.0001894351  -0.0000923443  -0.0000503963   0.0000345792   0.0000035574
       -0.0000004501  -0.0000451230  -0.0000085360   0.0000107165   0.0000814565
       -0.0000738966  -0.0000173812  -0.0000201598   0.0001623721   0.0000620915
        0.0002037130  -0.0006633453   0.0001263711  -0.0007309544   0.0008500611
       -0.0011634120   0.0035470978   0.0013057609   0.0001753347  -0.0057670132
        0.0082518113   0.0034029506   0.0240930071  -0.0073589589   0.0048846719
       -0.0030203456   0.0005571956   0.0047028306   0.0006622496  -0.0000767268
       -0.0003793730  -0.0026695026   0.0006068676   0.0044766050   0.0000638184
       -0.0000475428  -0.0000534557   0.0000177764   0.0000095688   0.0000042516
        0.0000029166  -0.0000120156  -0.0000264286  -0.0000141570  -0.0000059679
       -0.0000166897  -0.0000174809   0.0000132123  -0.0000009633  -0.0000187889
        0.0000021053   0.0000040705  -0.0000113557   0.0000118686   0.0000331837
        0.0000092122   0.0000092688   0.0000311370   0.0000193495  -0.0000420844
        0.0000149424   0.0001499453  -0.0000632414   0.0000161738   0.0003800048
       -0.0001508576   0.0001436287
        0.0107521560   0.0420818173  -0.0110252121   0.0332393963   0.0205439683
       -0.0780466273   0.0101231971  -0.2314573537   0.2640044961  -0.0135068806
        0.0256050105  -0.0651395231   0.0037647801  -0.0170044630   0.0138783671
       -0.0172563313   0.0088541625  -0.0111152740   0.0280649470   0.0261020943
       -0.0128966436  -0.0379296366   0.1017241328  -0.1154602447  -0.0098582542
        0.0063321474  -0.0052911445   0.0003125495  -0.0011972148   0.0031599314
        0.0005493051   0.0015743126  -0.0003622447   0.0001983961  -0.0003470520
       -0.0010444748  -0.0006895063   0.0003513717  -0.0005407809   0.0008205453
       -0.0000301566   0.0004283919  -0.0003156617  -0.0003399376   0.0000566599
        0.0000141727   0.0000908423   0.0000079591  -0.0000241331  -0.0000036795
       -0.0000484999   0.0000042844   0.0000236361  -0.0000049744  -0.0000310316
       -0.0000320436  -0.0000302190   0.0001217447  -0.0000562969   0.0000032434
        0.0000892321   0.0000311252   0.0000296416  -0.0000130215   0.0000087339
        0.0000312011   0.0000153347  -0.0000118959   0.0000276089  -0.0000248460
        0.0000305756   0.0000360636   0.0000125509  -0.0000888980  -0.0000208332
       -0.0001415660   0.0003395875  -0.0000530008   0.0001451908  -0.0012049415
       -0.0005774977  -0.0017483063   0.0003415622   0.0017230816   0.0050168737
        0.0036171132   0.0109683824  -0.0149514444   0.0052093756  -0.0018743331
        0.0021464043   0.0046771876   0.0048570292  -0.0004350664  -0.0004383828
       -0.0004977917   0.0019586561   0.0045235574   0.0047103283  -0.0000316549
       -0.0000194200  -0.0000140697  -0.0000148651  -0.0000158149  -0.0000080210
       -0.0000021031   0.0000177694  -0.0000176674   0.0000050208   0.0000120917
       -0.0000013920   0.0000118682   0.0000023480   0.0000005774   0.0000118790
        0.0000021637   0.0000194604   0.0000086065  -0.0000087769   0.0000241501
       -0.0000037882  -0.0000117407   0.0000220050  -0.0000083960   0.0000129084
        0.0000191762  -0.0000744250  -0.0000266376  -0.0000149765  -0.0003261731
        0.0001851107   0.0000776916
       -0.0025483012   0.0077277728  -0.0047285260  -0.0381313613  -0.0155076955
        0.0105963689  -0.2893150854   0.0303763085  -0.0135068806   0.6371851862
        0.0047843462  -0.0153446474  -0.2135698702  -0.0658889420   0.0454793496
        0.0497473565  -0.0500669062   0.0304918866  -0.0533595761  -0.0123312699
        0.0090446622  -0.0137345906   0.0653197762  -0.0410071069   0.0094274338
       -0.0010872116   0.0006214216  -0.0029667893   0.0033435220  -0.0021245844
       -0.0003168526   0.0003813797  -0.0001149558   0.0002150215  -0.0002254374
        0.0001393765  -0.0001315539   0.0007139447  -0.0006457524   0.0004997090
       -0.0002001761   0.0001753050  -0.0001253849  -0.0001263267   0.0000237886
        0.0000086247   0.0000506010  -0.0000012355  -0.0000153024   0.0000228111
        0.0000200798   0.0000066521   0.0000536351   0.0000123337  -0.0000184552
       -0.0000895212  -0.0000283454   0.0000810014   0.0000325710   0.0000138733
        0.0000810061  -0.0000732207   0.0000022238   0.0000254189   0.0001067737
        0.0000330635  -0.0000325446  -0.0000722847  -0.0000233926  -0.0000222535
       -0.0000371139   0.0000208507  -0.0000142033  -0.0000540633   0.0000150829
       -0.0000684156   0.0002406590  -0.0000483295   0.0007489814  -0.0009937789
        0.0005595965  -0.0027758735  -0.0004977337   0.0004765803   0.0010976646
       -0.0031685821   0.0020089074  -0.0585496719   0.0521756331  -0.0323406028
       -0.0237130573  -0.0164526567   0.0109710010   0.0007105340   0.0015632302
       -0.0008340290  -0.0005016562  -0.0001931894   0.0001112195   0.0002035682
        0.0000089277   0.0000595176  -0.0000054249   0.0000027570  -0.0000052613
       -0.0000028455  -0.0000068901   0.0000010512  -0.0000088527  -0.0000013481
       -0.0000057136  -0.0000053672   0.0000058996   0.0000015997  -0.0000108284
        0.0000003662  -0.0000001600  -0.0000056774   0.0000112819  -0.0000084244
        0.0000113547   0.0000041769  -0.0000034855  -0.0000093094   0.0000175617
       -0.0000465846  -0.0000857623   0.0000236907   0.0000104134  -0.0000046460
        0.0001067220  -0.0000715354
       -0.0027008295  -0.0013497819   0.0010743919  -0.0150223622   0.0058474300
       -0.0026789433   0.0779081665  -0.0934847780   0.0256050105   0.0047843462
        0.5170055515  -0.2523136847  -0.1316591102  -0.1635542633   0.0758453112
       -0.0033343997  -0.0414983357   0.0271835256  -0.0126170239  -0.0020438235
       -0.0023394849   0.0269176879  -0.0023770890   0.0034216327   0.0018163221
       -0.0019407853   0.0062690009   0.0014660629  -0.0006941067  -0.0005209370
        0.0002520258  -0.0009147502  -0.0003618911  -0.0004451699  -0.0003544359
       -0.0000007887   0.0009021576   0.0000467525   0.0000174960  -0.0007143503
        0.0001430683  -0.0000520196   0.0002469492   0.0002232531  -0.0000376594
       -0.0000735743  -0.0000415970  -0.0000315382   0.0000657586   0.0000334386
        0.0000474440  -0.0000409246   0.0000800762   0.0000134553  -0.0000078662
       -0.0001104595  -0.0000082479   0.0000025265   0.0001579793   0.0000299383
       -0.0000484001  -0.0001446312  -0.0000414618   0.0000404836   0.0001076165
        0.0000161473  -0.0000746559  -0.0000576258  -0.0000283626   0.0000546971
       -0.0000700992  -0.0000111924  -0.0000643001   0.0000680867   0.0000058228
        0.0000867250  -0.0002729679   0.0000779712  -0.0002481296   0.0000595438
        0.0000745178  -0.0007583632   0.0006358929  -0.0000409098  -0.0033577869
       -0.0016054740   0.0019611805   0.0526134220  -0.2163505133   0.1126163171
        0.0030304718   0.0037544650  -0.0014551216   0.0013897030  -0.0017760647
        0.0061891734  -0.0002490415   0.0004514440  -0.0004271707  -0.0000528809
        0.0000186089   0.0000138406   0.0000215645   0.0000116438   0.0000001372
        0.0000013139  -0.0000164480  -0.0000005392  -0.0000138480  -0.0000111119
       -0.0000063622  -0.0000178497   0.0000047370   0.0000046206  -0.0000181070
        0.0000004318  -0.0000071622  -0.0000105886   0.0000151631  -0.0000031322
        0.0000031524   0.0000179649  -0.0000005111  -0.0000004929  -0.0000123350
       -0.0000083795  -0.0001328858  -0.0000283839  -0.0000528636   0.0000594044
        0.0000267130  -0.0000385714
        0.0017418360   0.0007294591  -0.0001695006   0.0103951633  -0.0025010349
        0.0024445863  -0.0435133817   0.0267312853  -0.0651395231  -0.0153446474
       -0.2523136847   0.2764775300   0.0871200780   0.0742621313  -0.0975423669
        0.0009137370   0.0282613167  -0.0164574672   0.0091103792  -0.0023489343
       -0.0049837484  -0.0165699499   0.0026239939   0.0028855902  -0.0011920231
        0.0063002011   0.0039446869  -0.0008626802  -0.0005397549  -0.0010372068
       -0.0002527805  -0.0004613713  -0.0012854099   0.0002702605   0.0001355201
       -0.0001552866  -0.0006039339   0.0001011832   0.0002272017   0.0004884395
       -0.0000871138   0.0000345827  -0.0001364777  -0.0001309106   0.0000056797
        0.0000550970   0.0000137369   0.0000222592  -0.0000455918  -0.0000305685
       -0.0000193438   0.0000288014  -0.0000617533  -0.0000121815   0.0000068399
        0.0000849716   0.0000158180  -0.0000133258  -0.0001087684  -0.0000270662
        0.0000254918   0.0001122991   0.0000145000  -0.0000228155  -0.0000894966
       -0.0000122725   0.0000514318   0.0000442419   0.0000145709  -0.0000346675
        0.0000515782   0.0000018308   0.0000371964  -0.0000425279  -0.0000104592
       -0.0000592895   0.0001862644  -0.0000591230   0.0002040961  -0.0000798565
       -0.0001109112   0.0004859160  -0.0000629480   0.0005240009   0.0022577507
        0.0019108132  -0.0000226037  -0.0326622739   0.1126344040  -0.1060237178
       -0.0014219871  -0.0010275185   0.0022492747  -0.0007161929   0.0061946877
        0.0042308828   0.0001634563  -0.0004148403   0.0000558809   0.0000254841
        0.0000017325   0.0000096159  -0.0000213845  -0.0000070480  -0.0000020307
        0.0000013786   0.0000108308   0.0000071231   0.0000101266   0.0000042898
        0.0000052436   0.0000116473  -0.0000045842  -0.0000035854   0.0000124907
       -0.0000013402  -0.0000024485   0.0000066584  -0.0000072050  -0.0000121518
       -0.0000036802  -0.0000100333  -0.0000112521  -0.0000037127   0.0000142612
       -0.0000027587   0.0000780073  -0.0000827953  -0.0001268076  -0.0000209682
        0.0000048868   0.0000583652
        0.0016226741   0.0005025653  -0.0003943470  -0.0061111506   0.0030320200
       -0.0015147529  -0.0566301366  -0.0037011514   0.0037647801  -0.2135698702
       -0.1316591102   0.0871200780   0.6754403811  -0.0128295233  -0.0054944997
       -0.1117791717   0.0836313336  -0.0510274858  -0.0052745152   0.0297145093
       -0.0186606172   0.0022079483  -0.0135664169   0.0084711338  -0.0027942369
        0.0014250387  -0.0008792266   0.0008306765  -0.0016837380   0.0010712255
        0.0000219886   0.0000015407  -0.0000714572   0.0004424325   0.0002965870
       -0.0000935467  -0.0005503997  -0.0002289661   0.0002597364   0.0003723268
       -0.0000415242  -0.0000073890  -0.0000977032  -0.0000902400   0.0000355535
        0.0000458239   0.0000035740   0.0000197707  -0.0000307644  -0.0000267391
       -0.0000245287   0.0000148622  -0.0000721618  -0.0000083305   0.0000054961
        0.0000951278   0.0000161381  -0.0000263782  -0.0001163363  -0.0000245348
        0.0000094431   0.0001218865   0.0000222730  -0.0000376614  -0.0001000645
       -0.0000244244   0.0000503901   0.0000657064   0.0000175194  -0.0000225212
        0.0000469504  -0.0000034306   0.0000388301  -0.0000270249  -0.0000107697
       -0.0000253120   0.0000896027  -0.0000587500  -0.0002186597  -0.0000266391
       -0.0000505322  -0.0002625050   0.0000882009  -0.0000601517  -0.0010199279
       -0.0010089244   0.0006383621   0.0045299424   0.0030746879  -0.0020039998
       -0.2863448552   0.0579603859  -0.0307448034   0.0045093321  -0.0166965316
        0.0105054900  -0.0052962547   0.0016703250  -0.0007649079  -0.0000196495
       -0.0000053956  -0.0000231383  -0.0000062455   0.0000006587   0.0000141453
       -0.0000022781   0.0000089537   0.0000078219   0.0000063451   0.0000041174
        0.0000103697   0.0000087495  -0.0000059992  -0.0000032120   0.0000112420
        0.0000009496   0.0000000009   0.0000047532  -0.0000087793  -0.0000069037
       -0.0000080068  -0.0000040269  -0.0000084972   0.0000022220  -0.0000014241
        0.0000046218  -0.0000263166   0.0000013130  -0.0000102253  -0.0000213391
        0.0000646824  -0.0000045579
        0.0004814230  -0.0011634453  -0.0001243161   0.0028850230   0.0052596119
        0.0020764585  -0.0489802403   0.0320527293  -0.0170044630  -0.0658889420
       -0.1635542633   0.0742621313  -0.0128295233   0.4930808341  -0.2361759019
        0.0160477330  -0.2372100441   0.1176265619   0.0766871655  -0.0040673878
        0.0014716448  -0.0123424632  -0.0397253914   0.0217053546  -0.0017554714
       -0.0008511463   0.0002780274   0.0009958342  -0.0002774485   0.0003011531
       -0.0005942002  -0.0005430226   0.0001961867   0.0005572829   0.0002964066
       -0.0000386780  -0.0002560809  -0.0006578080   0.0006098196  -0.0001036999
        0.0000824127  -0.0001292070   0.0000312061   0.0000487289   0.0000049545
        0.0000355297  -0.0000473291  -0.0000094488  -0.0000079936  -0.0000116002
       -0.0000311859   0.0000097505  -0.0000512223  -0.0000133322   0.0000105698
        0.0000955983   0.0000225562  -0.0000651473  -0.0000638049  -0.0000155165
       -0.0000524613   0.0000946972   0.0000115369  -0.0000181423  -0.0001137831
       -0.0000116718   0.0000445410   0.0000576808   0.0000373172   0.0000001398
        0.0000353701   0.0000053923   0.0000477604   0.0000167314   0.0000184170
        0.0000379613  -0.0001188121   0.0000080494  -0.0006211368   0.0004946883
       -0.0002173995   0.0009561970   0.0002449447  -0.0003057394  -0.0010358677
        0.0000111396  -0.0008586842  -0.0165695520  -0.0154020050   0.0112044957
        0.0580169254  -0.0546520148   0.0107315131   0.0029769998  -0.0159705550
        0.0111187449   0.0014481776   0.0025874576   0.0032708588  -0.0001108690
       -0.0000041813  -0.0000359199  -0.0000185575   0.0000170618  -0.0000021327
       -0.0000003483   0.0000174113  -0.0000143680  -0.0000012795   0.0000080423
       -0.0000032580   0.0000034586   0.0000047986  -0.0000007376   0.0000079006
        0.0000019208   0.0000153163   0.0000039137  -0.0000061325   0.0000281167
       -0.0000023802  -0.0000058315   0.0000206717  -0.0000150039  -0.0000188443