      -----------------------------------------------------------      
     |                   =====================                   |     
     |                           x T B                           |     
     |                   =====================                   |     
     |                         S. Grimme                         |     
     |          Mulliken Center for Theoretical Chemistry        |     
     |                    University of Bonn                     |     
      -----------------------------------------------------------      

   * xtb version 6.7.1 (edcfbbe) compiled by 'albert@albert-system' on 2024-07-22

   xtb is free software: you can redistribute it and/or modify it under
   the terms of the GNU Lesser General Public License as published by
   the Free Software Foundation, either version 3 of the License, or
   (at your option) any later version.
   
   xtb is distributed in the hope that it will be useful,
   but WITHOUT ANY WARRANTY; without even the implied warranty of
   MERCHANTABILITY or FITNESS FOR A PARTICULAR PURPOSE.  See the
   GNU Lesser General Public License for more details.
   
   Cite this work as:
   * C. Bannwarth, E. Caldeweyher, S. Ehlert, A. Hansen, P. Pracht,
     J. Seibert, S. Spicher, S. Grimme, WIREs Comput. Mol. Sci., 2020, 11,
     e01493. DOI: 10.1002/wcms.1493
   
   for GFN2-xTB:
   * C. Bannwarth, S. Ehlert and S. Grimme., J. Chem. Theory Comput., 2019,
     15, 1652-1671. DOI: 10.1021/acs.jctc.8b01176
   for GFN1-xTB:
   * S. Grimme, C. Bannwarth, P. Shushkov, J. Chem. Theory Comput., 2017,
     13, 1989-2009. DOI: 10.1021/acs.jctc.7b00118
   for GFN0-xTB:
   * P. Pracht, E. Caldeweyher, S. Ehlert, S. Grimme, ChemRxiv, 2019, preprint.
     DOI: 10.26434/chemrxiv.8326202.v1
   for GFN-FF:
   * S. Spicher and S. Grimme, Angew. Chem. Int. Ed., 2020, 59, 15665-15673.
     DOI: 10.1002/anie.202004239
   
   for ALPB and GBSA implicit solvation:
   * S. Ehlert, M. Stahn, S. Spicher, S. Grimme, J. Chem. Theory Comput.,
     2021, 17, 4250-4261. DOI: 10.1021/acs.jctc.1c00471
   
   for ddCOSMO and CPCM-X implicit solvation:
   * M. Stahn, S. Ehlert, S. Grimme, J. Phys. Chem. A,
     2023, XX, XXXX-XXXX. DOI: 10.1021/acs.jpca.3c04382
   
   for DFT-D4:
   * E. Caldeweyher, C. Bannwarth and S. Grimme, J. Chem. Phys., 2017,
     147, 034112. DOI: 10.1063/1.4993215
   * E. Caldeweyher, S. Ehlert, A. Hansen, H. Neugebauer, S. Spicher,
     C. Bannwarth and S. Grimme, J. Chem. Phys., 2019, 150, 154122.
     DOI: 10.1063/1.5090222
   * E. Caldeweyher, J.-M. Mewes, S. Ehlert and S. Grimme, Phys. Chem. Chem. Phys.
     2020, 22, 8499-8512. DOI: 10.1039/D0CP00502A
   
   for sTDA-xTB:
   * S. Grimme and C. Bannwarth, J. Chem. Phys., 2016, 145, 054103.
     DOI: 10.1063/1.4959605
   
   in the mass-spec context:
   * V. Asgeirsson, C. Bauer and S. Grimme, Chem. Sci., 2017, 8, 4879.
     DOI: 10.1039/c7sc00601b
   * J. Koopman and S. Grimme, ACS Omega 2019, 4, 12, 15120-15133.
     DOI: 10.1021/acsomega.9b02011
   
   for metadynamics refer to:
   * S. Grimme, J. Chem. Theory Comput., 2019, 155, 2847-2862
     DOI: 10.1021/acs.jctc.9b00143
   
   for SPH calculations refer to:
   * S. Spicher and S. Grimme, J. Chem. Theory Comput., 2021, 17, 1701-1714
     DOI: 10.1021/acs.jctc.0c01306
   
   for ONIOM refer to:
   * C. Plett, A. Katbashev, S. Ehlert, S. Grimme, M. Bursch,
     Phys. Chem. Chem. Phys., 2023, 25, 17860-17868. DOI: 10.1039/D3CP02178E
   
   for DIPRO refer to:
   * J. Kohn, N. Gildemeister, S. Grimme, D. Fazzi, A. Hansen,
     J. Chem. Phys., 2023, just accepted.
   
   for PTB refer to:
   * S. Grimme, M. Mueller, A. Hansen, J. Chem. Phys., 2023, 158, 124111.
     DOI: 10.1063/5.0137838
   
   with help from (in alphabetical order)
   P. Atkinson, C. Bannwarth, F. Bohle, G. Brandenburg, E. Caldeweyher
   M. Checinski, S. Dohm, S. Ehlert, S. Ehrlich, I. Gerasimov, C. Hölzer
   A. Katbashev, J. Kohn, J. Koopman, C. Lavigne, S. Lehtola, F. März, M. Müller,
   F. Musil, H. Neugebauer, J. Pisarek, C. Plett, P. Pracht, F. Pultar,
   J. Seibert, P. Shushkov, S. Spicher, M. Stahn, M. Steiner, T. Strunk,
   J. Stückrath, T. Rose, and J. Unsleber
   
 * started run on 2025/09/04 at 03:27:40.984     
   ID    Z sym.   atoms
    1    8 O      1
    2    6 C      2-4, 6, 8-11, 13-27, 29-40
    3    7 N      5, 7, 12, 28
    4    1 H      41-62

           -------------------------------------------------
          |                Calculation Setup                |
           -------------------------------------------------

          program call               : xtb data2507/gas/25CzBPym/25CzBPym.xyz --gfn 2 --ohess vtight --parallel 40 --molden --ceasefiles --namespace data2507/gas/25CzBPym/25CzBPym_gas_S0_preOpt
          calculation namespace      : data2507/gas/25CzBPym/25CzBPym_gas_S0_preOpt
          coordinate file            : data2507/gas/25CzBPym/25CzBPym.xyz
          omp threads                :                    40


           -------------------------------------------------
          |                 G F N 2 - x T B                 |
           -------------------------------------------------

        Reference                      10.1021/acs.jctc.8b01176
      * Hamiltonian:
        H0-scaling (s, p, d)           1.850000    2.230000    2.230000
        zeta-weighting                 0.500000
      * Dispersion:
        s8                             2.700000
        a1                             0.520000
        a2                             5.000000
        s9                             5.000000
      * Repulsion:
        kExp                           1.500000    1.000000
        rExp                           1.000000
      * Coulomb:
        alpha                          2.000000
        third order                    shell-resolved
        anisotropic                    true
        a3                             3.000000
        a5                             4.000000
        cn-shift                       1.200000
        cn-exp                         4.000000
        max-rad                        5.000000


          ...................................................
          :                      SETUP                      :
          :.................................................:
          :  # basis functions                 182          :
          :  # atomic orbitals                 182          :
          :  # shells                          102          :
          :  # electrons                       188          :
          :  max. iterations                   250          :
          :  Hamiltonian                  GFN2-xTB          :
          :  restarted?                      false          :
          :  GBSA solvation                  false          :
          :  PC potential                    false          :
          :  electronic temp.          300.0000000     K    :
          :  accuracy                    1.0000000          :
          :  -> integral cutoff          0.2500000E+02      :
          :  -> integral neglect         0.1000000E-07      :
          :  -> SCF convergence          0.1000000E-05 Eh   :
          :  -> wf. convergence          0.1000000E-03 e    :
          :  Broyden damping             0.4000000          :
          :  net charge                          0          :
          :  unpaired electrons                  0          :
          ...................................................

 iter      E             dE          RMSdq      gap      omega  full diag
   1   -103.5417392 -0.103542E+03  0.440E+00    1.92       0.0  T
   2   -103.6374763 -0.957372E-01  0.269E+00    1.74       1.0  T
   3   -103.6167408  0.207356E-01  0.123E+00    1.46       1.0  T
   4   -103.6538357 -0.370949E-01  0.302E-01    1.18       1.0  T
   5   -103.6590002 -0.516448E-02  0.113E-01    1.25       1.0  T
   6   -103.6595701 -0.569857E-03  0.468E-02    1.25       1.0  T
   7   -103.6596533 -0.832714E-04  0.182E-02    1.27       1.0  T
   8   -103.6596551 -0.171919E-05  0.856E-03    1.27       1.5  T
   9   -103.6596566 -0.154667E-05  0.217E-03    1.28       5.9  T
  10   -103.6596567 -0.589670E-07  0.108E-03    1.27      11.8  T
  11   -103.6596567 -0.639623E-07  0.405E-04    1.27      31.4  T
  12   -103.6596567 -0.221671E-08  0.189E-04    1.27      67.1  T

   *** convergence criteria satisfied after 12 iterations ***

         #    Occupation            Energy/Eh            Energy/eV
      -------------------------------------------------------------
         1        2.0000           -0.7287910             -19.8314
       ...           ...                  ...                  ...
        88        2.0000           -0.4092156             -11.1353
        89        2.0000           -0.4039856             -10.9930
        90        2.0000           -0.3898245             -10.6077
        91        2.0000           -0.3861796             -10.5085
        92        2.0000           -0.3808913             -10.3646
        93        2.0000           -0.3737423             -10.1700
        94        2.0000           -0.3654182              -9.9435 (HOMO)
        95                         -0.3185879              -8.6692 (LUMO)
        96                         -0.2968985              -8.0790
        97                         -0.2660474              -7.2395
        98                         -0.2615248              -7.1165
        99                         -0.2541416              -6.9155
       ...                                ...                  ...
       182                          0.7175817              19.5264
      -------------------------------------------------------------
                  HL-Gap            0.0468303 Eh            1.2743 eV
             Fermi-level           -0.3420031 Eh           -9.3064 eV

 SCC (total)                   0 d,  0 h,  0 min,  0.180 sec
 SCC setup                      ...        0 min,  0.001 sec (  0.316%)
 Dispersion                     ...        0 min,  0.004 sec (  2.383%)
 classical contributions        ...        0 min,  0.000 sec (  0.208%)
 integral evaluation            ...        0 min,  0.006 sec (  3.566%)
 iterations                     ...        0 min,  0.157 sec ( 87.232%)
 molecular gradient             ...        0 min,  0.010 sec (  5.750%)
 printout                       ...        0 min,  0.001 sec (  0.493%)

         :::::::::::::::::::::::::::::::::::::::::::::::::::::
         ::                     SUMMARY                     ::
         :::::::::::::::::::::::::::::::::::::::::::::::::::::
         :: total energy            -101.950429322898 Eh    ::
         :: gradient norm              0.131147042281 Eh/a0 ::
         :: HOMO-LUMO gap              1.274317369018 eV    ::
         ::.................................................::
         :: SCC energy              -103.658800970090 Eh    ::
         :: -> isotropic ES            0.046160120795 Eh    ::
         :: -> anisotropic ES          0.009893443546 Eh    ::
         :: -> anisotropic XC          0.065061105871 Eh    ::
         :: -> dispersion             -0.087350210891 Eh    ::
         :: repulsion energy           1.708371647191 Eh    ::
         :: add. restraining           0.000000000000 Eh    ::
         :: total charge              -0.000000000000 e     ::
         :::::::::::::::::::::::::::::::::::::::::::::::::::::

      ----------------------------------------------------------- 
     |                   =====================                   |
     |                        A N C O P T                        |
     |                   =====================                   |
     |               Approximate Normal Coordinate               |
     |                Rational Function Optimizer                |
      ----------------------------------------------------------- 

Optimization log is written to '/dev/null'
      ----------------------------------------------------------- 
     |                   =====================                   |
     |                        A N C O P T                        |
     |                   =====================                   |
     |               Approximate Normal Coordinate               |
     |                Rational Function Optimizer                |
      ----------------------------------------------------------- 

          ...................................................
          :                      SETUP                      :
          :.................................................:
          :   optimization level         verytight          :
          :   max. optcycles                  1240          :
          :   ANC micro-cycles                  20          :
          :   degrees of freedom               180          :
          :.................................................:
          :   RF solver                   davidson          :
          :   write xtbopt.log                true          :
          :   linear?                        false          :
          :   energy convergence         0.1000000E-06 Eh   :
          :   grad. convergence          0.2000000E-03 Eh/α :
          :   maxmium RF displ.          1.0000000          :
          :   Hlow (freq-cutoff)         0.1000000E-01      :
          :   Hmax (freq-cutoff)         5.0000000          :
          :   S6 in model hess.         20.0000000          :
          ...................................................

generating ANC from exact Hessian ...
Using Lindh-Hessian (1995)
 Shifting diagonal of input Hessian by   9.838076136874908E-003
 Lowest  eigenvalues of input Hessian
    0.000000    0.000000    0.000000    0.000000    0.000000    0.000000
    0.010000    0.010060    0.010179    0.010255    0.010397    0.011178
    0.011612    0.011760    0.012499    0.012789    0.013156    0.013432
 Highest eigenvalues
    2.089679    2.094735    2.101366    2.114120    2.119487    2.180896
 

........................................................................
.............................. CYCLE    1 ..............................
........................................................................

 iter      E             dE          RMSdq      gap      omega  full diag
   1   -103.6596567 -0.103660E+03  0.775E-05    1.27       0.0  T
   2   -103.6596567 -0.603251E-10  0.507E-05    1.27     250.6  T
   3   -103.6596567 -0.495390E-10  0.353E-05    1.27     359.9  T
     SCC iter.                  ...        0 min,  0.024 sec
     gradient                   ...        0 min,  0.008 sec
 * total energy  :  -101.9504293 Eh     change       -0.7017320E-09 Eh
   gradient norm :     0.1311476 Eh/α   predicted     0.0000000E+00 (-100.00%)
   displ. norm   :     0.3487532 α      lambda       -0.2184205E-01
   maximum displ.:     0.2467807 α      in ANC's #39, #67, #17, ...

........................................................................
.............................. CYCLE    2 ..............................
........................................................................

 iter      E             dE          RMSdq      gap      omega  full diag
   1   -103.7395990 -0.103740E+03  0.198E-01    1.32       0.0  T
   2   -103.7396966 -0.975158E-04  0.124E-01    1.33       1.0  T
   3   -103.7395704  0.126201E-03  0.573E-02    1.31       1.0  T
   4   -103.7397554 -0.185080E-03  0.958E-03    1.32       1.3  T
   5   -103.7397599 -0.446137E-05  0.398E-03    1.32       3.2  T
   6   -103.7397601 -0.237401E-06  0.188E-03    1.32       6.7  T
   7   -103.7397602 -0.889467E-07  0.592E-04    1.32      21.4  T
   8   -103.7397602 -0.181791E-07  0.225E-04    1.32      56.5  T
     SCC iter.                  ...        0 min,  0.053 sec
     gradient                   ...        0 min,  0.008 sec
 * total energy  :  -101.9653935 Eh     change       -0.1496420E-01 Eh
   gradient norm :     0.0470583 Eh/α   predicted    -0.1225878E-01 ( -18.08%)
   displ. norm   :     0.3165478 α      lambda       -0.5607701E-02
   maximum displ.:     0.1819396 α      in ANC's #39, #14, #17, ...

........................................................................
.............................. CYCLE    3 ..............................
........................................................................

 iter      E             dE          RMSdq      gap      omega  full diag
   1   -103.7803833 -0.103780E+03  0.138E-01    1.33       0.0  T
   2   -103.7804422 -0.589113E-04  0.845E-02    1.34       1.0  T
   3   -103.7803831  0.591140E-04  0.419E-02    1.33       1.0  T
   4   -103.7804752 -0.920708E-04  0.635E-03    1.34       2.0  T
   5   -103.7804772 -0.199502E-05  0.241E-03    1.34       5.3  T
   6   -103.7804773 -0.123904E-06  0.126E-03    1.34      10.1  T
   7   -103.7804773 -0.268488E-07  0.390E-04    1.34      32.6  T
   8   -103.7804773 -0.790880E-08  0.164E-04    1.34      77.4  T
     SCC iter.                  ...        0 min,  0.053 sec
     gradient                   ...        0 min,  0.008 sec
 * total energy  :  -101.9686711 Eh     change       -0.3277618E-02 Eh
   gradient norm :     0.0097877 Eh/α   predicted    -0.3085427E-02 (  -5.86%)
   displ. norm   :     0.2388092 α      lambda       -0.9277253E-03
   maximum displ.:     0.1236168 α      in ANC's #14, #17, #12, ...

........................................................................
.............................. CYCLE    4 ..............................
........................................................................

 iter      E             dE          RMSdq      gap      omega  full diag
   1   -103.7851615 -0.103785E+03  0.685E-02    1.32       0.0  T
   2   -103.7851710 -0.946164E-05  0.414E-02    1.33       1.0  T
   3   -103.7851521  0.188344E-04  0.184E-02    1.33       1.0  T
   4   -103.7851759 -0.237723E-04  0.242E-03    1.33       5.3  T
   5   -103.7851762 -0.329136E-06  0.925E-04    1.33      13.7  T
   6   -103.7851763 -0.236859E-07  0.509E-04    1.33      25.0  T
     SCC iter.                  ...        0 min,  0.040 sec
     gradient                   ...        0 min,  0.007 sec
 * total energy  :  -101.9693914 Eh     change       -0.7202685E-03 Eh
   gradient norm :     0.0078857 Eh/α   predicted    -0.4903180E-03 ( -31.93%)
   displ. norm   :     0.3779746 α      lambda       -0.9357876E-03
   maximum displ.:     0.2009015 α      in ANC's #14, #12, #17, ...

........................................................................
.............................. CYCLE    5 ..............................
........................................................................

 iter      E             dE          RMSdq      gap      omega  full diag
   1   -103.7855501 -0.103786E+03  0.105E-01    1.31       0.0  T
   2   -103.7855627 -0.126721E-04  0.626E-02    1.32       1.0  T
   3   -103.7855228  0.399703E-04  0.252E-02    1.32       1.0  T
   4   -103.7855700 -0.472331E-04  0.316E-03    1.32       4.0  T
   5   -103.7855706 -0.553415E-06  0.147E-03    1.32       8.6  T
   6   -103.7855706 -0.796330E-07  0.762E-04    1.32      16.7  T
   7   -103.7855706 -0.107780E-07  0.307E-04    1.32      41.4  T
     SCC iter.                  ...        0 min,  0.046 sec
     gradient                   ...        0 min,  0.008 sec
 * total energy  :  -101.9700100 Eh     change       -0.6186223E-03 Eh
   gradient norm :     0.0065944 Eh/α   predicted    -0.5347847E-03 ( -13.55%)
   displ. norm   :     0.2405653 α      lambda       -0.3093855E-03
   maximum displ.:     0.1190355 α      in ANC's #14, #3, #10, ...

........................................................................
.............................. CYCLE    6 ..............................
........................................................................

 iter      E             dE          RMSdq      gap      omega  full diag
   1   -103.7857425 -0.103786E+03  0.682E-02    1.31       0.0  T
   2   -103.7857449 -0.238732E-05  0.401E-02    1.32       1.0  T
   3   -103.7857318  0.131644E-04  0.140E-02    1.32       1.0  T
   4   -103.7857469 -0.150857E-04  0.162E-03    1.32       7.9  T
   5   -103.7857470 -0.116710E-06  0.873E-04    1.32      14.5  T
   6   -103.7857470 -0.230641E-07  0.418E-04    1.32      30.4  T
     SCC iter.                  ...        0 min,  0.040 sec
     gradient                   ...        0 min,  0.008 sec
 * total energy  :  -101.9702312 Eh     change       -0.2212183E-03 Eh
   gradient norm :     0.0054740 Eh/α   predicted    -0.1636507E-03 ( -26.02%)
   displ. norm   :     0.2206258 α      lambda       -0.2195719E-03
   maximum displ.:     0.0986208 α      in ANC's #3, #7, #14, ...

........................................................................
.............................. CYCLE    7 ..............................
........................................................................

 iter      E             dE          RMSdq      gap      omega  full diag
   1   -103.7862027 -0.103786E+03  0.655E-02    1.32       0.0  T
   2   -103.7862041 -0.142000E-05  0.383E-02    1.32       1.0  T
   3   -103.7861944  0.975234E-05  0.119E-02    1.32       1.1  T
   4   -103.7862054 -0.110764E-04  0.133E-03    1.32       9.5  T
   5   -103.7862055 -0.661622E-07  0.760E-04    1.32      16.7  T
   6   -103.7862055 -0.153632E-07  0.331E-04    1.32      38.4  T
     SCC iter.                  ...        0 min,  0.040 sec
     gradient                   ...        0 min,  0.008 sec
 * total energy  :  -101.9703916 Eh     change       -0.1603029E-03 Eh
   gradient norm :     0.0035909 Eh/α   predicted    -0.1152260E-03 ( -28.12%)
   displ. norm   :     0.2185044 α      lambda       -0.1670704E-03
   maximum displ.:     0.1121333 α      in ANC's #3, #7, #10, ...

........................................................................
.............................. CYCLE    8 ..............................
........................................................................

 iter      E             dE          RMSdq      gap      omega  full diag
   1   -103.7865034 -0.103787E+03  0.629E-02    1.32       0.0  T
   2   -103.7865046 -0.119264E-05  0.368E-02    1.33       1.0  T
   3   -103.7864978  0.680425E-05  0.995E-03    1.33       1.3  T
   4   -103.7865056 -0.775308E-05  0.118E-03    1.33      10.8  T
   5   -103.7865056 -0.488723E-07  0.684E-04    1.33      18.6  T
   6   -103.7865056 -0.124853E-07  0.306E-04    1.33      41.5  T
     SCC iter.                  ...        0 min,  0.040 sec
     gradient                   ...        0 min,  0.008 sec
 * total energy  :  -101.9705157 Eh     change       -0.1241861E-03 Eh
   gradient norm :     0.0031547 Eh/α   predicted    -0.8753453E-04 ( -29.51%)
   displ. norm   :     0.2191894 α      lambda       -0.1332632E-03
   maximum displ.:     0.1197436 α      in ANC's #3, #7, #10, ...

........................................................................
.............................. CYCLE    9 ..............................
........................................................................

 iter      E             dE          RMSdq      gap      omega  full diag
   1   -103.7865090 -0.103787E+03  0.575E-02    1.33       0.0  T
   2   -103.7865100 -0.101208E-05  0.336E-02    1.33       1.0  T
   3   -103.7865053  0.467233E-05  0.835E-03    1.33       1.5  T
   4   -103.7865107 -0.538342E-05  0.107E-03    1.33      11.9  T
   5   -103.7865107 -0.334385E-07  0.624E-04    1.33      20.4  T
   6   -103.7865107 -0.107871E-07  0.261E-04    1.33      48.7  T
     SCC iter.                  ...        0 min,  0.040 sec
     gradient                   ...        0 min,  0.008 sec
 * total energy  :  -101.9706186 Eh     change       -0.1028764E-03 Eh
   gradient norm :     0.0034947 Eh/α   predicted    -0.6986243E-04 ( -32.09%)
   displ. norm   :     0.2265994 α      lambda       -0.1181063E-03
   maximum displ.:     0.1282801 α      in ANC's #3, #7, #1, ...

........................................................................
.............................. CYCLE   10 ..............................
........................................................................

 iter      E             dE          RMSdq      gap      omega  full diag
   1   -103.7863955 -0.103786E+03  0.523E-02    1.33       0.0  T
   2   -103.7863965 -0.101048E-05  0.305E-02    1.33       1.0  T
   3   -103.7863928  0.375438E-05  0.757E-03    1.33       1.7  T
   4   -103.7863972 -0.439671E-05  0.103E-03    1.34      12.3  T
   5   -103.7863972 -0.238796E-07  0.592E-04    1.34      21.5  T
   6   -103.7863972 -0.101165E-07  0.233E-04    1.34      54.6  T
     SCC iter.                  ...        0 min,  0.040 sec
     gradient                   ...        0 min,  0.007 sec
 * total energy  :  -101.9707097 Eh     change       -0.9110660E-04 Eh
   gradient norm :     0.0031134 Eh/α   predicted    -0.6208594E-04 ( -31.85%)
   displ. norm   :     0.2220266 α      lambda       -0.9573328E-04
   maximum displ.:     0.1304063 α      in ANC's #3, #7, #1, ...

........................................................................
.............................. CYCLE   11 ..............................
........................................................................

 iter      E             dE          RMSdq      gap      omega  full diag
   1   -103.7861920 -0.103786E+03  0.466E-02    1.33       0.0  T
   2   -103.7861928 -0.876451E-06  0.272E-02    1.34       1.0  T
   3   -103.7861900  0.287998E-05  0.682E-03    1.34       1.9  T
   4   -103.7861934 -0.342340E-05  0.978E-04    1.34      13.0  T
   5   -103.7861934 -0.138586E-07  0.554E-04    1.34      22.9  T
   6   -103.7861934 -0.100986E-07  0.194E-04    1.34      65.4  T
     SCC iter.                  ...        0 min,  0.040 sec
     gradient                   ...        0 min,  0.008 sec
 * total energy  :  -101.9707823 Eh     change       -0.7256699E-04 Eh
   gradient norm :     0.0022598 Eh/α   predicted    -0.5022733E-04 ( -30.78%)
   displ. norm   :     0.1914280 α      lambda       -0.6959563E-04
   maximum displ.:     0.1159085 α      in ANC's #3, #7, #1, ...

........................................................................
.............................. CYCLE   12 ..............................
........................................................................

 iter      E             dE          RMSdq      gap      omega  full diag
   1   -103.7862880 -0.103786E+03  0.376E-02    1.34       0.0  T
   2   -103.7862887 -0.653063E-06  0.219E-02    1.34       1.0  T
   3   -103.7862873  0.136574E-05  0.483E-03    1.34       2.6  T
   4   -103.7862890 -0.169011E-05  0.825E-04    1.34      15.4  T
   5   -103.7862890 -0.103175E-07  0.442E-04    1.34      28.7  T
   6   -103.7862890 -0.489706E-08  0.165E-04    1.34      77.2  T
     SCC iter.                  ...        0 min,  0.040 sec
     gradient                   ...        0 min,  0.008 sec
 * total energy  :  -101.9708351 Eh     change       -0.5281070E-04 Eh
   gradient norm :     0.0023767 Eh/α   predicted    -0.3607338E-04 ( -31.69%)
   displ. norm   :     0.1730055 α      lambda       -0.5624110E-04
   maximum displ.:     0.1073110 α      in ANC's #3, #7, #1, ...

........................................................................
.............................. CYCLE   13 ..............................
........................................................................

 iter      E             dE          RMSdq      gap      omega  full diag
   1   -103.7861610 -0.103786E+03  0.362E-02    1.34       0.0  T
   2   -103.7861616 -0.601723E-06  0.211E-02    1.34       1.0  T
   3   -103.7861607  0.943673E-06  0.430E-03    1.34       3.0  T
   4   -103.7861619 -0.118606E-05  0.777E-04    1.34      16.3  T
   5   -103.7861619 -0.107587E-07  0.379E-04    1.34      33.5  T
   6   -103.7861619 -0.286552E-08  0.174E-04    1.34      72.9  T
     SCC iter.                  ...        0 min,  0.041 sec
     gradient                   ...        0 min,  0.008 sec
 * total energy  :  -101.9708779 Eh     change       -0.4283193E-04 Eh
   gradient norm :     0.0020269 Eh/α   predicted    -0.2896689E-04 ( -32.37%)
   displ. norm   :     0.1761183 α      lambda       -0.5476333E-04
   maximum displ.:     0.1057638 α      in ANC's #3, #1, #8, ...

........................................................................
.............................. CYCLE   14 ..............................
........................................................................

 iter      E             dE          RMSdq      gap      omega  full diag
   1   -103.7865306 -0.103787E+03  0.416E-02    1.35       0.0  T
   2   -103.7865312 -0.675815E-06  0.243E-02    1.35       1.0  T
   3   -103.7865304  0.879658E-06  0.384E-03    1.35       3.3  T
   4   -103.7865315 -0.115233E-05  0.838E-04    1.35      15.2  T
   5   -103.7865315 -0.104911E-07  0.426E-04    1.35      29.8  T
   6   -103.7865315 -0.317574E-08  0.143E-04    1.35      88.7  T
     SCC iter.                  ...        0 min,  0.040 sec
     gradient                   ...        0 min,  0.008 sec
 * total energy  :  -101.9709173 Eh     change       -0.3941405E-04 Eh
   gradient norm :     0.0029112 Eh/α   predicted    -0.2823184E-04 ( -28.37%)
   displ. norm   :     0.1703466 α      lambda       -0.4877470E-04
   maximum displ.:     0.1046685 α      in ANC's #3, #1, #8, ...

........................................................................
.............................. CYCLE   15 ..............................
........................................................................

 iter      E             dE          RMSdq      gap      omega  full diag
   1   -103.7861403 -0.103786E+03  0.390E-02    1.34       0.0  T
   2   -103.7861411 -0.767034E-06  0.228E-02    1.35       1.0  T
   3   -103.7861405  0.591252E-06  0.350E-03    1.35       3.6  T
   4   -103.7861413 -0.790280E-06  0.862E-04    1.35      14.7  T
   5   -103.7861413 -0.251540E-07  0.377E-04    1.35      33.7  T
     SCC iter.                  ...        0 min,  0.038 sec
     gradient                   ...        0 min,  0.008 sec
 * total energy  :  -101.9709529 Eh     change       -0.3559302E-04 Eh
   gradient norm :     0.0020888 Eh/α   predicted    -0.2509593E-04 ( -29.49%)
   displ. norm   :     0.1553254 α      lambda       -0.4017117E-04
   maximum displ.:     0.0928704 α      in ANC's #3, #1, #8, ...

........................................................................
.............................. CYCLE   16 ..............................
........................................................................

 iter      E             dE          RMSdq      gap      omega  full diag
   1   -103.7862938 -0.103786E+03  0.355E-02    1.35       0.0  T
   2   -103.7862941 -0.326597E-06  0.208E-02    1.35       1.0  T
   3   -103.7862937  0.396534E-06  0.263E-03    1.35       4.8  T
   4   -103.7862943 -0.549218E-06  0.693E-04    1.35      18.3  T
   5   -103.7862943 -0.257465E-08  0.331E-04    1.35      38.3  T
     SCC iter.                  ...        0 min,  0.031 sec
     gradient                   ...        0 min,  0.008 sec
 * total energy  :  -101.9709838 Eh     change       -0.3089569E-04 Eh
   gradient norm :     0.0015918 Eh/α   predicted    -0.2057109E-04 ( -33.42%)
   displ. norm   :     0.2561817 α      lambda       -0.3940459E-04
   maximum displ.:     0.1538445 α      in ANC's #3, #1, #8, ...

........................................................................
.............................. CYCLE   17 ..............................
........................................................................

 iter      E             dE          RMSdq      gap      omega  full diag
   1   -103.7863878 -0.103786E+03  0.525E-02    1.35       0.0  T
   2   -103.7863887 -0.884218E-06  0.305E-02    1.35       1.0  T
   3   -103.7863875  0.118715E-05  0.450E-03    1.35       2.8  T
   4   -103.7863891 -0.162037E-05  0.110E-03    1.35      11.6  T
   5   -103.7863891 -0.843592E-08  0.519E-04    1.35      24.5  T
   6   -103.7863891 -0.896661E-08  0.149E-04    1.35      85.0  T
     SCC iter.                  ...        0 min,  0.036 sec
     gradient                   ...        0 min,  0.008 sec
 * total energy  :  -101.9710199 Eh     change       -0.3602358E-04 Eh
   gradient norm :     0.0021215 Eh/α   predicted    -0.2028113E-04 ( -43.70%)
   displ. norm   :     0.0942700 α      lambda       -0.2202458E-04
   maximum displ.:     0.0580702 α      in ANC's #3, #1, #4, ...

........................................................................
.............................. CYCLE   18 ..............................
........................................................................

 iter      E             dE          RMSdq      gap      omega  full diag
   1   -103.7867279 -0.103787E+03  0.176E-02    1.35       0.0  T
   2   -103.7867281 -0.146694E-06  0.103E-02    1.35       1.2  T
   3   -103.7867279  0.176651E-06  0.167E-03    1.35       7.6  T
   4   -103.7867281 -0.220348E-06  0.462E-04    1.35      27.5  T
   5   -103.7867281 -0.869009E-08  0.217E-04    1.35      58.5  T
     SCC iter.                  ...        0 min,  0.030 sec
     gradient                   ...        0 min,  0.008 sec
 * total energy  :  -101.9710379 Eh     change       -0.1801875E-04 Eh
   gradient norm :     0.0017154 Eh/α   predicted    -0.1111420E-04 ( -38.32%)
   displ. norm   :     0.2532907 α      lambda       -0.3907313E-04
   maximum displ.:     0.1515757 α      in ANC's #3, #1, #4, ...

........................................................................
.............................. CYCLE   19 ..............................
........................................................................

 iter      E             dE          RMSdq      gap      omega  full diag
   1   -103.7873648 -0.103787E+03  0.475E-02    1.36       0.0  T
   2   -103.7873658 -0.105885E-05  0.277E-02    1.36       1.0  T
   3   -103.7873650  0.871376E-06  0.407E-03    1.36       3.1  T
   4   -103.7873661 -0.114747E-05  0.111E-03    1.36      11.4  T
   5   -103.7873662 -0.471987E-07  0.532E-04    1.36      23.9  T
   6   -103.7873662 -0.443045E-08  0.218E-04    1.36      58.2  T
     SCC iter.                  ...        0 min,  0.036 sec
     gradient                   ...        0 min,  0.008 sec
 * total energy  :  -101.9710778 Eh     change       -0.3987877E-04 Eh
   gradient norm :     0.0015494 Eh/α   predicted    -0.2009473E-04 ( -49.61%)
   displ. norm   :     0.2144814 α      lambda       -0.2364973E-04
   maximum displ.:     0.1284052 α      in ANC's #3, #1, #4, ...

........................................................................
.............................. CYCLE   20 ..............................
........................................................................

 iter      E             dE          RMSdq      gap      omega  full diag
   1   -103.7869878 -0.103787E+03  0.369E-02    1.36       0.0  T
   2   -103.7869883 -0.525569E-06  0.215E-02    1.36       1.0  T
   3   -103.7869879  0.435356E-06  0.292E-03    1.36       4.3  T
   4   -103.7869885 -0.618836E-06  0.824E-04    1.36      15.4  T
   5   -103.7869885 -0.137641E-07  0.391E-04    1.36      32.5  T
     SCC iter.                  ...        0 min,  0.030 sec
     gradient                   ...        0 min,  0.008 sec
 * total energy  :  -101.9711069 Eh     change       -0.2916220E-04 Eh
   gradient norm :     0.0016104 Eh/α   predicted    -0.1206790E-04 ( -58.62%)
   displ. norm   :     0.3099967 α      lambda       -0.3322003E-04
   maximum displ.:     0.1805674 α      in ANC's #3, #1, #4, ...
 * RMSD in coord.:     0.4032432 α      energy gain  -0.2067759E-01 Eh

generating ANC from exact Hessian ...
Using Lindh-Hessian (1995)
 Shifting diagonal of input Hessian by   9.827614614136032E-003
 Lowest  eigenvalues of input Hessian
    0.000000    0.000000    0.000000    0.000000    0.000000    0.000000
    0.010000    0.010075    0.010215    0.010290    0.010454    0.011316
    0.011763    0.011931    0.012574    0.013012    0.013424    0.013672
 Highest eigenvalues
    2.183382    2.185221    2.191186    2.209615    2.225391    2.263901
 

........................................................................
.............................. CYCLE   21 ..............................
........................................................................

 iter      E             dE          RMSdq      gap      omega  full diag
   1   -103.7868797 -0.103787E+03  0.512E-02    1.36       0.0  T
   2   -103.7868806 -0.914441E-06  0.298E-02    1.36       1.0  T
   3   -103.7868799  0.713148E-06  0.376E-03    1.36       3.4  T
   4   -103.7868810 -0.104659E-05  0.109E-03    1.36      11.6  T
   5   -103.7868810 -0.198800E-07  0.499E-04    1.36      25.5  T
   6   -103.7868810 -0.536480E-08  0.160E-04    1.36      79.2  T
     SCC iter.                  ...        0 min,  0.036 sec
     gradient                   ...        0 min,  0.008 sec
 * total energy  :  -101.9711438 Eh     change       -0.3690328E-04 Eh
   gradient norm :     0.0014359 Eh/α   predicted     0.0000000E+00 (-100.00%)
   displ. norm   :     0.0278441 α      lambda       -0.4579083E-05
   maximum displ.:     0.0111050 α      in ANC's #7, #17, #4, ...

........................................................................
.............................. CYCLE   22 ..............................
........................................................................

 iter      E             dE          RMSdq      gap      omega  full diag
   1   -103.7870186 -0.103787E+03  0.804E-03    1.36       0.0  T
   2   -103.7870186 -0.304988E-07  0.473E-03    1.36       2.7  T
   3   -103.7870185  0.896121E-07  0.116E-03    1.36      10.9  T
   4   -103.7870186 -0.103241E-06  0.195E-04    1.36      65.2  T
   5   -103.7870186 -0.218400E-08  0.902E-05    1.36     140.8  T
     SCC iter.                  ...        0 min,  0.030 sec
     gradient                   ...        0 min,  0.008 sec
 * total energy  :  -101.9711521 Eh     change       -0.8236158E-05 Eh
   gradient norm :     0.0006057 Eh/α   predicted    -0.3544347E-05 ( -56.97%)
   displ. norm   :     0.0685670 α      lambda       -0.9923647E-05
   maximum displ.:     0.0313282 α      in ANC's #7, #4, #8, ...

........................................................................
.............................. CYCLE   23 ..............................
........................................................................

 iter      E             dE          RMSdq      gap      omega  full diag
   1   -103.7869461 -0.103787E+03  0.169E-02    1.36       0.0  T
   2   -103.7869462 -0.118546E-06  0.990E-03    1.36       1.3  T
   3   -103.7869460  0.242229E-06  0.191E-03    1.36       6.6  T
   4   -103.7869463 -0.280210E-06  0.355E-04    1.36      35.8  T
   5   -103.7869463 -0.720581E-08  0.163E-04    1.36      77.9  T
     SCC iter.                  ...        0 min,  0.030 sec
     gradient                   ...        0 min,  0.008 sec
 * total energy  :  -101.9711611 Eh     change       -0.9034829E-05 Eh
   gradient norm :     0.0008984 Eh/α   predicted    -0.4972319E-05 ( -44.96%)
   displ. norm   :     0.0506643 α      lambda       -0.4149625E-05
   maximum displ.:     0.0256868 α      in ANC's #7, #4, #6, ...

........................................................................
.............................. CYCLE   24 ..............................
........................................................................

 iter      E             dE          RMSdq      gap      omega  full diag
   1   -103.7869458 -0.103787E+03  0.108E-02    1.36       0.0  T
   2   -103.7869459 -0.423820E-07  0.635E-03    1.36       2.0  T
   3   -103.7869457  0.127733E-06  0.138E-03    1.36       9.2  T
   4   -103.7869459 -0.148669E-06  0.202E-04    1.36      62.8  T
   5   -103.7869459 -0.137700E-08  0.108E-04    1.36     117.7  T
     SCC iter.                  ...        0 min,  0.030 sec
     gradient                   ...        0 min,  0.008 sec
 * total energy  :  -101.9711657 Eh     change       -0.4565687E-05 Eh
   gradient norm :     0.0009017 Eh/α   predicted    -0.2077573E-05 ( -54.50%)
   displ. norm   :     0.0753172 α      lambda       -0.5608038E-05
   maximum displ.:     0.0371676 α      in ANC's #7, #4, #6, ...

........................................................................
.............................. CYCLE   25 ..............................
........................................................................

 iter      E             dE          RMSdq      gap      omega  full diag
   1   -103.7869920 -0.103787E+03  0.146E-02    1.36       0.0  T
   2   -103.7869921 -0.723771E-07  0.853E-03    1.36       1.5  T
   3   -103.7869919  0.197998E-06  0.173E-03    1.36       7.3  T
   4   -103.7869922 -0.231135E-06  0.277E-04    1.36      45.9  T
   5   -103.7869922 -0.297892E-08  0.142E-04    1.36      89.5  T
     SCC iter.                  ...        0 min,  0.030 sec
     gradient                   ...        0 min,  0.008 sec
 * total energy  :  -101.9711723 Eh     change       -0.6657221E-05 Eh
   gradient norm :     0.0005927 Eh/α   predicted    -0.2813640E-05 ( -57.74%)
   displ. norm   :     0.1037871 α      lambda       -0.6714426E-05
   maximum displ.:     0.0527981 α      in ANC's #4, #7, #6, ...

........................................................................
.............................. CYCLE   26 ..............................
........................................................................

 iter      E             dE          RMSdq      gap      omega  full diag
   1   -103.7869088 -0.103787E+03  0.188E-02    1.36       0.0  T
   2   -103.7869090 -0.139353E-06  0.110E-02    1.36       1.2  T
   3   -103.7869086  0.326405E-06  0.231E-03    1.36       5.5  T
   4   -103.7869090 -0.388502E-06  0.375E-04    1.36      33.8  T
   5   -103.7869090 -0.438108E-08  0.196E-04    1.36      64.7  T
     SCC iter.                  ...        0 min,  0.030 sec
     gradient                   ...        0 min,  0.008 sec
 * total energy  :  -101.9711796 Eh     change       -0.7254139E-05 Eh
   gradient norm :     0.0005618 Eh/α   predicted    -0.3376391E-05 ( -53.46%)
   displ. norm   :     0.0925238 α      lambda       -0.4491893E-05
   maximum displ.:     0.0494179 α      in ANC's #4, #7, #3, ...

........................................................................
.............................. CYCLE   27 ..............................
........................................................................

 iter      E             dE          RMSdq      gap      omega  full diag
   1   -103.7868770 -0.103787E+03  0.166E-02    1.36       0.0  T
   2   -103.7868771 -0.976723E-07  0.969E-03    1.36       1.3  T
   3   -103.7868770  0.165971E-06  0.168E-03    1.36       7.5  T
   4   -103.7868772 -0.204942E-06  0.336E-04    1.36      37.8  T
   5   -103.7868772 -0.277001E-08  0.172E-04    1.36      73.8  T
     SCC iter.                  ...        0 min,  0.030 sec
     gradient                   ...        0 min,  0.008 sec
 * total energy  :  -101.9711844 Eh     change       -0.4801036E-05 Eh
   gradient norm :     0.0006635 Eh/α   predicted    -0.2255147E-05 ( -53.03%)
   displ. norm   :     0.0775361 α      lambda       -0.3751304E-05
   maximum displ.:     0.0429107 α      in ANC's #4, #3, #5, ...

........................................................................
.............................. CYCLE   28 ..............................
........................................................................

 iter      E             dE          RMSdq      gap      omega  full diag
   1   -103.7869160 -0.103787E+03  0.139E-02    1.36       0.0  T
   2   -103.7869161 -0.818350E-07  0.811E-03    1.36       1.6  T
   3   -103.7869160  0.104796E-06  0.140E-03    1.36       9.1  T
   4   -103.7869161 -0.137167E-06  0.305E-04    1.36      41.6  T
   5   -103.7869161 -0.174207E-08  0.160E-04    1.36      79.5  T
     SCC iter.                  ...        0 min,  0.030 sec
     gradient                   ...        0 min,  0.008 sec
 * total energy  :  -101.9711886 Eh     change       -0.4251497E-05 Eh
   gradient norm :     0.0004989 Eh/α   predicted    -0.1881805E-05 ( -55.74%)
   displ. norm   :     0.0792231 α      lambda       -0.3954876E-05
   maximum displ.:     0.0450204 α      in ANC's #4, #3, #5, ...

........................................................................
.............................. CYCLE   29 ..............................
........................................................................

 iter      E             dE          RMSdq      gap      omega  full diag
   1   -103.7869401 -0.103787E+03  0.152E-02    1.36       0.0  T
   2   -103.7869402 -0.933054E-07  0.882E-03    1.36       1.4  T
   3   -103.7869401  0.641324E-07  0.124E-03    1.36      10.2  T
   4   -103.7869402 -0.984796E-07  0.331E-04    1.36      38.4  T
   5   -103.7869402 -0.961279E-09  0.148E-04    1.36      85.6  T
     SCC iter.                  ...        0 min,  0.030 sec
     gradient                   ...        0 min,  0.008 sec
 * total energy  :  -101.9711934 Eh     change       -0.4760491E-05 Eh
   gradient norm :     0.0003711 Eh/α   predicted    -0.1984687E-05 ( -58.31%)
   displ. norm   :     0.0902950 α      lambda       -0.4271856E-05
   maximum displ.:     0.0518318 α      in ANC's #4, #5, #3, ...

........................................................................
.............................. CYCLE   30 ..............................
........................................................................

 iter      E             dE          RMSdq      gap      omega  full diag
   1   -103.7869478 -0.103787E+03  0.181E-02    1.36       0.0  T
   2   -103.7869480 -0.136581E-06  0.105E-02    1.36       1.2  T
   3   -103.7869479  0.259202E-07  0.116E-03    1.36      11.0  T
   4   -103.7869480 -0.737059E-07  0.401E-04    1.36      31.7  T
   5   -103.7869480 -0.147843E-08  0.148E-04    1.36      85.8  T
     SCC iter.                  ...        0 min,  0.030 sec
     gradient                   ...        0 min,  0.008 sec
 * total energy  :  -101.9711985 Eh     change       -0.5149037E-05 Eh
   gradient norm :     0.0005001 Eh/α   predicted    -0.2145170E-05 ( -58.34%)
   displ. norm   :     0.1069314 α      lambda       -0.4619022E-05
   maximum displ.:     0.0620519 α      in ANC's #4, #5, #3, ...

........................................................................
.............................. CYCLE   31 ..............................
........................................................................

 iter      E             dE          RMSdq      gap      omega  full diag
   1   -103.7869475 -0.103787E+03  0.219E-02    1.36       0.0  T
   2   -103.7869477 -0.215987E-06  0.127E-02    1.36       1.0  T
   3   -103.7869476  0.595260E-07  0.158E-03    1.36       8.1  T
   4   -103.7869478 -0.137606E-06  0.511E-04    1.36      24.9  T
   5   -103.7869478 -0.169052E-08  0.197E-04    1.36      64.4  T
     SCC iter.                  ...        0 min,  0.030 sec
     gradient                   ...        0 min,  0.008 sec
 * total energy  :  -101.9712041 Eh     change       -0.5572427E-05 Eh
   gradient norm :     0.0006206 Eh/α   predicted    -0.2322278E-05 ( -58.33%)
   displ. norm   :     0.1344522 α      lambda       -0.5401999E-05
   maximum displ.:     0.0790330 α      in ANC's #4, #5, #3, ...

........................................................................
.............................. CYCLE   32 ..............................
........................................................................

 iter      E             dE          RMSdq      gap      omega  full diag
   1   -103.7869211 -0.103787E+03  0.278E-02    1.37       0.0  T
   2   -103.7869215 -0.355026E-06  0.161E-02    1.37       1.0  T
   3   -103.7869214  0.466177E-07  0.181E-03    1.37       7.0  T
   4   -103.7869216 -0.174155E-06  0.659E-04    1.37      19.3  T
   5   -103.7869216 -0.291546E-08  0.264E-04    1.37      48.1  T
     SCC iter.                  ...        0 min,  0.030 sec
     gradient                   ...        0 min,  0.008 sec
 * total energy  :  -101.9712106 Eh     change       -0.6539892E-05 Eh
   gradient norm :     0.0006025 Eh/α   predicted    -0.2724333E-05 ( -58.34%)
   displ. norm   :     0.1567859 α      lambda       -0.6020187E-05
   maximum displ.:     0.0931514 α      in ANC's #4, #5, #3, ...

........................................................................
.............................. CYCLE   33 ..............................
........................................................................

 iter      E             dE          RMSdq      gap      omega  full diag
   1   -103.7868737 -0.103787E+03  0.329E-02    1.37       0.0  T
   2   -103.7868743 -0.523767E-06  0.190E-02    1.37       1.0  T
   3   -103.7868741  0.109738E-06  0.240E-03    1.37       5.3  T
   4   -103.7868744 -0.302946E-06  0.800E-04    1.37      15.9  T
   5   -103.7868744 -0.331531E-08  0.311E-04    1.37      40.9  T
     SCC iter.                  ...        0 min,  0.030 sec
     gradient                   ...        0 min,  0.008 sec
 * total energy  :  -101.9712179 Eh     change       -0.7248223E-05 Eh
   gradient norm :     0.0005126 Eh/α   predicted    -0.3045790E-05 ( -57.98%)
   displ. norm   :     0.1672829 α      lambda       -0.5839628E-05
   maximum displ.:     0.1009069 α      in ANC's #4, #5, #3, ...

........................................................................
.............................. CYCLE   34 ..............................
........................................................................

 iter      E             dE          RMSdq      gap      omega  full diag
   1   -103.7868653 -0.103787E+03  0.354E-02    1.37       0.0  T
   2   -103.7868659 -0.607885E-06  0.205E-02    1.37       1.0  T
   3   -103.7868658  0.108990E-06  0.257E-03    1.37       4.9  T
   4   -103.7868661 -0.336108E-06  0.856E-04    1.37      14.8  T
   5   -103.7868661 -0.391638E-08  0.322E-04    1.37      39.4  T
     SCC iter.                  ...        0 min,  0.030 sec
     gradient                   ...        0 min,  0.008 sec
 * total energy  :  -101.9712246 Eh     change       -0.6717852E-05 Eh
   gradient norm :     0.0004548 Eh/α   predicted    -0.2957793E-05 ( -55.97%)
   displ. norm   :     0.1248606 α      lambda       -0.3885566E-05
   maximum displ.:     0.0771933 α      in ANC's #4, #5, #3, ...

........................................................................
.............................. CYCLE   35 ..............................
........................................................................

 iter      E             dE          RMSdq      gap      omega  full diag
   1   -103.7869382 -0.103787E+03  0.270E-02    1.37       0.0  T
   2   -103.7869386 -0.378695E-06  0.156E-02    1.37       1.0  T
   3   -103.7869385  0.150437E-06  0.231E-03    1.37       5.5  T
   4   -103.7869388 -0.295405E-06  0.680E-04    1.37      18.7  T
   5   -103.7869388 -0.160699E-08  0.297E-04    1.37      42.8  T
     SCC iter.                  ...        0 min,  0.030 sec
     gradient                   ...        0 min,  0.008 sec
 * total energy  :  -101.9712290 Eh     change       -0.4407058E-05 Eh
   gradient norm :     0.0003556 Eh/α   predicted    -0.1960500E-05 ( -55.51%)
   displ. norm   :     0.0883154 α      lambda       -0.2491907E-05
   maximum displ.:     0.0562104 α      in ANC's #4, #5, #3, ...

........................................................................
.............................. CYCLE   36 ..............................
........................................................................

 iter      E             dE          RMSdq      gap      omega  full diag
   1   -103.7870026 -0.103787E+03  0.197E-02    1.37       0.0  T
   2   -103.7870028 -0.203571E-06  0.114E-02    1.38       1.1  T
   3   -103.7870026  0.143759E-06  0.199E-03    1.38       6.4  T
   4   -103.7870028 -0.225617E-06  0.494E-04    1.38      25.7  T
   5   -103.7870028 -0.104676E-08  0.234E-04    1.38      54.2  T
     SCC iter.                  ...        0 min,  0.030 sec
     gradient                   ...        0 min,  0.008 sec
 * total energy  :  -101.9712319 Eh     change       -0.2911605E-05 Eh
   gradient norm :     0.0002896 Eh/α   predicted    -0.1254473E-05 ( -56.91%)
   displ. norm   :     0.0591207 α      lambda       -0.1823768E-05
   maximum displ.:     0.0386845 α      in ANC's #4, #5, #2, ...

........................................................................
.............................. CYCLE   37 ..............................
........................................................................

 iter      E             dE          RMSdq      gap      omega  full diag
   1   -103.7870642 -0.103787E+03  0.138E-02    1.38       0.0  T
   2   -103.7870643 -0.110632E-06  0.796E-03    1.38       1.6  T
   3   -103.7870642  0.119064E-06  0.168E-03    1.38       7.6  T
   4   -103.7870644 -0.164954E-06  0.353E-04    1.38      36.0  T
   5   -103.7870644 -0.889017E-09  0.175E-04    1.38      72.7  T
     SCC iter.                  ...        0 min,  0.036 sec
     gradient                   ...        0 min,  0.009 sec
 * total energy  :  -101.9712342 Eh     change       -0.2230596E-05 Eh
   gradient norm :     0.0002328 Eh/α   predicted    -0.9140248E-06 ( -59.02%)
   displ. norm   :     0.0594542 α      lambda       -0.1838450E-05
   maximum displ.:     0.0388884 α      in ANC's #4, #5, #9, ...

........................................................................
.............................. CYCLE   38 ..............................
........................................................................

 iter      E             dE          RMSdq      gap      omega  full diag
   1   -103.7870716 -0.103787E+03  0.141E-02    1.38       0.0  T
   2   -103.7870718 -0.112797E-06  0.817E-03    1.38       1.6  T
   3   -103.7870716  0.154696E-06  0.186E-03    1.38       6.8  T
   4   -103.7870718 -0.203654E-06  0.352E-04    1.38      36.1  T
   5   -103.7870718 -0.116141E-08  0.183E-04    1.38      69.6  T
     SCC iter.                  ...        0 min,  0.031 sec
     gradient                   ...        0 min,  0.008 sec
 * total energy  :  -101.9712364 Eh     change       -0.2204922E-05 Eh
   gradient norm :     0.0002406 Eh/α   predicted    -0.9236515E-06 ( -58.11%)
   displ. norm   :     0.0608228 α      lambda       -0.1566077E-05
   maximum displ.:     0.0403721 α      in ANC's #4, #5, #2, ...

........................................................................
.............................. CYCLE   39 ..............................
........................................................................

 iter      E             dE          RMSdq      gap      omega  full diag
   1   -103.7870589 -0.103787E+03  0.143E-02    1.38       0.0  T
   2   -103.7870590 -0.115457E-06  0.825E-03    1.38       1.5  T
   3   -103.7870589  0.150602E-06  0.187E-03    1.38       6.8  T
   4   -103.7870591 -0.199909E-06  0.350E-04    1.38      36.3  T
   5   -103.7870591 -0.101727E-08  0.179E-04    1.38      71.0  T
     SCC iter.                  ...        0 min,  0.030 sec
     gradient                   ...        0 min,  0.008 sec
 * total energy  :  -101.9712382 Eh     change       -0.1862054E-05 Eh
   gradient norm :     0.0002547 Eh/α   predicted    -0.7885352E-06 ( -57.65%)
   displ. norm   :     0.0445715 α      lambda       -0.1097330E-05
   maximum displ.:     0.0298252 α      in ANC's #4, #5, #1, ...

........................................................................
.............................. CYCLE   40 ..............................
........................................................................

 iter      E             dE          RMSdq      gap      omega  full diag
   1   -103.7870746 -0.103787E+03  0.101E-02    1.38       0.0  T
   2   -103.7870747 -0.531202E-07  0.585E-03    1.38       2.2  T
   3   -103.7870746  0.605154E-07  0.123E-03    1.38      10.4  T
   4   -103.7870747 -0.830708E-07  0.238E-04    1.38      53.4  T
   5   -103.7870747 -0.332420E-09  0.116E-04    1.38     109.5  T
     SCC iter.                  ...        0 min,  0.030 sec
     gradient                   ...        0 min,  0.008 sec
 * total energy  :  -101.9712396 Eh     change       -0.1382775E-05 Eh
   gradient norm :     0.0002067 Eh/α   predicted    -0.5519748E-06 ( -60.08%)
   displ. norm   :     0.0472151 α      lambda       -0.1220017E-05
   maximum displ.:     0.0315072 α      in ANC's #4, #1, #5, ...

........................................................................
.............................. CYCLE   41 ..............................
........................................................................

 iter      E             dE          RMSdq      gap      omega  full diag
   1   -103.7870355 -0.103787E+03  0.104E-02    1.38       0.0  T
   2   -103.7870355 -0.503660E-07  0.605E-03    1.38       2.1  T
   3   -103.7870355  0.453071E-07  0.107E-03    1.38      11.8  T
   4   -103.7870356 -0.657647E-07  0.238E-04    1.38      53.5  T
   5   -103.7870356 -0.384262E-09  0.111E-04    1.38     114.0  T
     SCC iter.                  ...        0 min,  0.030 sec
     gradient                   ...        0 min,  0.008 sec
 * total energy  :  -101.9712412 Eh     change       -0.1574273E-05 Eh
   gradient norm :     0.0001642 Eh/α   predicted    -0.6136921E-06 ( -61.02%)
   displ. norm   :     0.0547234 α      lambda       -0.1396550E-05
   maximum displ.:     0.0361350 α      in ANC's #4, #1, #5, ...

........................................................................
.............................. CYCLE   42 ..............................
........................................................................

 iter      E             dE          RMSdq      gap      omega  full diag
   1   -103.7870084 -0.103787E+03  0.117E-02    1.38       0.0  T
   2   -103.7870085 -0.584694E-07  0.680E-03    1.38       1.9  T
   3   -103.7870084  0.408070E-07  0.102E-03    1.38      12.4  T
   4   -103.7870085 -0.639492E-07  0.261E-04    1.38      48.6  T
   5   -103.7870085 -0.504855E-09  0.116E-04    1.38     109.1  T
     SCC iter.                  ...        0 min,  0.030 sec
     gradient                   ...        0 min,  0.008 sec
 * total energy  :  -101.9712430 Eh     change       -0.1787862E-05 Eh
   gradient norm :     0.0002110 Eh/α   predicted    -0.7021521E-06 ( -60.73%)
   displ. norm   :     0.0612633 α      lambda       -0.1480035E-05
   maximum displ.:     0.0401496 α      in ANC's #4, #1, #5, ...
 * RMSD in coord.:     0.1998081 α      energy gain  -0.1360529E-03 Eh

generating ANC from exact Hessian ...
Using Lindh-Hessian (1995)
 Shifting diagonal of input Hessian by   9.826856067062057E-003
 Lowest  eigenvalues of input Hessian
    0.000000    0.000000    0.000000    0.000000    0.000000    0.000000
    0.010000    0.010075    0.010221    0.010276    0.010450    0.011295
    0.011763    0.011942    0.012596    0.013000    0.013428    0.013650
 Highest eigenvalues
    2.182843    2.186639    2.191899    2.210501    2.225584    2.265922
 

........................................................................
.............................. CYCLE   43 ..............................
........................................................................

 iter      E             dE          RMSdq      gap      omega  full diag
   1   -103.7869754 -0.103787E+03  0.128E-02    1.38       0.0  T
   2   -103.7869755 -0.660177E-07  0.744E-03    1.38       1.7  T
   3   -103.7869754  0.343423E-07  0.966E-04    1.38      13.2  T
   4   -103.7869755 -0.597375E-07  0.282E-04    1.38      45.0  T
     SCC iter.                  ...        0 min,  0.024 sec
     gradient                   ...        0 min,  0.008 sec
 * total energy  :  -101.9712449 Eh     change       -0.1892193E-05 Eh
   gradient norm :     0.0002773 Eh/α   predicted     0.0000000E+00 (-100.00%)
   displ. norm   :     0.0091965 α      lambda       -0.4555025E-06
   maximum displ.:     0.0042931 α      in ANC's #1, #3, #7, ...

........................................................................
.............................. CYCLE   44 ..............................
........................................................................

 iter      E             dE          RMSdq      gap      omega  full diag
   1   -103.7870080 -0.103787E+03  0.229E-03    1.38       0.0  T
   2   -103.7870080 -0.218667E-08  0.134E-03    1.38       9.5  T
   3   -103.7870080  0.511423E-08  0.298E-04    1.38      42.6  T
   4   -103.7870080 -0.608354E-08  0.442E-05    1.38     287.3  T
     SCC iter.                  ...        0 min,  0.024 sec
     gradient                   ...        0 min,  0.008 sec
 * total energy  :  -101.9712456 Eh     change       -0.7177364E-06 Eh
   gradient norm :     0.0001622 Eh/α   predicted    -0.2780475E-06 ( -61.26%)
   displ. norm   :     0.0346649 α      lambda       -0.1289491E-05
   maximum displ.:     0.0162199 α      in ANC's #1, #3, #7, ...

........................................................................
.............................. CYCLE   45 ..............................
........................................................................

 iter      E             dE          RMSdq      gap      omega  full diag
   1   -103.7870607 -0.103787E+03  0.825E-03    1.38       0.0  T
   2   -103.7870608 -0.271188E-07  0.482E-03    1.38       2.6  T
   3   -103.7870607  0.767809E-07  0.115E-03    1.38      11.0  T
   4   -103.7870608 -0.909584E-07  0.166E-04    1.38      76.7  T
   5   -103.7870608 -0.576364E-09  0.919E-05    1.38     138.2  T
     SCC iter.                  ...        0 min,  0.030 sec
     gradient                   ...        0 min,  0.008 sec
 * total energy  :  -101.9712470 Eh     change       -0.1450317E-05 Eh
   gradient norm :     0.0002474 Eh/α   predicted    -0.7936135E-06 ( -45.28%)
   displ. norm   :     0.0196639 α      lambda       -0.5010459E-06
   maximum displ.:     0.0108097 α      in ANC's #1, #3, #4, ...

........................................................................
.............................. CYCLE   46 ..............................
........................................................................

 iter      E             dE          RMSdq      gap      omega  full diag
   1   -103.7870618 -0.103787E+03  0.404E-03    1.38       0.0  T
   2   -103.7870618 -0.586299E-08  0.236E-03    1.38       5.4  T
   3   -103.7870618  0.145044E-07  0.522E-04    1.38      24.3  T
   4   -103.7870618 -0.174249E-07  0.777E-05    1.38     163.5  T
     SCC iter.                  ...        0 min,  0.024 sec
     gradient                   ...        0 min,  0.008 sec
 * total energy  :  -101.9712476 Eh     change       -0.5619327E-06 Eh
   gradient norm :     0.0002580 Eh/α   predicted    -0.2509079E-06 ( -55.35%)
   displ. norm   :     0.0217464 α      lambda       -0.5408061E-06
   maximum displ.:     0.0125330 α      in ANC's #1, #3, #4, ...

........................................................................
.............................. CYCLE   47 ..............................
........................................................................

 iter      E             dE          RMSdq      gap      omega  full diag
   1   -103.7870807 -0.103787E+03  0.421E-03    1.38       0.0  T
   2   -103.7870807 -0.527585E-08  0.246E-03    1.38       5.2  T
   3   -103.7870807  0.145789E-07  0.462E-04    1.38      27.5  T
   4   -103.7870807 -0.172540E-07  0.799E-05    1.38     158.8  T
     SCC iter.                  ...        0 min,  0.024 sec
     gradient                   ...        0 min,  0.008 sec
 * total energy  :  -101.9712483 Eh     change       -0.6846893E-06 Eh
   gradient norm :     0.0001899 Eh/α   predicted    -0.2718836E-06 ( -60.29%)
   displ. norm   :     0.0327793 α      lambda       -0.8022948E-06
   maximum displ.:     0.0195440 α      in ANC's #1, #3, #4, ...

........................................................................
.............................. CYCLE   48 ..............................
........................................................................

 iter      E             dE          RMSdq      gap      omega  full diag
   1   -103.7870973 -0.103787E+03  0.635E-03    1.38       0.0  T
   2   -103.7870973 -0.100645E-07  0.371E-03    1.38       3.4  T
   3   -103.7870973  0.169706E-07  0.504E-04    1.38      25.2  T
   4   -103.7870973 -0.211888E-07  0.119E-04    1.38     106.6  T
     SCC iter.                  ...        0 min,  0.024 sec
     gradient                   ...        0 min,  0.008 sec
 * total energy  :  -101.9712492 Eh     change       -0.8851431E-06 Eh
   gradient norm :     0.0001341 Eh/α   predicted    -0.4039490E-06 ( -54.36%)
   displ. norm   :     0.0310136 α      lambda       -0.5565404E-06
   maximum displ.:     0.0192640 α      in ANC's #1, #3, #4, ...

........................................................................
.............................. CYCLE   49 ..............................
........................................................................

 iter      E             dE          RMSdq      gap      omega  full diag
   1   -103.7870831 -0.103787E+03  0.594E-03    1.38       0.0  T
   2   -103.7870831 -0.884994E-08  0.346E-03    1.38       3.7  T
   3   -103.7870831  0.465192E-08  0.328E-04    1.38      38.7  T
   4   -103.7870831 -0.770081E-08  0.106E-04    1.38     119.3  T
     SCC iter.                  ...        0 min,  0.024 sec
     gradient                   ...        0 min,  0.008 sec
 * total energy  :  -101.9712498 Eh     change       -0.6173480E-06 Eh
   gradient norm :     0.0001921 Eh/α   predicted    -0.2818338E-06 ( -54.35%)
   displ. norm   :     0.0310136 α      lambda        0.0000000E+00
   maximum displ.:     0.0192640 α      in ANC's #1, #3, #4, ...

........................................................................
.............................. CYCLE   50 ..............................
........................................................................

 iter      E             dE          RMSdq      gap      omega  full diag
   1   -103.7870618 -0.103787E+03  0.594E-03    1.38       0.0  T
   2   -103.7870618 -0.897515E-08  0.346E-03    1.38       3.7  T
   3   -103.7870618  0.532683E-08  0.342E-04    1.38      37.1  T
   4   -103.7870618 -0.848446E-08  0.106E-04    1.38     120.0  T
     SCC iter.                  ...        0 min,  0.024 sec
     gradient                   ...        0 min,  0.007 sec
 * total energy  :  -101.9712499 Eh     change       -0.1530735E-06 Eh
   gradient norm :     0.0003676 Eh/α   predicted     0.4466437E-08 (-102.92%)
   displ. norm   :     0.0131787 α      lambda       -0.4207123E-06
   maximum displ.:     0.0084441 α      in ANC's #1, #4, #3, ...

........................................................................
.............................. CYCLE   51 ..............................
........................................................................

 iter      E             dE          RMSdq      gap      omega  full diag
   1   -103.7870696 -0.103787E+03  0.265E-03    1.38       0.0  T
   2   -103.7870696 -0.209982E-08  0.155E-03    1.38       8.2  T
   3   -103.7870696  0.215881E-08  0.215E-04    1.38      59.1  T
   4   -103.7870696 -0.295810E-08  0.533E-05    1.38     238.5  T
     SCC iter.                  ...        0 min,  0.024 sec
     gradient                   ...        0 min,  0.008 sec
 * total energy  :  -101.9712504 Eh     change       -0.5172688E-06 Eh
   gradient norm :     0.0002548 Eh/α   predicted    -0.2113233E-06 ( -59.15%)
   displ. norm   :     0.0242431 α      lambda       -0.8174416E-06
   maximum displ.:     0.0144743 α      in ANC's #1, #4, #3, ...

........................................................................
.............................. CYCLE   52 ..............................
........................................................................

 iter      E             dE          RMSdq      gap      omega  full diag
   1   -103.7870868 -0.103787E+03  0.474E-03    1.38       0.0  T
   2   -103.7870868 -0.865337E-08  0.276E-03    1.38       4.6  T
   3   -103.7870868  0.125733E-07  0.526E-04    1.38      24.1  T
   4   -103.7870868 -0.164985E-07  0.105E-04    1.38     121.3  T
     SCC iter.                  ...        0 min,  0.024 sec
     gradient                   ...        0 min,  0.008 sec
 * total energy  :  -101.9712513 Eh     change       -0.8604476E-06 Eh
   gradient norm :     0.0001669 Eh/α   predicted    -0.4095557E-06 ( -52.40%)
   displ. norm   :     0.0275213 α      lambda       -0.5514976E-06
   maximum displ.:     0.0170151 α      in ANC's #1, #4, #3, ...

........................................................................
.............................. CYCLE   53 ..............................
........................................................................

 iter      E             dE          RMSdq      gap      omega  full diag
   1   -103.7870574 -0.103787E+03  0.527E-03    1.38       0.0  T
   2   -103.7870575 -0.131615E-07  0.306E-03    1.38       4.2  T
   3   -103.7870574  0.318711E-07  0.751E-04    1.38      16.9  T
   4   -103.7870575 -0.388319E-07  0.127E-04    1.38     100.2  T
     SCC iter.                  ...        0 min,  0.024 sec
     gradient                   ...        0 min,  0.008 sec
 * total energy  :  -101.9712519 Eh     change       -0.6174968E-06 Eh
   gradient norm :     0.0002248 Eh/α   predicted    -0.2807422E-06 ( -54.54%)
   displ. norm   :     0.0335785 α      lambda       -0.5312271E-06
   maximum displ.:     0.0214463 α      in ANC's #1, #4, #3, ...

........................................................................
.............................. CYCLE   54 ..............................
........................................................................

 iter      E             dE          RMSdq      gap      omega  full diag
   1   -103.7870306 -0.103787E+03  0.630E-03    1.38       0.0  T
   2   -103.7870306 -0.201910E-07  0.364E-03    1.38       3.5  T
   3   -103.7870305  0.336120E-07  0.787E-04    1.38      16.1  T
   4   -103.7870306 -0.429332E-07  0.148E-04    1.38      86.0  T
     SCC iter.                  ...        0 min,  0.024 sec
     gradient                   ...        0 min,  0.008 sec
 * total energy  :  -101.9712526 Eh     change       -0.6518451E-06 Eh
   gradient norm :     0.0002342 Eh/α   predicted    -0.2689252E-06 ( -58.74%)
   displ. norm   :     0.0358760 α      lambda       -0.5336414E-06
   maximum displ.:     0.0234840 α      in ANC's #1, #4, #3, ...

........................................................................
.............................. CYCLE   55 ..............................
........................................................................

 iter      E             dE          RMSdq      gap      omega  full diag
   1   -103.7870295 -0.103787E+03  0.699E-03    1.38       0.0  T
   2   -103.7870295 -0.234317E-07  0.405E-03    1.38       3.1  T
   3   -103.7870294  0.364014E-07  0.804E-04    1.38      15.8  T
   4   -103.7870295 -0.470631E-07  0.163E-04    1.38      77.8  T
     SCC iter.                  ...        0 min,  0.024 sec
     gradient                   ...        0 min,  0.008 sec
 * total energy  :  -101.9712532 Eh     change       -0.6656735E-06 Eh
   gradient norm :     0.0001691 Eh/α   predicted    -0.2717999E-06 ( -59.17%)
   displ. norm   :     0.0370431 α      lambda       -0.4885572E-06
   maximum displ.:     0.0247091 α      in ANC's #1, #4, #3, ...

........................................................................
.............................. CYCLE   56 ..............................
........................................................................

 iter      E             dE          RMSdq      gap      omega  full diag
   1   -103.7870334 -0.103787E+03  0.753E-03    1.38       0.0  T
   2   -103.7870334 -0.260839E-07  0.436E-03    1.38       2.9  T
   3   -103.7870334  0.281216E-07  0.729E-04    1.38      17.4  T
   4   -103.7870334 -0.388407E-07  0.176E-04    1.38      72.0  T
     SCC iter.                  ...        0 min,  0.024 sec
     gradient                   ...        0 min,  0.008 sec
 * total energy  :  -101.9712538 Eh     change       -0.5968707E-06 Eh
   gradient norm :     0.0000937 Eh/α   predicted    -0.2468899E-06 ( -58.64%)
   displ. norm   :     0.0323895 α      lambda       -0.3364403E-06
   maximum displ.:     0.0219687 α      in ANC's #1, #4, #3, ...

........................................................................
.............................. CYCLE   57 ..............................
........................................................................

 iter      E             dE          RMSdq      gap      omega  full diag
   1   -103.7870616 -0.103787E+03  0.679E-03    1.38       0.0  T
   2   -103.7870616 -0.192431E-07  0.394E-03    1.38       3.2  T
   3   -103.7870616  0.121312E-07  0.526E-04    1.38      24.1  T
   4   -103.7870616 -0.195346E-07  0.158E-04    1.38      80.5  T
     SCC iter.                  ...        0 min,  0.024 sec
     gradient                   ...        0 min,  0.008 sec
 * total energy  :  -101.9712543 Eh     change       -0.4298692E-06 Eh
   gradient norm :     0.0000879 Eh/α   predicted    -0.1715212E-06 ( -60.10%)
   displ. norm   :     0.0234533 α      lambda       -0.2330717E-06
   maximum displ.:     0.0161929 α      in ANC's #1, #4, #3, ...

........................................................................
.............................. CYCLE   58 ..............................
........................................................................

 iter      E             dE          RMSdq      gap      omega  full diag
   1   -103.7870781 -0.103787E+03  0.503E-03    1.38       0.0  T
   2   -103.7870781 -0.989334E-08  0.292E-03    1.38       4.4  T
   3   -103.7870781  0.358888E-08  0.339E-04    1.38      37.5  T
   4   -103.7870781 -0.742929E-08  0.117E-04    1.38     108.8  T
     SCC iter.                  ...        0 min,  0.024 sec
     gradient                   ...        0 min,  0.008 sec
 * total energy  :  -101.9712546 Eh     change       -0.3178831E-06 Eh
   gradient norm :     0.0000999 Eh/α   predicted    -0.1193235E-06 ( -62.46%)
   displ. norm   :     0.0220371 α      lambda       -0.2479746E-06
   maximum displ.:     0.0150677 α      in ANC's #1, #4, #5, ...

........................................................................
.............................. CYCLE   59 ..............................
........................................................................

 iter      E             dE          RMSdq      gap      omega  full diag
   1   -103.7870891 -0.103787E+03  0.482E-03    1.38       0.0  T
   2   -103.7870891 -0.884455E-08  0.279E-03    1.38       4.5  T
   3   -103.7870891  0.904720E-09  0.275E-04    1.38      46.2  T
   4   -103.7870891 -0.427140E-08  0.110E-04    1.38     115.3  T
     SCC iter.                  ...        0 min,  0.024 sec
     gradient                   ...        0 min,  0.008 sec
 * total energy  :  -101.9712549 Eh     change       -0.3417845E-06 Eh
   gradient norm :     0.0000893 Eh/α   predicted    -0.1248911E-06 ( -63.46%)
   displ. norm   :     0.0273807 α      lambda       -0.3142079E-06
   maximum displ.:     0.0186803 α      in ANC's #1, #4, #5, ...

........................................................................
.............................. CYCLE   60 ..............................
........................................................................

 iter      E             dE          RMSdq      gap      omega  full diag
   1   -103.7870919 -0.103787E+03  0.587E-03    1.38       0.0  T
   2   -103.7870919 -0.138433E-07  0.340E-03    1.38       3.7  T
   3   -103.7870919  0.450103E-08  0.402E-04    1.38      31.6  T
   4   -103.7870919 -0.100342E-07  0.137E-04    1.38      92.5  T
     SCC iter.                  ...        0 min,  0.024 sec
     gradient                   ...        0 min,  0.008 sec
 * total energy  :  -101.9712553 Eh     change       -0.4077045E-06 Eh
   gradient norm :     0.0000663 Eh/α   predicted    -0.1619526E-06 ( -60.28%)
   displ. norm   :     0.0327943 α      lambda       -0.3214435E-06
   maximum displ.:     0.0222155 α      in ANC's #1, #4, #5, ...

........................................................................
.............................. CYCLE   61 ..............................
........................................................................

 iter      E             dE          RMSdq      gap      omega  full diag
   1   -103.7870919 -0.103787E+03  0.686E-03    1.38       0.0  T
   2   -103.7870919 -0.190080E-07  0.398E-03    1.38       3.2  T
   3   -103.7870919  0.774783E-08  0.483E-04    1.38      26.3  T
   4   -103.7870919 -0.154414E-07  0.162E-04    1.38      78.2  T
     SCC iter.                  ...        0 min,  0.024 sec
     gradient                   ...        0 min,  0.008 sec
 * total energy  :  -101.9712557 Eh     change       -0.4075193E-06 Eh
   gradient norm :     0.0000629 Eh/α   predicted    -0.1619358E-06 ( -60.26%)
   displ. norm   :     0.0345482 α      lambda       -0.2763594E-06
   maximum displ.:     0.0234796 α      in ANC's #1, #4, #5, ...

........................................................................
.............................. CYCLE   62 ..............................
........................................................................

 iter      E             dE          RMSdq      gap      omega  full diag
   1   -103.7870878 -0.103787E+03  0.705E-03    1.38       0.0  T
   2   -103.7870878 -0.209800E-07  0.408E-03    1.38       3.1  T
   3   -103.7870878  0.104146E-07  0.537E-04    1.38      23.7  T
   4   -103.7870878 -0.189678E-07  0.167E-04    1.38      76.2  T
     SCC iter.                  ...        0 min,  0.045 sec
     gradient                   ...        0 min,  0.009 sec
 * total energy  :  -101.9712561 Eh     change       -0.3481117E-06 Eh
   gradient norm :     0.0000687 Eh/α   predicted    -0.1396790E-06 ( -59.88%)
   displ. norm   :     0.0304687 α      lambda       -0.2161114E-06
   maximum displ.:     0.0208007 α      in ANC's #1, #4, #5, ...

........................................................................
.............................. CYCLE   63 ..............................
........................................................................

 iter      E             dE          RMSdq      gap      omega  full diag
   1   -103.7870881 -0.103787E+03  0.605E-03    1.38       0.0  T
   2   -103.7870881 -0.151086E-07  0.351E-03    1.38       3.6  T
   3   -103.7870881  0.639962E-08  0.444E-04    1.38      28.6  T
   4   -103.7870881 -0.125306E-07  0.141E-04    1.38      90.0  T
     SCC iter.                  ...        0 min,  0.024 sec
     gradient                   ...        0 min,  0.008 sec
 * total energy  :  -101.9712564 Eh     change       -0.2858782E-06 Eh
   gradient norm :     0.0000699 Eh/α   predicted    -0.1126819E-06 ( -60.58%)
   displ. norm   :     0.0290459 α      lambda       -0.2208115E-06
   maximum displ.:     0.0197987 α      in ANC's #1, #4, #5, ...

[...]
     4   6 C        5   7 N                                       1.3206089
     5   7 N        6   6 C                                       1.3212175
     6   6 C        7   7 N                                       1.3215922
     3   6 C        8   6 C                                       1.3981973
     7   7 N        8   6 C                                       1.3189694
     9   6 C       10   6 C                                       1.3900145
    10   6 C       11   6 C                                       1.3909890
    11   6 C       12   7 N                                       1.3962693
    12   7 N       13   6 C                                       1.3839248
    13   6 C       14   6 C                                       1.3870550
    14   6 C       15   6 C                                       1.3822117
    15   6 C       16   6 C                                       1.3926498
    16   6 C       17   6 C                                       1.3805925
    13   6 C       18   6 C                                       1.4129555
    17   6 C       18   6 C                                       1.3884658
    18   6 C       19   6 C                                       1.4368385
    19   6 C       20   6 C                                       1.3884488
    20   6 C       21   6 C                                       1.3806409
    21   6 C       22   6 C                                       1.3926508
    22   6 C       23   6 C                                       1.3821936
    12   7 N       24   6 C                                       1.3836780
    19   6 C       24   6 C                                       1.4128614
    23   6 C       24   6 C                                       1.3869829
    11   6 C       25   6 C                                       1.3950515
    25   6 C       26   6 C                                       1.3789803
     9   6 C       27   6 C                                       1.4040246
    26   6 C       27   6 C                                       1.3936133
    27   6 C       28   7 N                                       1.3946531
    28   7 N       29   6 C                                       1.3833855
    29   6 C       30   6 C                                       1.3862535
    30   6 C       31   6 C                                       1.3823082
    31   6 C       32   6 C                                       1.3925642
    32   6 C       33   6 C                                       1.3808468
    29   6 C       34   6 C                                       1.4124316
    33   6 C       34   6 C                                       1.3883049
    34   6 C       35   6 C                                       1.4369311 (max)
    35   6 C       36   6 C                                       1.3881725
    36   6 C       37   6 C                                       1.3808477
    37   6 C       38   6 C                                       1.3924028
    38   6 C       39   6 C                                       1.3819429
    28   7 N       40   6 C                                       1.3816713
    35   6 C       40   6 C                                       1.4122109
    39   6 C       40   6 C                                       1.3861153
     4   6 C       41   1 H                                       1.0836257
     6   6 C       42   1 H                                       1.0821711
     8   6 C       43   1 H                                       1.0824158
    10   6 C       44   1 H                                       1.0801414
    14   6 C       45   1 H                                       1.0798155
    15   6 C       46   1 H                                       1.0798765
    16   6 C       47   1 H                                       1.0796334
    17   6 C       48   1 H                                       1.0793664
    20   6 C       49   1 H                                       1.0793569
    21   6 C       50   1 H                                       1.0796396
    22   6 C       51   1 H                                       1.0799075
    23   6 C       52   1 H                                       1.0797062
    25   6 C       53   1 H                                       1.0792171 (min)
    26   6 C       54   1 H                                       1.0795000
    30   6 C       55   1 H                                       1.0798452
    31   6 C       56   1 H                                       1.0800446
    32   6 C       57   1 H                                       1.0797946
    33   6 C       58   1 H                                       1.0794269
    36   6 C       59   1 H                                       1.0794164
    37   6 C       60   1 H                                       1.0796962
    38   6 C       61   1 H                                       1.0801665
    39   6 C       62   1 H                                       1.0801370

 * 4 distinct bonds (by element types)

   Z      Z             #   av. dist./Å        max./Å        min./Å
   1 H    6 C          22     1.0801318     1.0836257     1.0792171
   6 C    6 C          34     1.3938895     1.4369311     1.3789803
   6 C    7 N          10     1.3605970     1.3962693     1.3189694
   6 C    8 O           1     1.2110609     1.2110609     1.2110609

           -------------------------------------------------
          |               Frequency Printout                |
           -------------------------------------------------
 projected vibrational frequencies (cm⁻¹)
eigval :       -0.00    -0.00    -0.00     0.00     0.00     0.00
eigval :       12.98    19.62    22.10    26.61    27.27    53.98
eigval :       57.52    69.95    75.61   101.79   104.00   121.04
eigval :      125.68   137.87   143.34   153.28   158.84   180.12
eigval :      207.29   217.20   255.74   261.87   271.81   272.57
eigval :      294.94   315.40   334.22   347.07   351.88   387.34
eigval :      395.74   403.19   412.67   422.19   424.29   432.12
eigval :      434.59   438.99   456.77   495.51   517.92   519.22
eigval :      530.89   537.13   541.19   541.68   561.07   580.92
eigval :      586.49   596.02   609.13   617.50   622.65   655.32
eigval :      673.40   674.21   678.55   698.32   702.90   707.83
eigval :      708.87   720.92   727.45   755.11   756.44   768.96
eigval :      770.04   780.46   781.53   792.54   839.70   840.89
eigval :      869.05   870.02   871.69   876.43   894.65   897.48
eigval :      900.30   901.73   902.67   904.29   905.65   908.20
eigval :      920.77   921.50   923.07   924.21   928.99   931.59
eigval :      933.70   938.72  1001.79  1012.56  1013.16  1028.81
eigval :     1070.52  1071.42  1073.84  1075.01  1097.19  1118.84
eigval :     1134.56  1141.13  1152.15  1152.80  1167.07  1176.18
eigval :     1177.66  1180.57  1181.14  1181.28  1189.06  1202.72
eigval :     1228.53  1232.68  1235.59  1236.83  1240.38  1244.57
eigval :     1251.07  1256.86  1297.20  1298.92  1301.15  1302.65
eigval :     1310.10  1340.69  1357.42  1359.15  1361.32  1362.80
eigval :     1386.39  1392.06  1397.11  1407.12  1423.95  1427.93
eigval :     1428.63  1445.88  1474.75  1475.64  1478.22  1487.27
eigval :     1487.67  1540.08  1547.08  1551.97  1575.86  1576.62
eigval :     1585.71  1589.78  1591.76  1599.64  1600.19  1613.97
eigval :     1615.31  1706.35  3038.80  3062.71  3066.15  3074.89
eigval :     3076.49  3077.97  3078.41  3081.55  3082.30  3082.93
eigval :     3083.88  3087.83  3088.53  3089.71  3089.89  3091.44
eigval :     3093.41  3096.31  3097.88  3098.07  3099.42  3103.98
 reduced masses (amu)
   1: 11.50   2: 11.80   3: 11.86   4: 11.57   5: 11.46   6: 11.99   7: 11.68   8: 11.42
   9: 11.17  10: 11.14  11: 11.41  12: 12.08  13: 11.48  14: 11.26  15: 11.99  16: 10.32
  17: 10.73  18: 12.22  19: 11.39  20: 10.85  21: 10.07  22: 10.46  23: 10.77  24: 11.35
  25: 11.09  26: 11.34  27: 11.18  28: 10.92  29: 10.27  30: 10.28  31: 11.50  32: 11.85
  33: 12.20  34: 10.94  35: 11.24  36: 10.21  37:  9.36  38: 10.40  39: 10.79  40: 10.01
  41: 10.57  42: 10.56  43: 11.16  44: 10.71  45: 11.59  46: 10.79  47: 10.91  48: 11.05
  49: 11.09  50: 11.25  51: 10.03  52: 10.05  53: 11.69  54: 11.59  55: 11.34  56: 11.42
  57: 12.51  58: 11.48  59: 11.19  60: 11.71  61: 11.57  62: 11.60  63: 11.46  64: 11.69
  65:  9.52  66: 11.21  67: 11.41  68: 10.96  69: 11.35  70: 10.88  71: 10.82  72:  3.42
  73:  3.39  74:  4.03  75:  3.98  76: 11.90  77:  5.12  78:  5.42  79:  3.41  80:  3.42
  81:  3.41  82:  3.45  83: 10.47  84:  5.48  85: 11.08  86:  3.97  87:  4.11  88:  5.27
  89:  9.75  90:  4.23  91:  3.21  92:  3.09  93:  3.05  94:  3.26  95:  4.43  96:  4.98
  97:  5.29  98:  8.99  99: 10.41 100: 10.87 101: 10.91 102: 10.20 103:  5.81 104:  5.80
 105:  6.45 106:  6.36 107:  9.23 108:  6.94 109:  8.10 110:  5.26 111:  3.78 112:  3.87
 113:  4.20 114:  3.08 115:  3.70 116:  2.30 117:  1.84 118:  2.03 119:  4.00 120:  6.42
 121: 10.57 122:  4.75 123:  6.05 124:  5.66 125:  7.05 126:  5.26 127:  4.87 128:  8.16
 129:  7.92 130:  8.40 131:  8.22 132:  8.69 133: 11.47 134: 10.04 135: 11.04 136: 10.98
 137: 11.32 138: 11.30 139:  9.88 140: 10.32 141: 10.50 142: 10.50 143: 10.09 144:  9.14
 145:  9.12 146: 11.83 147: 10.47 148: 10.54 149: 10.73 150: 10.40 151: 10.39 152: 11.69
 153: 11.90 154: 12.13 155: 11.60 156: 11.60 157: 11.56 158: 11.57 159: 11.57 160: 11.70
 161: 11.70 162: 11.70 163: 11.71 164: 13.54 165:  1.81 166:  1.82 167:  1.79 168:  1.76
 169:  1.76 170:  1.76 171:  1.76 172:  1.79 173:  1.80 174:  1.79 175:  1.80 176:  1.86
 177:  1.83 178:  1.86 179:  1.86 180:  1.86 181:  1.79 182:  1.91 183:  1.91 184:  1.91
 185:  1.91 186:  1.88
 IR intensities (km·mol⁻¹)
   1:  0.01   2:  0.03   3:  0.02   4:  0.04   5:  0.02   6:  0.02   7:  0.08   8:  0.06
   9:  0.04  10:  0.06  11:  0.20  12:  0.14  13:  0.15  14:  0.44  15:  1.87  16:  0.11
  17:  0.31  18:  5.22  19:  2.03  20:  1.31  21:  1.13  22:  0.55  23:  4.17  24:  0.51
  25:  1.21  26:  3.08  27:  1.25  28:  0.47  29:  5.18  30:  0.71  31:  0.24  32:  6.76
  33:  3.20  34:  3.01  35:  3.65  36:  1.13  37:  0.70  38:  0.20  39:  1.09  40:  0.09
  41:  0.46  42:  9.89  43:  1.66  44:  3.16  45:  9.02  46:  1.34  47:  0.91  48:  2.37
  49:  0.17  50:  0.86  51:  0.58  52:  0.76  53:  1.31  54:  2.71  55:  0.32  56:  0.24
  57:  7.98  58:  2.21  59:  5.65  60:  7.95  61:  1.10  62:  0.80  63:  1.79  64:  1.20
  65: 16.62  66:  0.73  67:  8.51  68:  5.22  69:  3.70  70:  0.62  71:  0.55  72: 48.68
  73: 53.54  74:  1.88  75:  0.29  76: 10.58  77:  4.70  78:  6.21  79:  0.92  80:  0.33
  81:  0.08  82:  0.93  83:  9.24  84:  1.74  85: 12.22  86:  0.06  87:  0.66  88:  9.39
  89: 45.57  90:  0.46  91:  0.05  92:  0.02  93:  0.38  94:  2.13  95:  2.89  96:  4.85
  97:  2.79  98: 23.16  99: 22.36 100:  0.08 101:  2.65 102:  5.32 103:  0.09 104:  0.13
 105:  0.91 106:  0.25 107:  7.11 108:  1.96 109:  2.18 110:  3.72 111:  7.40 112:  7.26
 113:  7.84 114:  4.26 115:  9.11 116:  6.32 117:  4.73 118:  1.62 119: 17.70 120:  0.59
 121:  5.14 122:  8.59 123:  8.34 124: 32.74 125: 72.44 126:  5.33 127:  2.60 128: 70.20
 129: 19.17 130: 22.54 131:  3.78 132: 87.75 133:  9.20 134:197.37 135: 71.97 136: 83.92
 137: 10.98 138:  3.35 139:  7.95 140:  6.10 141:  1.87 142: 34.08 143:414.63 144: 26.79
 145: 13.51 146: 16.97 147:197.21 148:239.80 149:592.14 150:  1.54 151:  1.96 152: 49.68
 153:128.62 154:160.10 155:  1.83 156:  2.12 157:  1.62 158: 25.79 159:  9.43 160: 24.53
 161: 32.23 162: 63.05 163:  6.55 164:278.31 165: 20.47 166:  2.43 167: 12.85 168:  9.35
 169:  4.92 170:  2.80 171:  9.58 172:  5.20 173: 49.02 174:  9.47 175: 32.28 176: 51.00
 177:  9.14 178: 71.95 179: 30.28 180: 71.44 181:  3.69 182: 93.35 183: 98.89 184: 74.80
 185: 45.22 186: 14.90
 Raman intensities (Ä⁴*amu⁻¹)
   1:  0.00   2:  0.00   3:  0.00   4:  0.00   5:  0.00   6:  0.00   7:  0.00   8:  0.00
   9:  0.00  10:  0.00  11:  0.00  12:  0.00  13:  0.00  14:  0.00  15:  0.00  16:  0.00
  17:  0.00  18:  0.00  19:  0.00  20:  0.00  21:  0.00  22:  0.00  23:  0.00  24:  0.00
  25:  0.00  26:  0.00  27:  0.00  28:  0.00  29:  0.00  30:  0.00  31:  0.00  32:  0.00
  33:  0.00  34:  0.00  35:  0.00  36:  0.00  37:  0.00  38:  0.00  39:  0.00  40:  0.00
  41:  0.00  42:  0.00  43:  0.00  44:  0.00  45:  0.00  46:  0.00  47:  0.00  48:  0.00
  49:  0.00  50:  0.00  51:  0.00  52:  0.00  53:  0.00  54:  0.00  55:  0.00  56:  0.00
  57:  0.00  58:  0.00  59:  0.00  60:  0.00  61:  0.00  62:  0.00  63:  0.00  64:  0.00
  65:  0.00  66:  0.00  67:  0.00  68:  0.00  69:  0.00  70:  0.00  71:  0.00  72:  0.00
  73:  0.00  74:  0.00  75:  0.00  76:  0.00  77:  0.00  78:  0.00  79:  0.00  80:  0.00
  81:  0.00  82:  0.00  83:  0.00  84:  0.00  85:  0.00  86:  0.00  87:  0.00  88:  0.00
  89:  0.00  90:  0.00  91:  0.00  92:  0.00  93:  0.00  94:  0.00  95:  0.00  96:  0.00
  97:  0.00  98:  0.00  99:  0.00 100:  0.00 101:  0.00 102:  0.00 103:  0.00 104:  0.00
 105:  0.00 106:  0.00 107:  0.00 108:  0.00 109:  0.00 110:  0.00 111:  0.00 112:  0.00
 113:  0.00 114:  0.00 115:  0.00 116:  0.00 117:  0.00 118:  0.00 119:  0.00 120:  0.00
 121:  0.00 122:  0.00 123:  0.00 124:  0.00 125:  0.00 126:  0.00 127:  0.00 128:  0.00
 129:  0.00 130:  0.00 131:  0.00 132:  0.00 133:  0.00 134:  0.00 135:  0.00 136:  0.00
 137:  0.00 138:  0.00 139:  0.00 140:  0.00 141:  0.00 142:  0.00 143:  0.00 144:  0.00
 145:  0.00 146:  0.00 147:  0.00 148:  0.00 149:  0.00 150:  0.00 151:  0.00 152:  0.00
 153:  0.00 154:  0.00 155:  0.00 156:  0.00 157:  0.00 158:  0.00 159:  0.00 160:  0.00
 161:  0.00 162:  0.00 163:  0.00 164:  0.00 165:  0.00 166:  0.00 167:  0.00 168:  0.00
 169:  0.00 170:  0.00 171:  0.00 172:  0.00 173:  0.00 174:  0.00 175:  0.00 176:  0.00
 177:  0.00 178:  0.00 179:  0.00 180:  0.00 181:  0.00 182:  0.00 183:  0.00 184:  0.00
 185:  0.00 186:  0.00
 output can be read by thermo (or use thermo option).
 writing <g98.out> molden fake output.
 recommended (thermochemical) frequency scaling factor: 1.0
           -------------------------------------------------
          |             Thermodynamic Functions             |
           -------------------------------------------------

Molecule has no symmetry elements
It seems to be the C1 point group
c1  symmetry found (for desy threshold:  0.10E+00) used in thermo

          ...................................................
          :                      SETUP                      :
          :.................................................:
          :  # frequencies                         180      :
          :  # imaginary freq.                       0      :
          :  linear?                             false      :
          :  only rotor calc.                    false      :
          :  symmetry                               c1      :
          :  rotational number                       1      :
          :  scaling factor                  1.0000000      :
          :  rotor cutoff                   50.0000000 cm⁻¹ :
          :  imag. cutoff                  -20.0000000 cm⁻¹ :
          :.................................................:

    mode    ω/cm⁻¹     T·S(HO)/kcal·mol⁻¹    T·S(FR)/kcal·mol⁻¹   T·S(vib)
   ------------------------------------------------------------------------
       1     12.98    -2.23379 (  0.45%)    -1.45591 ( 99.55%)    -1.45943
       2     19.62    -1.98933 (  2.32%)    -1.33364 ( 97.68%)    -1.34883
       3     22.10    -1.91875 (  3.68%)    -1.29832 ( 96.32%)    -1.32115
       4     26.61    -1.80899 (  7.43%)    -1.24339 ( 92.57%)    -1.28539
       5     27.27    -1.79447 (  8.13%)    -1.23612 ( 91.87%)    -1.28151
       6     53.98    -1.39119 ( 57.59%)    -1.03386 ( 42.41%)    -1.23966
       7     57.52    -1.35372 ( 63.66%)    -1.01502 ( 36.34%)    -1.23064
       8     69.95    -1.23872 ( 79.30%)    -0.95707 ( 20.70%)    -1.18042
       9     75.61    -1.19314 ( 83.94%)    -0.93404 ( 16.06%)    -1.15154
      10    101.79    -1.01959 ( 94.50%)    -0.84595 (  5.50%)    -1.01004
      11    104.00    -1.00711 ( 94.93%)    -0.83957 (  5.07%)    -0.99861
      12    121.04    -0.91940 ( 97.17%)    -0.79464 (  2.83%)    -0.91587
      13    125.68    -0.89777 ( 97.56%)    -0.78350 (  2.44%)    -0.89497
      14    137.87    -0.84474 ( 98.30%)    -0.75608 (  1.70%)    -0.84324
      15    143.34    -0.82253 ( 98.54%)    -0.74454 (  1.46%)    -0.82140
      16    153.28    -0.78448 ( 98.88%)    -0.72469 (  1.12%)    -0.78381
      17    158.84    -0.76432 ( 99.03%)    -0.71412 (  0.97%)    -0.76383
      18    180.12    -0.69383 ( 99.41%)    -0.67688 (  0.59%)    -0.69373
      19    207.29    -0.61640 ( 99.66%)    -0.63526 (  0.34%)    -0.61646
      20    217.20    -0.59102 ( 99.72%)    -0.62142 (  0.28%)    -0.59110
      21    255.74    -0.50407 ( 99.85%)    -0.57304 (  0.15%)    -0.50417
      22    261.87    -0.49172 ( 99.87%)    -0.56602 (  0.13%)    -0.49182
      23    271.81    -0.47246 ( 99.89%)    -0.55498 (  0.11%)    -0.47256
      24    272.57    -0.47104 ( 99.89%)    -0.55416 (  0.11%)    -0.47113
      25    294.94    -0.43095 ( 99.92%)    -0.53079 (  0.08%)    -0.43104
   ------------------------------------------------------------------------

   temp. (K)  partition function   enthalpy   heat capacity  entropy
                                   cal/mol     cal/K/mol   cal/K/mol   J/K/mol
 298.15  VIB  0.171E+14            17502.394    112.449    107.683
         ROT  0.419E+08              888.752      2.981     37.857
         INT  0.716E+21            18391.147    115.430    145.540
         TR   0.113E+29             1481.254      4.968     44.581
         TOT                       19872.4007   120.3980   190.1206   795.4646

       T/K    H(0)-H(T)+PV         H(T)/Eh          T*S/Eh         G(T)/Eh
   ------------------------------------------------------------------------
    298.15    0.316687E-01    0.496442E+00    0.903324E-01    0.406109E+00
   ------------------------------------------------------------------------

         :::::::::::::::::::::::::::::::::::::::::::::::::::::
         ::                  THERMODYNAMIC                  ::
         :::::::::::::::::::::::::::::::::::::::::::::::::::::
         :: total free energy        -101.565148755748 Eh   ::
         ::.................................................::
         :: total energy             -101.971258207030 Eh   ::
         :: zero point energy           0.464773195464 Eh   ::
         :: G(RRHO) w/o ZPVE           -0.058663744181 Eh   ::
         :: G(RRHO) contrib.            0.406109451283 Eh   ::
         :::::::::::::::::::::::::::::::::::::::::::::::::::::

optimized geometry written to: xtbopt.xyz


           -------------------------------------------------
          | TOTAL ENERGY             -101.971258207030 Eh   |
          | TOTAL ENTHALPY           -101.474816325188 Eh   |
          | TOTAL FREE ENERGY        -101.565148755748 Eh   |
          | GRADIENT NORM               0.000048575817 Eh/α |
          | HOMO-LUMO GAP               1.386829696931 eV   |
           -------------------------------------------------

------------------------------------------------------------------------
 * finished run on 2025/09/04 at 03:27:46.375     
------------------------------------------------------------------------
 total:
 * wall-time:     0 d,  0 h,  0 min,  5.390 sec
 *  cpu-time:     0 d,  0 h,  3 min, 26.778 sec
 * ratio c/w:    38.363 speedup
 SCF:
 * wall-time:     0 d,  0 h,  0 min,  0.181 sec
 *  cpu-time:     0 d,  0 h,  0 min,  6.144 sec
 * ratio c/w:    34.006 speedup
 ANC optimizer:
 * wall-time:     0 d,  0 h,  0 min,  3.138 sec
 *  cpu-time:     0 d,  0 h,  2 min,  5.316 sec
 * ratio c/w:    39.932 speedup
 analytical hessian:
 * wall-time:     0 d,  0 h,  0 min,  1.937 sec
 *  cpu-time:     0 d,  0 h,  1 min, 10.541 sec
 * ratio c/w:    36.415 speedup

