75
 energy: -118.145501404497 gnorm: 0.000064768389 xtb: 6.7.1 (edcfbbe)
N           -7.45889249570292        2.92424900955207        2.09142047279207
C           -6.38815095729288        2.82909247112518        1.68448736718245
C           -5.07582265475945        2.71344326475691        1.18867360537847
C           -4.15743043035990        1.86802703681917        1.81944351343547
C           -2.87563014797454        1.75672297923328        1.33349914332402
C           -2.47214080178747        2.48117753122304        0.20433127465763
N           -1.18118753006965        2.36079978670777       -0.28227124222520
C           -0.54207832064005        3.44618774632603       -0.91201248561461
C            0.22316902874302        3.23436833541499       -2.05670198815263
C            0.86942651623390        4.29437035552200       -2.66458165066603
C            0.75730290306400        5.57353015843803       -2.14426138732312
C           -0.00799706298530        5.78800189023584       -1.00928902332419
C           -0.65263488570033        4.73301753026152       -0.39066043551696
C           -0.47816404557230        1.15428054005092       -0.15818943219452
C           -1.11745240737810       -0.05991530845668       -0.39565851186771
C           -0.41033223081047       -1.25130728357729       -0.28203763037085
N           -1.05182155666272       -2.47176729948327       -0.52525292068301
C           -0.57967611438241       -3.48773950782639       -1.33747658741385
C            0.55736271258193       -3.53320402456390       -2.13215624316079
C            0.77943460887667       -4.67452496090030       -2.87961972426305
C           -0.10823823221312       -5.74790245036674       -2.85109360929769
C           -1.25503206400224       -5.69829539702434       -2.08368455395763
C           -1.50018496481392       -4.56066942657137       -1.32529385384869
C           -2.57718507785025       -4.16692303764561       -0.45976889399804
C           -3.74759155052458       -4.79213769136257       -0.04918293947783
C           -4.58461709461082       -4.12421045728691        0.82267193532317
C           -4.25771226351912       -2.85571823898879        1.29687890766128
C           -3.09700045043511       -2.21583865449629        0.90493966231911
C           -2.26434157730255       -2.87005517075743        0.00811234117500
C            0.94137535675807       -1.23248872969464        0.04808373715638
C            1.58272391467100       -0.01797670186347        0.27031513153526
N            2.94272087111125        0.00526201478794        0.59938568424210
C            3.90194252425585        0.80399296045340        0.00323667835382
C            3.77541779997683        1.71564137315969       -1.03530762696471
C            4.91536315589970        2.36913961610356       -1.46407412707726
C            6.15821488920637        2.12035689907709       -0.88575761145164
C            6.29455372166948        1.19739938146890        0.13231031877072
C            5.16259075102729        0.52881922535972        0.58079311506619
C            4.94382078213319       -0.48026033278477        1.58005607968725
C            5.78110075616444       -1.13071935637481        2.47746408066228
C            5.23237186179658       -2.05566060813092        3.34361495935971
C            3.86494453781582       -2.32226912029370        3.33267524375430
C            3.01237919903797       -1.68787347362299        2.44872559886469
C            3.56170269261626       -0.77708765310379        1.55723514394089
C            0.87222914411000        1.17304426060278        0.17906510204643
C           -3.39520800065008        3.33151271650324       -0.41736770126656
C           -4.67832598788029        3.44606143719874        0.06543667475129
H           -4.45893076157613        1.31449674283081        2.69665376530394
H           -2.16243707386866        1.12050310999722        1.83592930755647
H            0.30044277279688        2.23786645926991       -2.46734702652172
H            1.45765460720802        4.12078448621979       -3.55361606163345
H            1.26244729691358        6.39937244352556       -2.62174261899735
H           -0.09752471696575        6.78182289335184       -0.59625653311129
H           -1.24021444312214        4.89894353419557        0.50051438243243
H           -2.15498317144921       -0.07480763319792       -0.69150081504637
H            1.24500505222106       -2.70257747377322       -2.18023024774724
H            1.65995560199176       -4.73327075067678       -3.50278292100069
H            0.10249430224796       -6.62420843104646       -3.44637473899598
H           -1.95306446948737       -6.52193070613195       -2.07480648754035
H           -3.99288495737907       -5.78165420153424       -0.40475466160746
H           -5.50218292075053       -4.59041114541747        1.15035817526592
H           -4.92539843434105       -2.36253015995313        1.98835598004582
H           -2.84944261536234       -1.24065229671802        1.29333048096304
H            1.49092978630979       -2.15648969926227        0.12836629469157
H            2.82190305354007        1.90831028293130       -1.50182074748626
H            4.84120878697945        3.08682045578387       -2.26792367593936
H            7.02570124413113        2.65287830137264       -1.24719179842157
H            7.25994435435633        0.99342612469743        0.57085045611473
H            6.83808606692009       -0.91105983060328        2.49733405347403
H            5.86621100248144       -2.57470080543093        4.04752977626666
H            3.46054473873533       -3.03856861304731        4.03304779707663
H            1.95223112279533       -1.89054479147193        2.46492433397447
H            1.36248665338150        2.11154444093599        0.38538912601288
H           -3.09662863765337        3.89282696694192       -1.28971448980229
H           -5.38884185782784        4.09516436708497       -0.42493511387042
