$hessian                                                                        
        0.5448727957  -0.1114465134  -0.1981507245  -0.2530955763  -0.0368198565
        0.1376020147  -0.0477318377   0.0573313212   0.0027281452  -0.0219102887
       -0.0245843441   0.0228124754  -0.0007344014   0.0017339815  -0.0016497810
       -0.0001990906  -0.0006643350   0.0004414319   0.0001213351  -0.0002387453
       -0.0001713790   0.0000696151   0.0002414708  -0.0001611037   0.0001452061
       -0.0001345605   0.0001585697  -0.0000957726  -0.0001641058  -0.0000204193
       -0.0000295534   0.0003032607  -0.0001097187  -0.0003239600  -0.0001794265
       -0.0002310549  -0.0005803517   0.0002494978  -0.0000957348   0.0002790693
        0.0000669436  -0.0001344393  -0.0000720120   0.0002105010   0.0001553224
        0.0000956473  -0.0000035946   0.0000354151  -0.0000020974   0.0000149909
       -0.0000156092  -0.0000194076  -0.0000358823  -0.0000014025  -0.0000217009
        0.0000058060   0.0000012661   0.0000099438  -0.0000085282   0.0000019739
        0.0000019657   0.0000298517   0.0000034472  -0.0000048940  -0.0000325643
        0.0000079162  -0.0000031505   0.0000057549  -0.0000119884   0.0000167751
        0.0000075544   0.0000019352  -0.0000160445  -0.0000170333  -0.0000012466
       -0.0000097011   0.0000034271  -0.0000012285   0.0000019082  -0.0000051589
        0.0000003431  -0.0000060832  -0.0000012367   0.0000006090  -0.0000015013
        0.0000008279   0.0000004380   0.0000018072   0.0000007640   0.0000006506
       -0.0000029492  -0.0000034010   0.0000003789  -0.0000024347   0.0000059250
        0.0000006041   0.0000029683   0.0000073635   0.0000001871  -0.0000085611
       -0.0000005100  -0.0000039549  -0.0000090407   0.0000024096   0.0000001494
       -0.0002073289  -0.0001966454  -0.0001357981   0.0003346778  -0.0001311929
       -0.0001109718   0.0367051832  -0.0028704991  -0.0190290354  -0.0937925399
        0.0011721203   0.0260652190  -0.1499679913   0.1295714910   0.0057622444
       -0.0062881759  -0.0020646284   0.0046832561  -0.0000714264   0.0045657101
        0.0024835571  -0.0000072250   0.0000013219   0.0000683937   0.0000316762
        0.0000011350   0.0000000483   0.0000008228   0.0000127950   0.0000295997
       -0.0000082982  -0.0000095766  -0.0000084608   0.0000247124  -0.0000073147
        0.0000500930  -0.0002052536   0.0000649261   0.0000659681  -0.0000154180
        0.0000021639  -0.0000278140  -0.0000000048   0.0000016327  -0.0000029347
        0.0000020737   0.0000014416   0.0000087684  -0.0000018740   0.0000003072
        0.0000008304  -0.0000026722   0.0000014196   0.0000007509  -0.0000029773
        0.0000017275   0.0000008084  -0.0000033269   0.0000010425   0.0000000316
       -0.0000040167   0.0000000246   0.0000001558  -0.0000017009   0.0000001835
       -0.0000000750   0.0000039281   0.0000071675   0.0000053539   0.0000027825
       -0.0000391556  -0.0000563698  -0.0003199124   0.0049738747   0.0022883595
       -0.0069443406  -0.0209433273   0.0146645331
       -0.1114465134   0.5861524529  -0.1638479937   0.0261480221  -0.0888367009
        0.0045018408   0.0103217908   0.0286800302  -0.0193553336  -0.0245643322
       -0.0144707792   0.0198422492   0.0017552499  -0.0012813427  -0.0014643857
       -0.0001471849  -0.0001874093  -0.0002837996   0.0001410861  -0.0005505548
       -0.0000886884   0.0001149964   0.0001939343  -0.0000803205   0.0001832267
       -0.0000026234   0.0001413287  -0.0002348168  -0.0001581284  -0.0001465336
       -0.0000681321   0.0003040549  -0.0000948539  -0.0006943069  -0.0000657332
        0.0004773675  -0.0002022899   0.0001097637  -0.0001483343   0.0002442085
        0.0000155612  -0.0001696086  -0.0000792371   0.0001575522   0.0001528891
       -0.0000220249   0.0000033502   0.0000329754  -0.0000154154  -0.0000573974
        0.0000115061   0.0000308899   0.0000346769  -0.0000048065  -0.0000014245
       -0.0000160603   0.0000007916   0.0000107089   0.0000062507  -0.0000050356
        0.0000001627  -0.0000016366  -0.0000029569  -0.0000018802   0.0000026347
       -0.0000049497   0.0000052592   0.0000038701   0.0000072287  -0.0000080950
        0.0000016976  -0.0000115646  -0.0000048352   0.0000224360  -0.0000048479
        0.0000032404   0.0000023765   0.0000020534  -0.0000046979  -0.0000002571
        0.0000006171   0.0000039321  -0.0000026123   0.0000007577   0.0000044687
       -0.0000007409   0.0000007184  -0.0000005817   0.0000016223  -0.0000000213
        0.0000029162  -0.0000013326   0.0000001187   0.0000026146   0.0000022757
       -0.0000007777  -0.0000030446  -0.0000029480  -0.0000007515   0.0000015838
       -0.0000016668   0.0000034273  -0.0000011450   0.0000010581   0.0000002301
       -0.0001815443  -0.0000499948  -0.0000021054   0.0002641799  -0.0000673985
       -0.0000898923   0.0441879453  -0.0570217878   0.0042989644  -0.0618226652
       -0.2506874633   0.1340302498   0.1295638157  -0.1921681435   0.0015913807
       -0.0210124868  -0.0034458063   0.0144011407   0.0049382743  -0.0019269827
        0.0017529974   0.0000268404  -0.0002129141   0.0000304898  -0.0000074757
       -0.0000176864  -0.0000317931  -0.0000293546  -0.0000202714   0.0000168714
        0.0000125766  -0.0000001682   0.0000054088  -0.0000461308  -0.0000110196
       -0.0000696633   0.0000355987  -0.0000115624   0.0000718157   0.0000063922
        0.0000319269   0.0000006107  -0.0000046107   0.0000106259   0.0000040554
       -0.0000028846  -0.0000056745  -0.0000043424   0.0000029588  -0.0000000788
        0.0000008422   0.0000011191   0.0000025817   0.0000010658  -0.0000002202
        0.0000006445   0.0000007518  -0.0000009223   0.0000012628   0.0000008215
        0.0000003521  -0.0000005891  -0.0000001938   0.0000013176   0.0000011473
       -0.0000003123  -0.0000124146  -0.0000096189  -0.0000075257  -0.0000284909
        0.0000390487   0.0000597284   0.0045978166  -0.0016907583   0.0020159997
       -0.0019643861  -0.0027969937   0.0024620981
       -0.1981507245  -0.1638479937   0.3084920141   0.1069696628   0.0420273298
       -0.1300173584   0.0240759949  -0.0470149924   0.0089786559   0.0210722939
        0.0183951537  -0.0290389794  -0.0006325926  -0.0005783546   0.0016046491
        0.0001811723   0.0005298106  -0.0001013770  -0.0001916546   0.0005222388
        0.0001426861  -0.0001215906  -0.0002629694   0.0001640893  -0.0001944955
        0.0000774317  -0.0001783023   0.0001937120   0.0001974242   0.0001033833
        0.0000660267  -0.0003825052   0.0001378887   0.0005765309   0.0001211655
       -0.0000768411   0.0005363824  -0.0002629393   0.0001384521  -0.0003044308
       -0.0000693644   0.0001914194   0.0000755783  -0.0002165971  -0.0001807196
       -0.0000529214   0.0000074437  -0.0000419394   0.0000110282   0.0000134191
        0.0000056951  -0.0000032277   0.0000087564   0.0000038591   0.0000160953
        0.0000040581  -0.0000032655  -0.0000137220   0.0000040937   0.0000028021
        0.0000004965  -0.0000157713  -0.0000024392   0.0000062426   0.0000153343
       -0.0000047861  -0.0000014646  -0.0000061270   0.0000076211  -0.0000054775
       -0.0000038706   0.0000049589   0.0000098348  -0.0000017630   0.0000049911
        0.0000028607  -0.0000033115   0.0000006663   0.0000019134   0.0000017454
       -0.0000002805   0.0000007112   0.0000020840  -0.0000008011  -0.0000011212
        0.0000000044  -0.0000003810   0.0000003846  -0.0000011304  -0.0000007448
        0.0000003295   0.0000014970   0.0000000357  -0.0000004985  -0.0000035621
        0.0000002353   0.0000012326  -0.0000027309   0.0000005135   0.0000032591
        0.0000017641   0.0000011767   0.0000059317  -0.0000019635  -0.0000001445
        0.0002364828   0.0001591250   0.0000993282  -0.0003730989   0.0001326843
        0.0001333824  -0.0422263430   0.0303695349   0.0102333869   0.0573145535
        0.0970760075  -0.1274874502   0.0055632156   0.0014256617  -0.0370066383
        0.0144794090   0.0033057776  -0.0088677480   0.0024098465   0.0022652069
        0.0057609474  -0.0000235588   0.0001448287  -0.0000367458  -0.0000107194
        0.0000170338   0.0000173296   0.0000189050   0.0000018728  -0.0000303956
       -0.0000005829   0.0000050397   0.0000041487   0.0000136292   0.0000076396
        0.0000051244   0.0001522218  -0.0000612562  -0.0000589230   0.0000150201
       -0.0000154991   0.0000179818   0.0000013981  -0.0000058827  -0.0000031151
       -0.0000001757   0.0000014232  -0.0000044547  -0.0000004156  -0.0000001029
       -0.0000013425   0.0000008472  -0.0000016562  -0.0000012668   0.0000015376
       -0.0000009562  -0.0000010912   0.0000018191  -0.0000010414  -0.0000005815
        0.0000022555   0.0000003999  -0.0000001070   0.0000002051  -0.0000000419
       -0.0000000007   0.0000028027   0.0000012283   0.0000016286   0.0000103484
        0.0000093529   0.0000052727   0.0027472464   0.0018278339   0.0057690017
        0.0055293976   0.0140809777  -0.0088851053
       -0.2530955763   0.0261480221   0.1069696628   0.5381430648  -0.0956150018
       -0.2010477766  -0.1871844976   0.0998064443   0.0343108665   0.0340899843
        0.0435643543  -0.0444218926   0.0033532302  -0.0038463352   0.0051576696
        0.0001440533   0.0009292477  -0.0000184253  -0.0002158049   0.0006308902
        0.0002203188  -0.0000647998  -0.0004283914   0.0002850404  -0.0002340893
        0.0002010750  -0.0002509957   0.0001935153   0.0002220997   0.0000032429
        0.0000301531  -0.0005188201   0.0001406960   0.0001502976  -0.0001614863
        0.0004038129   0.0006391722  -0.0002379430   0.0001953500  -0.0001831261
       -0.0001046732   0.0000433650   0.0001474982  -0.0001974107  -0.0001666816
       -0.0001164357  -0.0000046897  -0.0000362594  -0.0000035012  -0.0000407075
        0.0000151072   0.0000488577   0.0000695918   0.0000037902   0.0000027723
       -0.0000130187  -0.0000056027  -0.0000007555   0.0000157677  -0.0000058034
       -0.0000305448  -0.0000648781  -0.0000046282  -0.0000072175   0.0000781911
       -0.0000173303   0.0000100436  -0.0000114139   0.0000215605  -0.0000322297
       -0.0000056109  -0.0000078985   0.0000338440   0.0000220951   0.0000094234
        0.0000216622  -0.0000172462   0.0000040050  -0.0000045065   0.0000212445
        0.0000009334   0.0000117840   0.0000087808   0.0000008661  -0.0000054694
       -0.0000041794   0.0000011483  -0.0000053674   0.0000029727  -0.0000004385
       -0.0000012944   0.0000066640   0.0000003076   0.0000054346  -0.0000145915
       -0.0000004807  -0.0000146899  -0.0000198125   0.0000000458   0.0000253211
        0.0000050033   0.0000078525   0.0000128924  -0.0000030636   0.0000002777
        0.0001984331   0.0002003592   0.0001112626  -0.0001861241   0.0000871856
        0.0000254698  -0.0476761526   0.0223989205   0.0137433485   0.0006158240
       -0.0736970714   0.0369805486  -0.0192346557   0.0008430837   0.0106869272
       -0.0521031559  -0.0405460308   0.0308922509  -0.0193978805   0.0196417162
        0.0027196272   0.0000163006   0.0001263421  -0.0000821209  -0.0000406735
        0.0000108540   0.0000018019   0.0000090353  -0.0000340377  -0.0000366131
        0.0000204976   0.0000054113   0.0000228981   0.0000152930   0.0000013138
       -0.0000267935   0.0000231368   0.0000636393  -0.0002375210  -0.0000112730
        0.0000215644   0.0000356212  -0.0000012074   0.0000095669   0.0000096478
       -0.0000072283  -0.0000100935  -0.0000208298   0.0000018003  -0.0000021720
        0.0000001056   0.0000039581  -0.0000046183   0.0000007547   0.0000048457
       -0.0000019038   0.0000004537   0.0000045886  -0.0000004555   0.0000010094
        0.0000060293   0.0000029296  -0.0000004270   0.0000004479   0.0000027054
       -0.0000004423  -0.0000042609  -0.0000242673  -0.0000293733  -0.0000392986
        0.0000149706   0.0000427833  -0.0004034152   0.0003127243   0.0001262639
        0.0023214604   0.0001541926   0.0032222177
       -0.0368198565  -0.0888367009   0.0420273298  -0.0956150018   0.5884850790
       -0.1747337387   0.1615964367  -0.2289945115  -0.0037717239  -0.0013944874
       -0.0555271536   0.0284724119  -0.0008945471  -0.0007315455   0.0022520981
        0.0000316882  -0.0017191921   0.0012169149   0.0003081229  -0.0000178202
       -0.0001010101   0.0000587880   0.0000838037  -0.0001678421   0.0001416335
       -0.0000025189   0.0001196769  -0.0000567943  -0.0002725838  -0.0000505410
       -0.0001329842   0.0000636557  -0.0001744683  -0.0001087459  -0.0003079199
       -0.0000389402  -0.0007519092   0.0001059217  -0.0004642251   0.0003698163
        0.0000841356  -0.0000928826  -0.0002136432   0.0002403957   0.0002503596
        0.0002201221   0.0000075489   0.0000485247  -0.0000115465   0.0000544682
       -0.0000096645  -0.0000451299  -0.0001024694   0.0000097007  -0.0000316049
        0.0000332822  -0.0000022078   0.0000296753  -0.0000439049   0.0000100400
        0.0000190561   0.0001125711  -0.0000014599   0.0000144360  -0.0001042635
        0.0000083442  -0.0000230828   0.0000126688  -0.0000058118   0.0000657542
        0.0000141550  -0.0000005130  -0.0001003454   0.0000084870  -0.0000107401
       -0.0000263469   0.0000217023  -0.0000024509   0.0000069491  -0.0000272172
       -0.0000011178  -0.0000153079  -0.0000112312  -0.0000016268   0.0000102208
        0.0000039823  -0.0000015170   0.0000095778  -0.0000056336  -0.0000004647
        0.0000056628  -0.0000082219  -0.0000002761  -0.0000050169   0.0000190402
        0.0000003332   0.0000134637   0.0000243749   0.0000001776  -0.0000162557
       -0.0000104107  -0.0000037469  -0.0000192407   0.0000082003  -0.0000006066
       -0.0002090123  -0.0001403786  -0.0001818579   0.0001886584  -0.0001156480
       -0.0001959444   0.0205258200  -0.0086583625  -0.0099258732  -0.0270152268
        0.0163087864   0.0082798487   0.0201312830   0.0000613522  -0.0116805493
       -0.0409156894  -0.2182531749   0.1143023597   0.0006456596   0.0007253769
       -0.0004527593   0.0000277600  -0.0002245614   0.0000865136   0.0000369379
        0.0000184514   0.0000175816  -0.0000180054   0.0000281264   0.0000287960
       -0.0000183501  -0.0000126514  -0.0000052559  -0.0000725247  -0.0000031651
       -0.0000112906   0.0000373444  -0.0000118763   0.0002857689  -0.0000123991
        0.0000038177  -0.0000448311   0.0000159274   0.0000077504  -0.0000099523
        0.0000109591  -0.0000070787   0.0000163052   0.0000016905   0.0000002253
       -0.0000017797  -0.0000029093   0.0000077125  -0.0000024044  -0.0000071871
        0.0000029729  -0.0000019673  -0.0000077058   0.0000003808  -0.0000013990
       -0.0000071259  -0.0000059560   0.0000000399   0.0000011769  -0.0000033880
       -0.0000000507  -0.0000219484   0.0000164586   0.0000388204   0.0000005533
        0.0000360585   0.0000329820   0.0003248706   0.0004185660  -0.0006314113
       -0.0002601128  -0.0028599689   0.0052799747
        0.1376020147   0.0045018408  -0.1300173584  -0.2010477766  -0.1747337387
        0.3201011000   0.0054998405   0.0318104653  -0.0632810855  -0.0212612692
        0.0015302160   0.0109601236   0.0049030798   0.0043301168   0.0016579498
       -0.0008733459   0.0011488398   0.0002655255  -0.0001225743  -0.0001956355
       -0.0001711340   0.0000740699   0.0001992564  -0.0001580154   0.0000680169
       -0.0001335136   0.0001021173   0.0000187778  -0.0000377886  -0.0001218458
        0.0000948947   0.0003516370  -0.0000231444  -0.0007664460  -0.0007615670
        0.0006189759  -0.0002999182   0.0002443914  -0.0003633649   0.0000418795
        0.0000830800  -0.0001373482   0.0000581798   0.0002339386   0.0001678844
       -0.0001014392  -0.0000130927   0.0000386528   0.0000405220  -0.0000219673
        0.0000014071  -0.0000173223   0.0000277936  -0.0000070734   0.0000318158
       -0.0000034905   0.0000014119  -0.0000389987   0.0000211913  -0.0000007301
        0.0000091777  -0.0000368791   0.0000008499   0.0000002668   0.0000213161
        0.0000025677   0.0000061669  -0.0000067935  -0.0000031709  -0.0000288411
       -0.0000075248  -0.0000019374   0.0000622232  -0.0000261622  -0.0000002123
        0.0000028848  -0.0000052754   0.0000005721   0.0000033558   0.0000024553
        0.0000003061  -0.0000002185   0.0000051557   0.0000002153  -0.0000058562
        0.0000004154   0.0000003362  -0.0000004595   0.0000003360  -0.0000001041
       -0.0000035326   0.0000020883   0.0000002107  -0.0000031568  -0.0000047464
        0.0000002905   0.0000048450  -0.0000042820   0.0000001992  -0.0000045846
        0.0000053762  -0.0000014151   0.0000075470  -0.0000048701   0.0000002908
       -0.0003427648  -0.0002157758  -0.0001631699   0.0004886506  -0.0001159657
       -0.0000705118   0.0159565468  -0.0114455164  -0.0079030452   0.0134058675
        0.0366544774  -0.0245706845   0.0015545085  -0.0004300820  -0.0003589487
        0.0304114862   0.1143075595  -0.1091129885   0.0113306668  -0.0118601943
       -0.0008443415  -0.0000211732  -0.0000199098   0.0000624019   0.0000163646
       -0.0000136477  -0.0000088341  -0.0000129039   0.0000073641   0.0000391511
       -0.0000038703   0.0000048114  -0.0000029435   0.0000251087  -0.0000043910
        0.0000501665  -0.0002155222   0.0000357138   0.0000759276   0.0000452322
        0.0000165338   0.0000032673  -0.0000085717  -0.0000057822  -0.0000012090
       -0.0000029356   0.0000123856  -0.0000010792  -0.0000025594   0.0000014230
        0.0000002360  -0.0000005647  -0.0000022027   0.0000004558   0.0000016302
       -0.0000002926   0.0000004806   0.0000016123  -0.0000002252   0.0000001063
        0.0000013108   0.0000022132   0.0000001299  -0.0000012105   0.0000004081
        0.0000001235   0.0000218450   0.0000118011   0.0000010524   0.0000241270
       -0.0000164560  -0.0000248062  -0.0000548878  -0.0005088321   0.0000134184
        0.0034281879   0.0050619996   0.0031825980
       -0.0477318377   0.0103217908   0.0240759949  -0.1871844976   0.1615964367
        0.0054998405   0.5538384146  -0.1137094651  -0.2058416043  -0.0913556136
       -0.0615542450   0.0555171968   0.0028008454   0.0222496346  -0.0087489249
       -0.0026914961   0.0009784654  -0.0010329935   0.0001096959  -0.0002766774
       -0.0000990495  -0.0000084984  -0.0000043981  -0.0001189017   0.0000893614
        0.0000044934   0.0000693755  -0.0001771349   0.0000445900  -0.0002175077
        0.0002504287   0.0014047831   0.0000366860   0.0002641490   0.0022843809
       -0.0015923772  -0.0026741565   0.0004465746  -0.0011749620   0.0010269798
        0.0000411831  -0.0003686467  -0.0006509469   0.0004950631   0.0005224420
        0.0003533935  -0.0000315819   0.0000663687  -0.0000553934   0.0000683898
       -0.0000294374   0.0000176439  -0.0000774226   0.0000272617  -0.0000651579
        0.0000010247  -0.0000151297   0.0000763932  -0.0000411598   0.0000158601
       -0.0000206426   0.0000862041  -0.0000039105   0.0000150311  -0.0000684657
        0.0000020160  -0.0000289042   0.0000304052   0.0000035618   0.0001315435
        0.0000083182  -0.0000089737  -0.0001845429   0.0000627967   0.0000075020
       -0.0000144985   0.0000112824  -0.0000008384   0.0000003245  -0.0000144955
       -0.0000001993  -0.0000063180  -0.0000054939  -0.0000011622   0.0000089539
       -0.0000028103  -0.0000007570   0.0000078459  -0.0000019586  -0.0000006217
        0.0000030052  -0.0000052943   0.0000000544  -0.0000013107   0.0000106854
        0.0000007503   0.0000017892   0.0000108732   0.0000010029   0.0000125336
       -0.0000058123  -0.0000027916  -0.0000142828   0.0000094266  -0.0000006963
       -0.0003510144  -0.0003686361  -0.0000723357   0.0005984375  -0.0000402667
       -0.0000860689   0.0004522252  -0.0250331448   0.0123988221  -0.0030477389
        0.0153929191  -0.0085661406  -0.0025089097   0.0010162995   0.0055493856
        0.0029741637  -0.0026166765  -0.0003186760  -0.2213658379  -0.0135479069
        0.1202514722  -0.0000293603  -0.0001793349   0.0000413698   0.0000322103
        0.0000198916   0.0000120245  -0.0000091426   0.0000299038   0.0000212869
        0.0000237537   0.0000883499  -0.0000181942   0.0000317656  -0.0000259082
        0.0000427319  -0.0007830648   0.0001520835  -0.0004639536   0.0000255853
        0.0000545640  -0.0000900256  -0.0000076305  -0.0000370165  -0.0000195582
        0.0000110065  -0.0000078721   0.0000086471   0.0000006689   0.0000004069
       -0.0000024859  -0.0000008997   0.0000042546  -0.0000021859  -0.0000039409
        0.0000018032  -0.0000017996  -0.0000042231  -0.0000002851  -0.0000013755
       -0.0000024266  -0.0000033490  -0.0000004480   0.0000002588  -0.0000012156
       -0.0000009054   0.0000098003   0.0000107888   0.0000002845   0.0000471665
        0.0000335559  -0.0000831659  -0.0028282078   0.0004273008   0.0054193112
        0.0005922554   0.0002619698  -0.0006044455
        0.0573313212   0.0286800302  -0.0470149924   0.0998064443  -0.2289945115
        0.0318104653  -0.1137094651   0.5699780729  -0.1576053473  -0.0103773301
       -0.2208450040   0.0870360212   0.0121547217  -0.0433537919   0.0148942542
        0.0039386559  -0.0004300597   0.0007897223   0.0002754276   0.0010063144
        0.0007648945  -0.0001810305  -0.0003722783   0.0003814561  -0.0003807848
        0.0001837358  -0.0003860600   0.0004262505   0.0002808518   0.0003019856
       -0.0005565304  -0.0021029266  -0.0000326629  -0.0029245955  -0.0013146524
        0.0016252139   0.0009145267  -0.0005419688   0.0001553437  -0.0003312436
       -0.0000137693   0.0000085360   0.0002070724  -0.0000610742  -0.0000790860
       -0.0003172392  -0.0000016007   0.0000220626   0.0000642685  -0.0001127922
       -0.0000064496   0.0000832420   0.0001390579   0.0000020436   0.0000240095
       -0.0000286772  -0.0000008586  -0.0000238796   0.0000477692  -0.0000051467
       -0.0000637284  -0.0001521680   0.0000004853  -0.0000144061   0.0001529351
       -0.0000103879   0.0000325819  -0.0000124289   0.0000047139  -0.0000780867
       -0.0000136493  -0.0000062602   0.0001133562  -0.0000102477   0.0000210733
        0.0000368442  -0.0000342418   0.0000033900  -0.0000050210   0.0000406185
        0.0000003860   0.0000220334   0.0000264740   0.0000004713  -0.0000193869
       -0.0000056319   0.0000010489  -0.0000103637   0.0000065062  -0.0000007216
       -0.0000122074   0.0000152695   0.0000003117   0.0000055761  -0.0000352559
        0.0000005193  -0.0000231738  -0.0000431118   0.0000014993   0.0000461566
        0.0000198421   0.0000037564   0.0000341223  -0.0000091230   0.0000003427
       -0.0001839042   0.0001621974   0.0002105046  -0.0005238074   0.0002956451
        0.0001703829  -0.0634341671   0.0143186897   0.0313748070   0.0135420465
       -0.0539082662   0.0167529791   0.0005479240   0.0018980686   0.0020378968
        0.0161615828  -0.0227439528   0.0021108279  -0.0139174834  -0.0438866537
        0.0125954190  -0.0003940077  -0.0000435863  -0.0003275325  -0.0000895457
       -0.0000602079  -0.0000257792   0.0000085300  -0.0000226622  -0.0000790629
       -0.0000555964  -0.0001460202   0.0000340429  -0.0000480987   0.0000611722
       -0.0001847656   0.0007095508   0.0004411664   0.0004669587   0.0000509064
        0.0000410344   0.0000534660  -0.0000072505  -0.0000066414   0.0000167811
       -0.0000263949   0.0000359071  -0.0000232101  -0.0000049304   0.0000002812
        0.0000000510   0.0000054795  -0.0000131489   0.0000006661   0.0000143337
       -0.0000049234   0.0000005556   0.0000139841  -0.0000008145   0.0000006253
        0.0000129627   0.0000104523  -0.0000000036  -0.0000017918   0.0000045370
        0.0000001803   0.0000168497   0.0000244891  -0.0000038135  -0.0000326034
        0.0001573146   0.0001740255   0.0010820081   0.0018615147   0.0020112462
        0.0000652850  -0.0005641048  -0.0000492724
        0.0027281452  -0.0193553336   0.0089786559   0.0343108665  -0.0037717239
       -0.0632810855  -0.2058416043  -0.1576053473   0.3130749167   0.0288014518
        0.1228697402  -0.1238519090  -0.0041664673   0.0058950388   0.0009163341
        0.0002747306  -0.0014074520   0.0009531443  -0.0001326866  -0.0002159061
       -0.0002308874   0.0001825634   0.0001250845  -0.0000458089   0.0001345369
       -0.0000502411   0.0001391067  -0.0000778079  -0.0002182803  -0.0000239283
       -0.0000171794  -0.0000359058  -0.0000780299  -0.0006949118  -0.0005396445
       -0.0005093576  -0.0009770797   0.0006469344  -0.0003866931   0.0004566201
        0.0001717352  -0.0003737393  -0.0000023656   0.0001520788   0.0001602627
        0.0000795497   0.0000237220   0.0000884132  -0.0000069794  -0.0000956189
        0.0000095149  -0.0000040675   0.0000023659  -0.0000135617  -0.0000211393
        0.0000059772   0.0000038788   0.0000095341  -0.0000050850  -0.0000027481
        0.0000155646   0.0000507216  -0.0000028553  -0.0000117155  -0.0000485295
        0.0000024241  -0.0000016707   0.0000103991   0.0000029077  -0.0000101749
        0.0000092919  -0.0000145584  -0.0000157054   0.0000111058  -0.0000110716
       -0.0000082239   0.0000098754   0.0000012278  -0.0000027051  -0.0000135504
        0.0000006172  -0.0000057960  -0.0000100790   0.0000007284   0.0000060831
        0.0000014571   0.0000003503   0.0000031076  -0.0000003319   0.0000000055
        0.0000025534  -0.0000051654   0.0000001551  -0.0000016233   0.0000117110
       -0.0000005584   0.0000062448   0.0000111622  -0.0000009747  -0.0000139295
       -0.0000043587   0.0000009488  -0.0000137172   0.0000030427   0.0000002694
       -0.0001855893  -0.0001165230  -0.0001520621   0.0006577772  -0.0002709848
       -0.0001921370   0.0317325042   0.0080824821  -0.0227424717  -0.0074454994
        0.0143146360  -0.0072336361   0.0055407186   0.0020940774   0.0031618391
       -0.0095549827   0.0133783453  -0.0001852745   0.1206801951   0.0130823668
       -0.1115565537   0.0002449153   0.0000725526   0.0002298388   0.0000195096
        0.0000117322  -0.0000146261  -0.0000090032  -0.0000307102   0.0000387892
        0.0000098608  -0.0000199813   0.0000246250   0.0000181398  -0.0000314541
        0.0000553634  -0.0014162119   0.0001868367  -0.0003914058  -0.0000318244
        0.0000379697   0.0000211587   0.0000172462   0.0000513516   0.0000071173
        0.0000018984  -0.0000125011   0.0000026673   0.0000030771   0.0000006656
        0.0000007056  -0.0000028288   0.0000057888   0.0000007183  -0.0000057641
        0.0000022456   0.0000005926  -0.0000057481   0.0000006943   0.0000005200
       -0.0000049512  -0.0000033897  -0.0000000789   0.0000012202  -0.0000007452
       -0.0000000984  -0.0000031465   0.0000002824   0.0000083794  -0.0000552987
        0.0000777013   0.0000393450   0.0052771959   0.0023531344   0.0030557666
       -0.0004674116   0.0001045361   0.0003148237
       -0.0219102887  -0.0245643322   0.0210722939   0.0340899843  -0.0013944874
       -0.0212612692  -0.0913556136  -0.0103773301   0.0288014518   0.5414454107
       -0.0651445522  -0.1849491007  -0.1436202433   0.0821258594   0.0036745974
        0.0105250522   0.0053365134  -0.0041590781  -0.0010789836  -0.0028947553
        0.0006898611  -0.0003267458  -0.0001876299   0.0008564390  -0.0004501278
        0.0000529766  -0.0003532074   0.0002047814   0.0006671889   0.0004246623
       -0.0008347913  -0.0041029343   0.0002123909  -0.0346520827   0.0196843447
        0.0052965363  -0.0003904730   0.0020709982  -0.0002041678   0.0000140574
        0.0001082502  -0.0001377619   0.0006823295   0.0005772649   0.0004106153
       -0.0007441819  -0.0000151750   0.0000074926   0.0001428756  -0.0002685868
        0.0000390723   0.0001828518   0.0003739281  -0.0000120986   0.0000923171
       -0.0000893426   0.0000090661  -0.0000963897   0.0001314574  -0.0000277719
       -0.0001217879  -0.0003814022  -0.0000098088  -0.0000341323   0.0003851090
       -0.0000144543   0.0000699291  -0.0000351594   0.0000287869  -0.0001806784
       -0.0000420956  -0.0000538435   0.0002873097  -0.0000134573   0.0000001039
        0.0000960911  -0.0000829304   0.0000093218  -0.0000180202   0.0000919433
        0.0000002857   0.0000503752   0.0000588043   0.0000007202  -0.0000397799
       -0.0000161236   0.0000013535  -0.0000245428   0.0000118521  -0.0000027143
       -0.0000213347   0.0000335069  -0.0000009644   0.0000043025  -0.0000839311
       -0.0000020219  -0.0000452714  -0.0001020317  -0.0000001500   0.0000975836
        0.0000443404   0.0000160245   0.0000812008  -0.0000260173   0.0000004867
       -0.0019144274  -0.0000526824   0.0013753117  -0.0027237696  -0.0010256740
       -0.0013744009  -0.2268634725  -0.0408831323   0.1263350578  -0.0462864058
        0.0560472651  -0.0004579628   0.0002135050  -0.0006854335   0.0004360295
       -0.0000420867   0.0048671637   0.0029877260  -0.0083310654  -0.0207896062
        0.0150316038  -0.0000180645  -0.0010303055  -0.0011344722  -0.0003092167
       -0.0002620832  -0.0001768985  -0.0000078185  -0.0002299072  -0.0001817284
       -0.0000069441  -0.0003112863   0.0001178606  -0.0000839697   0.0001723416
       -0.0004039956  -0.0006928718   0.0001040341  -0.0008537950   0.0002914083
        0.0001963087   0.0001664908  -0.0000422084   0.0000380070   0.0000525663
       -0.0000387119   0.0000192784  -0.0000579719  -0.0000061639  -0.0000012155
        0.0000019372   0.0000127787  -0.0000301588   0.0000027651   0.0000306451
       -0.0000121292   0.0000012963   0.0000304172  -0.0000059331   0.0000021319
        0.0000339397   0.0000213080  -0.0000016085  -0.0000016345   0.0000099404
       -0.0000005802  -0.0002112283  -0.0001383162  -0.0000556866  -0.0000640949
        0.0000573066   0.0000111668  -0.0055360882  -0.0021781039   0.0053401003
        0.0004465659   0.0041709498   0.0024739072
       -0.0245843441  -0.0144707792   0.0183951537   0.0435643543  -0.0555271536
        0.0015302160  -0.0615542450  -0.2208450040   0.1228697402  -0.0651445522
        0.5678144029  -0.1531330063   0.0811624170  -0.1726934803  -0.0001700007