$hessian                                                                        
        0.4293850735  -0.1737061710   0.1965878756  -0.2112320324   0.0759915223
       -0.1133956089  -0.0145219468   0.0620113592   0.0319513109  -0.0317003290
       -0.0012056844  -0.0299260658  -0.0003635326   0.0004612540   0.0016877604
       -0.0002735231  -0.0001731232  -0.0004686176   0.0000328806   0.0001138444
        0.0001177321  -0.0001113981  -0.0000572756  -0.0000063378   0.0000689769
       -0.0000524424  -0.0001406540   0.0001251053   0.0000794333   0.0001531586
       -0.0000899778  -0.0003582332   0.0000025410   0.0002787352   0.0003490167
       -0.0000346511   0.0001635067  -0.0003421449   0.0001283911   0.0000480273
        0.0001060171   0.0000050283  -0.0003686326  -0.0000250416  -0.0000203953
        0.0001238586  -0.0000697466  -0.0000288324  -0.0003823206  -0.0003102434
        0.0001198587  -0.0000548530   0.0000563204  -0.0000110943   0.0001373562
        0.0000753139   0.0000244553  -0.0002277425  -0.0000148085   0.0000216879
        0.0000193977   0.0000312387  -0.0000107995  -0.0000195708   0.0000194283
        0.0000017063   0.0000984345   0.0000380172  -0.0000399811  -0.0000068507
       -0.0001023170   0.0000163419  -0.0000230189   0.0000500439   0.0000365404
       -0.0000057983   0.0000015238  -0.0000503346  -0.0000163030   0.0000056572
        0.0000173389  -0.0000072888   0.0000147335  -0.0000082556   0.0000069439
       -0.0000093042  -0.0000000576   0.0000110144  -0.0000074145  -0.0000030917
        0.0000190345  -0.0000176967  -0.0000016245  -0.0000048529   0.0000028823
        0.0000074281  -0.0000133314   0.0000093042  -0.0000137671  -0.0000062323
       -0.0000017213  -0.0000061112   0.0000012832   0.0000017552  -0.0000016504
        0.0000057733  -0.0000004547   0.0000109815   0.0000135299  -0.0000086210
        0.0000154962   0.0000705811  -0.0001489418   0.0000496300  -0.0000007512
        0.0000887305  -0.0000186044   0.0001178205  -0.0000316055   0.0000011870
       -0.0000455895   0.0001121011   0.0000089348   0.0000288756  -0.0000764376
        0.0000015045  -0.0000236822   0.0000035007  -0.0000065969   0.0000179420
       -0.0000756393   0.0000072044  -0.0001710695   0.0001626057   0.0000187678
        0.0003783602  -0.0001067543  -0.0000335380  -0.0000328309  -0.0000657655
       -0.0000140169   0.0331080007  -0.0410790634   0.0000380254  -0.1226767869
       -0.0029018679  -0.0820024499  -0.0650700543   0.0742847536   0.0264931104
       -0.0117097353   0.0059894683  -0.0080483710   0.0035917029   0.0039064470
       -0.0018952404  -0.0000080797  -0.0000078832  -0.0000033288   0.0000083525
        0.0000011990  -0.0000007511   0.0000001140   0.0000104848  -0.0000143297
        0.0000268900  -0.0000097107   0.0000055263   0.0000016704  -0.0000250070
       -0.0000616037  -0.0000210803  -0.0000193488   0.0000056006  -0.0000059111
       -0.0000095927  -0.0000185987  -0.0001427490   0.0001705403   0.0000880940
       -0.0000185322   0.0000124394  -0.0000103056  -0.0000041553  -0.0000015569
       -0.0000036345   0.0000046815   0.0000007157   0.0000095760  -0.0000023852
        0.0000028842   0.0000048912  -0.0000031199   0.0000048784  -0.0000112868
        0.0000039825   0.0000033905   0.0000002911   0.0000048098   0.0000016512
       -0.0000038125  -0.0000033819   0.0000050804  -0.0000080416  -0.0000062993
       -0.0000032040   0.0000019825   0.0000002799  -0.0000032256   0.0000023701
        0.0000051715  -0.0000007052   0.0000076402  -0.0000052344  -0.0000012417
        0.0000051780  -0.0000064381  -0.0000003541   0.0000018392   0.0000018451
        0.0000032775   0.0000012943   0.0000025167  -0.0000046015  -0.0000098197
       -0.0000007025  -0.0000045711  -0.0000019905  -0.0000074017  -0.0000021316
       -0.0000028916  -0.0000089310  -0.0000019949   0.0000008393   0.0034730133
        0.0043070852  -0.0015905072  -0.0119811049  -0.0074462501  -0.0197314707
       -0.1737061710   0.5437322259   0.1632296353   0.1230135380  -0.1364130098
        0.0600403233   0.0260554801  -0.0344938317   0.0005706148  -0.0020793850
        0.0047809008   0.0068425067   0.0010090833  -0.0032317312  -0.0014827162
        0.0004687860   0.0003249817   0.0007876371  -0.0000582281  -0.0000974772
       -0.0000329146   0.0000803328   0.0000896374   0.0000365044  -0.0000510940
       -0.0000338911   0.0000072541   0.0000298209   0.0001006767   0.0000537559
       -0.0001851472  -0.0000930236  -0.0001078163  -0.0005464503   0.0002913543
       -0.0003694862  -0.0001308144   0.0001060734  -0.0000759488   0.0001611581
        0.0001146746  -0.0000038333  -0.0002200906  -0.0001112881   0.0000125341
       -0.0003173643   0.0000264087  -0.0000351114   0.0004047246  -0.0001308291
       -0.0000703167   0.0000046368   0.0000789591  -0.0000273223   0.0001467750
        0.0000977287  -0.0000073639  -0.0001150602   0.0000054373   0.0000150166
        0.0000030499   0.0000314731  -0.0000089530  -0.0000136168   0.0000107400
       -0.0000040201   0.0000421164   0.0000226677  -0.0000165842   0.0000327719
       -0.0000311760   0.0000107352  -0.0000452468   0.0000333138  -0.0000190457
       -0.0000067882  -0.0000309850   0.0000357778  -0.0000079164   0.0000067154
       -0.0000029777  -0.0000094502   0.0000044644   0.0000070098   0.0000030188
       -0.0000066353   0.0000064390   0.0000043234  -0.0000111184   0.0000083846
        0.0000062023  -0.0000053455  -0.0000178287   0.0000463076   0.0000103170
       -0.0000273165  -0.0000106483  -0.0000001013   0.0000006526   0.0000003761
       -0.0000001136  -0.0000095907   0.0000048431  -0.0000034397   0.0000009220
        0.0000094661   0.0000036678   0.0000056486  -0.0000022645   0.0000014659
        0.0000126110   0.0000356435  -0.0000474543   0.0000174470  -0.0001331593
        0.0001276155  -0.0000066307   0.0001024325  -0.0001036876  -0.0000005525
       -0.0000219546   0.0000999663   0.0000028399   0.0000214463  -0.0000795867
       -0.0000062569  -0.0000027177  -0.0000130771   0.0000002966  -0.0000277529
       -0.0000755630   0.0000001826  -0.0000762421   0.0000999323   0.0000025487
        0.0001312266  -0.0001518260   0.0000156058   0.0001374284   0.0000030850
       -0.0000102867  -0.0060084636  -0.0230704994  -0.0279753005  -0.0496209243
       -0.1189447090  -0.1112180796   0.0742349364  -0.2384102285  -0.0874451779
       -0.0076545207   0.0054458385  -0.0051753502   0.0040737124  -0.0025144720
       -0.0040497674  -0.0000177344  -0.0000030600   0.0000341920  -0.0000171399
        0.0000010016  -0.0000145057  -0.0000113810  -0.0000066076   0.0000038028
       -0.0000333968  -0.0000244727   0.0000003609  -0.0000522731  -0.0001104542
       -0.0000362732   0.0000147339   0.0000498463  -0.0000495792   0.0000060932
        0.0000061313   0.0000293679   0.0001610843  -0.0001068294  -0.0000542018
        0.0000297662   0.0000047832  -0.0000111222   0.0000062811   0.0000017052
       -0.0000009766  -0.0000042516  -0.0000051292   0.0000074365  -0.0000125077
       -0.0000021078  -0.0000012138   0.0000073861  -0.0000043056   0.0000114992
        0.0000018257  -0.0000068087  -0.0000052708  -0.0000053224  -0.0000007787
       -0.0000028416  -0.0000036538   0.0000030438   0.0000055464  -0.0000024213
        0.0000008563   0.0000054780   0.0000061397  -0.0000017650  -0.0000029848
       -0.0000056250   0.0000010628   0.0000037033  -0.0000000577   0.0000024296
        0.0000010209  -0.0000030621  -0.0000002619  -0.0000025933   0.0000019206
        0.0000011395  -0.0000035712   0.0000001769   0.0000011773  -0.0000021208
       -0.0000035415   0.0000075084   0.0000031587   0.0000046966   0.0000061544
       -0.0000001228   0.0000118587   0.0000059893  -0.0000012413   0.0040510279
       -0.0025135666  -0.0044216761   0.0066572113   0.0051480976   0.0109883938
        0.1965878756   0.1632296353   0.4592362913  -0.0746604800   0.0079607230
       -0.1213598338   0.0036504790   0.0383947867   0.0364465322  -0.0288993513
        0.0076735728  -0.0325616267   0.0007420476  -0.0019037102   0.0003826075
        0.0000137441  -0.0000607081   0.0000946475  -0.0000151228   0.0000971412
        0.0001707476  -0.0001098209  -0.0000193609   0.0000394586   0.0000615285
       -0.0000766837  -0.0001632879   0.0001949671   0.0001661572   0.0002463958
       -0.0002374034  -0.0006077922  -0.0001204079  -0.0001670350   0.0005794562
       -0.0002524849   0.0001223973  -0.0003397711   0.0001112541   0.0001508795
        0.0001993376   0.0000149299  -0.0005635185  -0.0001448598  -0.0000361400
       -0.0000611945  -0.0000288112  -0.0000294144  -0.0002135804  -0.0003306236
        0.0002269370  -0.0000442647   0.0001257899  -0.0000308006   0.0002193855
        0.0001711312   0.0000230122  -0.0003250146   0.0000204136   0.0000278940
        0.0000013240   0.0000419352  -0.0000187923  -0.0000048928   0.0000156090
        0.0000006167   0.0001311535   0.0000756889  -0.0000729736   0.0000599871
       -0.0001507415   0.0000260625  -0.0000693473   0.0000916766   0.0000292012
       -0.0000105291  -0.0000202981  -0.0000436242  -0.0000309894   0.0000182160
        0.0000228895  -0.0000154393   0.0000210213  -0.0000083718   0.0000085044
       -0.0000139293   0.0000004682   0.0000164176  -0.0000151595   0.0000026641
        0.0000302131  -0.0000258752  -0.0000117185   0.0000251599   0.0000088832
        0.0000030466  -0.0000313010   0.0000154745  -0.0000134787  -0.0000029272
       -0.0000030738  -0.0000170570   0.0000034423   0.0000060946   0.0000001466
        0.0000141063  -0.0000068700   0.0000125872   0.0000142730  -0.0000141971
        0.0000284486   0.0000834184  -0.0001900888   0.0000625796  -0.0001131461
        0.0002012523  -0.0000328328   0.0002096389  -0.0001267897   0.0000108084
       -0.0000601793   0.0001812607   0.0000001107   0.0000436836  -0.0001332483
        0.0000108916  -0.0000204125  -0.0000038119  -0.0000055073  -0.0000001976
       -0.0001266174   0.0000195862  -0.0002439822   0.0002327247   0.0000230002
        0.0005093013  -0.0002249418  -0.0000297508   0.0000694917  -0.0000940943
       -0.0000178505   0.0293824746  -0.0649533404  -0.0219228060  -0.1207256301
       -0.0595059460  -0.2260569305   0.0265920483  -0.0874132552  -0.0762603734
       -0.0201263754   0.0102480558  -0.0120376005  -0.0015484226  -0.0044515803
        0.0025515731  -0.0000306489  -0.0000113548   0.0000235975  -0.0000035375
       -0.0000022283  -0.0000070373  -0.0000105348   0.0000063572  -0.0000132499
       -0.0000009192  -0.0000365285   0.0000020934  -0.0000335689  -0.0001762413
       -0.0001115538  -0.0000098382   0.0000208327  -0.0000297059  -0.0000009772
       -0.0000068903  -0.0000060307  -0.0000695216   0.0001586109   0.0001076636
       -0.0000048732   0.0000173089  -0.0000193516   0.0000002281  -0.0000052739
       -0.0000043616  -0.0000001204  -0.0000061045   0.0000161543  -0.0000116909
        0.0000014829   0.0000032805   0.0000116230  -0.0000017018  -0.0000013398
        0.0000053510   0.0000014006  -0.0000041454   0.0000023150   0.0000028232
       -0.0000049595  -0.0000070011   0.0000085736  -0.0000042382  -0.0000111041
       -0.0000024808  -0.0000025477  -0.0000000819  -0.0000020498   0.0000011172
       -0.0000005366  -0.0000023383   0.0000106212  -0.0000060890  -0.0000002100
        0.0000042830  -0.0000098137  -0.0000006720  -0.0000003614   0.0000036496
        0.0000059905  -0.0000028699   0.0000037733  -0.0000033229  -0.0000139437
       -0.0000024862   0.0000014835   0.0000036214  -0.0000016208   0.0000009243
        0.0000002973  -0.0000054025   0.0000054086   0.0000049778  -0.0018314911
       -0.0040228243   0.0027467147  -0.0086124667  -0.0047408336  -0.0114204505
       -0.2112320324   0.1230135380  -0.0746604800   0.4318455475  -0.1617809768
        0.2106664875  -0.0975916694   0.0585509004  -0.0086939780   0.0296636817
       -0.0037948460   0.0309754580   0.0033558222  -0.0033641548  -0.0072063538
        0.0002384871   0.0002310623   0.0002933751  -0.0001000684  -0.0002723064
       -0.0000992549   0.0000891916   0.0000675888   0.0000526556  -0.0000785565
        0.0000529798   0.0001594015  -0.0000981327  -0.0000902902  -0.0002130769
        0.0000613520   0.0004098394   0.0000507844  -0.0007807987  -0.0002739702
       -0.0006840112  -0.0000418910   0.0000537286   0.0000344982   0.0001443644
        0.0000310948   0.0000629873  -0.0000398464  -0.0000894043   0.0000135994
       -0.0002859548  -0.0000923064   0.0000623101   0.0005142230   0.0000903655
       -0.0001544711   0.0001237387   0.0001409245  -0.0000539125  -0.0000072628
        0.0000438731  -0.0000137922  -0.0000231717   0.0001240206  -0.0000099673
       -0.0000896574  -0.0000532239  -0.0000085552   0.0001069367  -0.0000221538
        0.0000030017   0.0000185631   0.0000694682  -0.0000729365   0.0002555898
       -0.0001134236   0.0000409212  -0.0001462308   0.0001309624  -0.0000194715
       -0.0000126807  -0.0000382343  -0.0000139725  -0.0000288630   0.0000143255
        0.0000168789  -0.0000299152   0.0000255149   0.0000004010   0.0000120139
       -0.0000190904   0.0000024833   0.0000251753  -0.0000175289   0.0000006709
        0.0000358395  -0.0000354322  -0.0000232657   0.0000587068   0.0000262687
       -0.0000180669  -0.0000289828   0.0000087118  -0.0000094224  -0.0000106419
       -0.0000074422  -0.0000207743   0.0000024289   0.0000009942   0.0000001202
        0.0000131409  -0.0000032347   0.0000226718   0.0000109378  -0.0000122867
        0.0000349142  -0.0001506622  -0.0001521796   0.0000802261  -0.0001356317
        0.0002774649  -0.0000359575   0.0000592932  -0.0001823704   0.0000090771
       -0.0000104065   0.0001604058   0.0000003285  -0.0000413982  -0.0001332235
        0.0000134126   0.0001148007  -0.0000464155  -0.0000113473  -0.0000821655
        0.0000313652   0.0000146273   0.0000413426  -0.0000414307   0.0000082467
       -0.0000224080  -0.0001153141   0.0000226395   0.0001987365   0.0000442040
       -0.0000146898  -0.0237302149   0.0291071822   0.0029196047  -0.0264911250
       -0.0298231662  -0.0551480407  -0.0081781416   0.0068125501  -0.0039823642
       -0.0914278740  -0.0411712309  -0.0969312958  -0.0083320049   0.0210511015
        0.0069632306   0.0000144261   0.0000101788   0.0000040232   0.0000122005
        0.0000030124  -0.0000181350   0.0000084076  -0.0000129096   0.0000085590
       -0.0000002343   0.0000040111  -0.0000069163   0.0000211196   0.0000051406
        0.0000132806  -0.0000181762   0.0000527010  -0.0000462910  -0.0000089911
       -0.0000074487   0.0000131808   0.0000263209  -0.0000136315   0.0001545139
       -0.0000020491   0.0000021871   0.0000244012   0.0000087964  -0.0000160685
        0.0000044427  -0.0000089277  -0.0000296840   0.0000170674  -0.0000358606
       -0.0000035123   0.0000022996   0.0000011075   0.0000029345   0.0000045490
        0.0000071616   0.0000039504  -0.0000058639   0.0000073508   0.0000098009
       -0.0000091093  -0.0000081804   0.0000138497  -0.0000065245  -0.0000141432
        0.0000024875   0.0000117607   0.0000134603  -0.0000061209  -0.0000082483
        0.0000083449  -0.0000042591   0.0000123491  -0.0000106554  -0.0000028586
        0.0000069333  -0.0000148770   0.0000000836  -0.0000011258   0.0000079794
        0.0000061322  -0.0000131273  -0.0000036877  -0.0000018553  -0.0000028294
       -0.0000125143   0.0000099920   0.0000014935  -0.0000131898   0.0000173098
       -0.0000022737  -0.0000042260   0.0000193417  -0.0000051726  -0.0001484101
        0.0002541002   0.0004201446   0.0024059226   0.0008563363  -0.0049989365
        0.0759915223  -0.1364130098   0.0079607230  -0.1617809768   0.5278440912
        0.1625247410   0.1057332389  -0.2679411107  -0.0695913446  -0.0375331008
       -0.0256851160  -0.0625807858   0.0001411283   0.0045177604   0.0004948751
       -0.0009469398  -0.0004921375  -0.0016441010   0.0000593409   0.0002628212
        0.0003132110  -0.0002387622  -0.0002571376  -0.0000165892   0.0001662277
       -0.0000244409  -0.0001941637   0.0001169288  -0.0000107818   0.0002111078
        0.0002688848  -0.0003884332  -0.0000097309   0.0005298308   0.0001007404
       -0.0001558604   0.0004582524  -0.0004623951   0.0003245669  -0.0004228733
       -0.0000655121   0.0000670293  -0.0001170492   0.0001906830  -0.0000796876
        0.0001952185  -0.0000430587  -0.0000722512  -0.0008376590  -0.0005031772
        0.0004931003   0.0000603004  -0.0000024428   0.0000539923  -0.0000637885
        0.0000519638   0.0000179843  -0.0001173075  -0.0000027587   0.0000038174
       -0.0000246633  -0.0000159214   0.0000019165   0.0000124981   0.0000308622
       -0.0000003416   0.0000822605   0.0000423007  -0.0000406247  -0.0000629483
       -0.0000628483   0.0000096345   0.0000160818   0.0000338512   0.0000337939
       -0.0000147718  -0.0000157670  -0.0000049271  -0.0000346321   0.0000127698
       -0.0000037919  -0.0000097922   0.0000294937   0.0000096341   0.0000058156
       -0.0000069617   0.0000027292   0.0000076055  -0.0000158797   0.0000039974
        0.0000134306  -0.0000046544  -0.0000215440  -0.0000005666   0.0000062310
       -0.0000043911  -0.0000193361   0.0000104447  -0.0000224684  -0.0000051227
        0.0000006075  -0.0000127135   0.0000040431  -0.0000083846  -0.0000088183
        0.0000128405   0.0000066798   0.0000058372   0.0000081456  -0.0000110926
        0.0000194692   0.0000641064  -0.0001176184   0.0000289048   0.0000902606
       -0.0000038310  -0.0000108898  -0.0000009629   0.0000435482   0.0000075847
        0.0000022110  -0.0000195966   0.0000159372   0.0000229985  -0.0000215382
       -0.0000078304  -0.0000074369   0.0000123758  -0.0000127760  -0.0000125375
       -0.0000031567  -0.0000179444  -0.0000492466   0.0000479351   0.0000329642
        0.0000821063   0.0000885864  -0.0000570559  -0.0001368905  -0.0000641872
       -0.0000163439   0.0276415444  -0.0380600080   0.0023947953   0.0037124693
        0.0450329872   0.0405650418   0.0210820203  -0.0147946074   0.0098627958
       -0.0420288177  -0.0797979851  -0.0817878729   0.0070416639  -0.0146494043
       -0.0049154978  -0.0000535582  -0.0000006134   0.0000196583  -0.0000314709
        0.0000098319   0.0000088351  -0.0000114193   0.0000252512  -0.0000065850
        0.0000107715   0.0000098715   0.0000011924  -0.0000614414  -0.0001317052
       -0.0001309397   0.0000382738   0.0000111017   0.0000229129   0.0000066512
        0.0000262315  -0.0000971782  -0.0000701101   0.0002438477  -0.0001216837
        0.0000370854   0.0000323858  -0.0000584771  -0.0000027913   0.0000078771
       -0.0000052190   0.0000016443   0.0000164225   0.0000082072   0.0000167190
       -0.0000011337  -0.0000020816   0.0000159641   0.0000059629   0.0000179594
        0.0000048240  -0.0000025907  -0.0000098162  -0.0000177053   0.0000018602
       -0.0000028630  -0.0000020396   0.0000039475   0.0000095226   0.0000056773
       -0.0000095717  -0.0000072784  -0.0000082462  -0.0000059421   0.0000064106
       -0.0000210145   0.0000019089   0.0000025945   0.0000024608   0.0000052295
       -0.0000023942  -0.0000007760  -0.0000002069  -0.0000063141  -0.0000085111
        0.0000075107   0.0000096813  -0.0000040522  -0.0000102907  -0.0000101664
       -0.0000043352   0.0000038475   0.0000115071   0.0000211795   0.0000045454
        0.0000073122   0.0000342705  -0.0000144693   0.0000179398   0.0003815562
       -0.0002322414   0.0003025526   0.0005636003   0.0015893531  -0.0041551277
       -0.1133956089   0.0600403233  -0.1213598338   0.2106664875   0.1625247410
        0.4790422442   0.0283204224  -0.1186572656  -0.1117864754   0.0039364660
       -0.0267462590  -0.0191982633  -0.0061907393  -0.0022195616  -0.0005448921
        0.0001146055  -0.0016419730  -0.0009430703  -0.0002492338  -0.0001275869
        0.0000104496  -0.0001031328  -0.0000270901  -0.0001057231   0.0000592741
        0.0000323612   0.0000072513  -0.0000468322  -0.0000025098  -0.0000428074
        0.0003096990  -0.0000252719  -0.0001292898   0.0004971294  -0.0001909281
        0.0006232510  -0.0003686260   0.0003309760   0.0000417114   0.0002709803
       -0.0000300830  -0.0000505388  -0.0000539831   0.0000483045  -0.0000053877
        0.0001430417  -0.0000560586   0.0000117559  -0.0000238234   0.0000866084
       -0.0000700602  -0.0000416307   0.0000256759   0.0000147602  -0.0000017718
       -0.0001210800  -0.0000045288  -0.0000087680   0.0001304781  -0.0000275254
       -0.0001166324  -0.0000694114  -0.0000008250   0.0000962437  -0.0000010987
        0.0000019168   0.0000201869   0.0000120564  -0.0000645309   0.0002840690
       -0.0000375237   0.0000353296  -0.0001096920   0.0001111088   0.0000107853
       -0.0000177986  -0.0000290840  -0.0000284111  -0.0000616550   0.0000248677
        0.0000120643  -0.0000383417   0.0000413263  -0.0000003081   0.0000097812
       -0.0000269219   0.0000039798   0.0000330649  -0.0000330020  -0.0000075258
        0.0000472889  -0.0000386958  -0.0000341294   0.0000466104   0.0000230262
       -0.0000068415  -0.0000430639   0.0000213919  -0.0000215515  -0.0000159151
       -0.0000020924  -0.0000290001   0.0000081910   0.0000052850  -0.0000033194
        0.0000220179  -0.0000042466   0.0000230228   0.0000136647  -0.0000225743
        0.0000479255  -0.0002247320  -0.0002501534   0.0000952058   0.0000907893
        0.0002462158  -0.0000468042  -0.0000267936  -0.0001148830   0.0000152569
        0.0000139454   0.0000939936  -0.0000091528  -0.0000692587  -0.0001158710
        0.0000161557   0.0001554959  -0.0000535778  -0.0000175646  -0.0001130614
        0.0001034323   0.0000018159   0.0001264706  -0.0001196678  -0.0000032659
       -0.0000874829   0.0000173629   0.0000077329   0.0000159770   0.0001662964
       -0.0000328994   0.0009755624   0.0048928653   0.0007002909  -0.0272351851
        0.0023054087  -0.0257396922   0.0077530184  -0.0053647012   0.0044726245
       -0.0966665521  -0.0820210434  -0.2084287840  -0.0039910855   0.0105492979
        0.0044567227  -0.0000381149  -0.0000002476   0.0000439808  -0.0000295170
       -0.0000144715  -0.0000099219   0.0000032996  -0.0000062619   0.0000188540
       -0.0000141746   0.0000077101  -0.0000091398  -0.0000255801  -0.0000728639
       -0.0000182605   0.0000034984   0.0000489429  -0.0000125325  -0.0000232909
        0.0000244265  -0.0000117830   0.0002256490  -0.0000941034  -0.0001568589
        0.0000140286  -0.0000160992   0.0000238913   0.0000109079  -0.0000177796
        0.0000161799  -0.0000114902  -0.0000197075   0.0000262227  -0.0000208589
       -0.0000039478   0.0000029008   0.0000215423  -0.0000011770   0.0000289502
        0.0000079018  -0.0000026377  -0.0000117424  -0.0000063532   0.0000027920
       -0.0000097702  -0.0000085072   0.0000098501   0.0000007295  -0.0000082767
       -0.0000055533  -0.0000041904   0.0000035369  -0.0000014705  -0.0000026026
       -0.0000102191   0.0000025896   0.0000122166  -0.0000063788   0.0000067032
        0.0000036501  -0.0000125671   0.0000014867  -0.0000047303   0.0000013405
        0.0000106395  -0.0000052380  -0.0000089069  -0.0000070449  -0.0000062796
       -0.0000175944   0.0000148195   0.0000053353   0.0000076492   0.0000231005
       -0.0000022210   0.0000231898   0.0000045588  -0.0000007788   0.0004555465
        0.0002847404   0.0004406605  -0.0052653441  -0.0038621821  -0.0012667724
       -0.0145219468   0.0260554801   0.0036504790  -0.0975916694   0.1057332389
        0.0283204224   0.4307542994  -0.1863601817   0.1972107929  -0.1207122866
       -0.0382743577  -0.1088242404   0.0084040313  -0.0026661290   0.0025137724
       -0.0002115234   0.0009823141   0.0011139681   0.0000012449   0.0002121352
        0.0000219857   0.0001424476   0.0001244821   0.0001801240  -0.0000662399
       -0.0000157119   0.0000522071   0.0000496563   0.0000349191  -0.0000064679
       -0.0000728422  -0.0001305760  -0.0001250223  -0.0003742196   0.0020523790
        0.0012481539   0.0002203686  -0.0003636556   0.0000143959   0.0002936144
        0.0003445550  -0.0001367480  -0.0013105285   0.0001180820  -0.0001049968
       -0.0003491455  -0.0004360196   0.0001077327  -0.0011390647  -0.0003751413
        0.0012368737   0.0000099936   0.0004651996  -0.0000851219   0.0006073644
        0.0001166810   0.0000328569  -0.0007498387   0.0002148151   0.0000112244
       -0.0001263135   0.0000218214  -0.0000435047   0.0000887917   0.0000603684
       -0.0000021149   0.0003473302   0.0001186359  -0.0002422786   0.0006467683
       -0.0004055480   0.0001328583  -0.0003356455   0.0004267913   0.0000568064
       -0.0000610851  -0.0000894534  -0.0001522224  -0.0001388488   0.0000729706
        0.0000691821  -0.0001000528   0.0001341412  -0.0000024921   0.0000382891
       -0.0000709347   0.0000106330   0.0000982036  -0.0000755893  -0.0000061284
        0.0001334622  -0.0001136672  -0.0000802098   0.0000774019   0.0000672786
        0.0000043521  -0.0001148321   0.0000563206  -0.0000740701  -0.0000531579
       -0.0000154353  -0.0000702173   0.0000181103   0.0000063264  -0.0000146229
        0.0000526219  -0.0000036152   0.0000839948   0.0000493479  -0.0000623848
        0.0001288549  -0.0001884147  -0.0009372552   0.0003467610  -0.0001008544
        0.0009823357  -0.0001465783   0.0004732301  -0.0005215910   0.0000167763
       -0.0001459062   0.0007230758   0.0000175056  -0.0000171226  -0.0005808641
        0.0000289707   0.0002256591  -0.0001199862  -0.0000441279  -0.0002165204
       -0.0001810644   0.0000308842  -0.0003233482   0.0003698066   0.0000602635
        0.0008785924  -0.0006046474  -0.0000411293   0.0003185795   0.0002171447
       -0.0001201647  -0.0220905129   0.0016403965  -0.0245106432   0.0001535327
       -0.0044708060   0.0014521324  -0.0003384178   0.0047072929  -0.0046060653
        0.0037049889  -0.0107265363  -0.0051102991  -0.1850776777   0.0974103144
       -0.0903482692   0.0000120829  -0.0000121182   0.0000144820   0.0000298159
       -0.0000016579  -0.0000097551  -0.0000170148   0.0000152452  -0.0000116325
       -0.0000054323  -0.0000256296   0.0000165611  -0.0002064791  -0.0000956906
       -0.0000506979   0.0000378298   0.0001003657  -0.0000269240  -0.0000060512
        0.0000030732   0.0000345957  -0.0006594612   0.0003634195   0.0009045549
        0.0000013281  -0.0000360340   0.0000014646   0.0000206877  -0.0000524926
        0.0000014315  -0.0000056777  -0.0000469291   0.0000704866  -0.0000576560
       -0.0000030068   0.0000156286   0.0000081326   0.0000129780   0.0000024860
        0.0000336693   0.0000014535  -0.0000305460   0.0000146865   0.0000210199
       -0.0000346874  -0.0000240487   0.0000370111  -0.0000285192  -0.0000323021
       -0.0000171107   0.0000125900   0.0000170813  -0.0000220486  -0.0000044985
        0.0000143396  -0.0000035410   0.0000397583  -0.0000277198   0.0000006162
        0.0000205141  -0.0000383126   0.0000010574  -0.0000053673   0.0000117544
        0.0000275084  -0.0000141079  -0.0000084423  -0.0000296777  -0.0000304084
       -0.0000412672   0.0000207851   0.0000041337  -0.0000205084   0.0000572089
       -0.0000108035   0.0000152304   0.0000586119   0.0000004802  -0.0006770929
        0.0041587001  -0.0046037357   0.0003509133  -0.0004012683   0.0004652872
        0.0620113592  -0.0344938317   0.0383947867   0.0585509004  -0.2679411107
       -0.1186572656  -0.1863601817   0.5419191078   0.1478528966  -0.0075167193
       -0.0959773508  -0.0453668813  -0.0063742886  -0.0338282250  -0.0336329325
        0.0044162870  -0.0015618837  -0.0016929524  -0.0012806968  -0.0019243444
       -0.0009434494   0.0004329098   0.0001579116  -0.0002864064  -0.0002158678
        0.0000106589   0.0002216873   0.0000187434   0.0001630836  -0.0001806695
        0.0000096358   0.0007686167  -0.0000309485  -0.0042288199  -0.0007868186
       -0.0022952145  -0.0004419686   0.0003929486  -0.0000985195   0.0000850486
        0.0001872018   0.0000814960   0.0001219395  -0.0003827159   0.0000402238
       -0.0007612194   0.0000463151  -0.0000268127   0.0016268823   0.0003285063
       -0.0005113418   0.0002029660   0.0002221448  -0.0000221886   0.0000172212
        0.0002143377  -0.0000282814   0.0000199870   0.0000199475   0.0000177027
       -0.0000208170   0.0000036289   0.0000007145   0.0000544775  -0.0000406250
        0.0000125953  -0.0000308218   0.0000758470  -0.0000101824   0.0000128183
       -0.0001024033   0.0000202674  -0.0000677206   0.0000365488  -0.0000611852
        0.0000058013  -0.0000184032   0.0000384159   0.0000437609  -0.0000189782
       -0.0000055033   0.0000028465  -0.0000205785  -0.0000043793   0.0000008996
        0.0000026831  -0.0000038815  -0.0000114739   0.0000102133   0.0000106147
       -0.0000263889   0.0000133707  -0.0000012074   0.0000143190   0.0000150867
       -0.0000018869   0.0000136405  -0.0000121045   0.0000252414   0.0000011068
        0.0000009390   0.0000127848  -0.0000091092   0.0000029989  -0.0000007872
       -0.0000132794   0.0000003153   0.0000045716  -0.0000083420   0.0000153692
       -0.0000197385   0.0000581910   0.0001236692  -0.0000143039  -0.0004111115
        0.0001592502   0.0000083553   0.0001113045  -0.0001636242  -0.0000078141
       -0.0000490290   0.0001527905  -0.0000035785   0.0000054206  -0.0000752271
        0.0000009132   0.0000029578  -0.0000148100  -0.0000079587  -0.0000318728
       -0.0000304001   0.0000169678  -0.0000450275   0.0000447047   0.0000215840
       -0.0001006345  -0.0002238992   0.0000272014   0.0004349808  -0.0000783166
       -0.0000060211  -0.0232183807   0.0377042003   0.0035517113  -0.0064590520
       -0.0326265389  -0.0308045906   0.0044842769   0.0008088561  -0.0003948455
        0.0034261152  -0.0120663893  -0.0074762478   0.0973206923  -0.1021801339
        0.0530179912  -0.0000371163   0.0000130599   0.0000968017  -0.0000832836
       -0.0001016043  -0.0001349736  -0.0000224338  -0.0000531597  -0.0000028952