85
 energy: -139.081057269538 gnorm: 0.000101362829 xtb: 6.7.1 (edcfbbe)
C           -8.67661920276293        0.24688166684457       -1.23782531740068
C           -7.81730575099254        0.03116219091993        0.00322764522832
C           -8.67757140513933       -0.17786998273101        1.24476569453504
C           -6.86552340790465       -1.17585859639713       -0.20089406100783
O           -7.28503398056802       -2.31143662096031       -0.39628128594464
C           -5.53352992562733       -0.68168379710043       -0.11786729785225
C           -4.32765049099658       -1.37471184856947       -0.22535977271340
C           -3.13237093506586       -0.69917650815329       -0.09591687677479
C           -1.87315644504525       -1.44649514255300       -0.09743895913970
C           -0.88884554028126       -1.18708974973701        0.86157910454592
C            0.32494500261945       -1.83684247113752        0.82227571290979
C            0.58314198104488       -2.76835381748887       -0.17827058387441
N            1.86510548886263       -3.37272750799291       -0.25168579588029
C            2.95977058244104       -2.61123749069459       -0.63800757255909
C            2.82484393367838       -1.30338466995490       -1.09320989899309
C            3.93831638721484       -0.56848829672018       -1.46178167656695
C            5.20147375377266       -1.12519406117227       -1.38613847903893
C            5.35121179244807       -2.43564572233234       -0.96003219474528
C            4.24284646038795       -3.18018382705956       -0.59742934984846
O            4.45215120227264       -4.47677358066922       -0.21104332675710
C            3.35362813744938       -5.23188564740259        0.10831770701196
C            3.57040457902589       -6.55373406951603        0.45395599807444
C            2.50399784915485       -7.36356062517249        0.81233374613101
C            1.22300056656388       -6.84257851003472        0.83404928018828
C            0.99730430979991       -5.52141077834152        0.48753867819546
C            2.05379483480712       -4.70053989783167        0.10667343448701
C           -0.40467162738539       -3.07915484259809       -1.10526872160831
C           -1.62097321634583       -2.42794873825089       -1.05792877389620
C           -3.12679955518673        0.72512951498415        0.10024529719921
C           -1.86186654039778        1.46266413829359        0.10150134177708
C           -1.60247604423081        2.44300316282221        1.06123095290714
C           -0.38120540138088        3.08485757439498        1.10843429463205
C            0.60453010447072        2.76530845507098        0.18226636652246
N            1.89150877417500        3.35916246361483        0.25613326431171
C            2.09302223314928        4.68256525909155       -0.11105324163797
C            1.04471830514777        5.51011944406406       -0.49992049609021
C            1.28310565112332        6.82663991368640       -0.85550819659779
C            2.56875457330148        7.33609561527693       -0.83482918133416
C            3.62704757719769        6.51941191468133       -0.46798593281317
C            3.39760198762614        5.20214569759137       -0.11319860034656
O            4.48840790509450        4.43948682160438        0.21469647110800
C            4.26640969828759        3.14750321610306        0.60944800612194
C            5.36695594532028        2.39535099442298        0.98002762624222
C            5.20414029818088        1.08907247153028        1.41413500373821
C            3.93582985102455        0.54417188467259        1.48960960965571
C            2.83005346067505        1.28673928253894        1.11332059833528
C            2.97814291793258        2.59042799171182        0.65035829812851
C            0.33957465450537        1.83506205028855       -0.81763303715188
C           -0.87929806196729        1.19488608422638       -0.85700785173658
C           -4.31679542837733        1.40989894837989        0.23006943742260
C           -5.52800229906001        0.72623616987545        0.12308212786021
C           -6.85610667851527        1.23078790553877        0.20682720124748
O           -7.26662365246184        2.36952203611694        0.40248190009185
H           -9.30770834697667       -0.62340044754619       -1.40559510094899
H           -9.30764530790849        1.12286625161181       -1.10294110217037
H           -8.04848161862637        0.39885928764757       -2.11416897558942
H           -9.30196081231892        0.69719227498259        1.41272154386488
H           -9.31528636960554       -1.04907340748964        1.11035969163432
H           -8.05014392537400       -0.33444955546548        2.12080792278384
H           -4.34419059439405       -2.44611510580648       -0.36211503108452
H           -1.08792843729744       -0.47493470527383        1.64805143036515
H            1.08571782102380       -1.62789201061289        1.56053964822240
H            1.84057079371269       -0.86698504797122       -1.15413749333766
H            3.81453668597593        0.44572529269963       -1.80805049732142
H            6.06964336812963       -0.54971651225186       -1.66430801854255
H            6.32141098209433       -2.90269073397394       -0.90609340251103
H            4.58159076141801       -6.92745341344791        0.44104386639634
H            2.68068366035439       -8.39322967695700        1.07925967180863
H            0.38881079774478       -7.46219440423109        1.12377355475847
H           -0.00203473704931       -5.11685925837907        0.51609509402834
H           -0.20449463890854       -3.81392563665951       -1.87143984529274
H           -2.37537016847114       -2.65042918940886       -1.79771263410133
H           -2.35543810967113        2.67202993826148        1.80047362762756
H           -0.17565833348942        3.81898803567348        1.87379157823033
H            0.04184849768636        5.11428683604267       -0.52741279554634
H            0.45519888214559        7.45170507016817       -1.15148431253911
H            2.75533681965680        8.36212059806901       -1.10896027877544
H            4.64149613899055        6.88419284145788       -0.45537933061669
H            6.34152141224340        2.85317636576984        0.92576639689561
H            6.06630945749031        0.50761106160176        1.69845857704855
H            3.80197255618454       -0.46672441490292        1.84178902699161
H            1.84165458838847        0.85972069942441        1.17406540245410
H            1.09906620020563        1.61949855182415       -1.55532304657285
H           -1.08361208056015        0.48373002847359       -1.64303267404016
H           -4.32502367632885        2.48140618519091        0.36674643291862
