$hessian                                                                        
        0.4875156388   0.0066863729  -0.0390604811  -0.0949254501   0.0118734406
       -0.0669651532   0.0080981624  -0.0019673763   0.0106401865  -0.0146365200
        0.0099600621  -0.0117094496  -0.0007053299  -0.0016080661  -0.0004636762
       -0.0009839158   0.0006336160   0.0012989852  -0.0007360527  -0.0002077820
        0.0004010459   0.0002188641  -0.0001689292  -0.0002476468  -0.0005461254
        0.0002647453  -0.0000306235   0.0002360489   0.0000112178   0.0000749816
       -0.0001342163   0.0002344521   0.0000795628  -0.0000538384   0.0000069278
        0.0000580294   0.0002511505  -0.0000436175   0.0000063951  -0.0001371378
       -0.0001801172   0.0000366177  -0.0000580257   0.0001839903   0.0000052050
       -0.0001919711  -0.0000228784   0.0000246208   0.0001067283  -0.0000323899
        0.0001163833   0.0001174202   0.0000211730  -0.0000418064   0.0000143518
       -0.0001662221   0.0000178079  -0.0000328173   0.0000691079   0.0000198584
        0.0001344781   0.0000713958  -0.0000249253   0.0000376921  -0.0001118766
        0.0000483124   0.0000312657  -0.0000092758  -0.0000661670  -0.0000948709
        0.0001368729  -0.0000149598  -0.0001169932  -0.0001125441   0.0000251299
        0.0000429748   0.0001085053  -0.0000059537  -0.0002477950   0.0000032634
       -0.0000958290   0.0000989325  -0.0002323902  -0.0001182634   0.0001692882
        0.0002160776   0.0000528441  -0.0004995313  -0.0001979014  -0.0001576354
        0.0000827377   0.0001833254   0.0000852151  -0.0002069212  -0.0000240703
        0.0000898975  -0.0000405752  -0.0000117640  -0.0000441726   0.0002764499
        0.0000387420  -0.0000049407   0.0000068590  -0.0001389970   0.0000438188
       -0.0001218627   0.0000948332  -0.0000575264  -0.0001183559  -0.0001482195
        0.0000331581   0.0000841323   0.0000030042   0.0000693820   0.0000383394
        0.0001187227  -0.0000712033   0.0001702860  -0.0000299921   0.0000320357
       -0.0000649465  -0.0001027180  -0.0000102021   0.0000304394   0.0002124745
       -0.0000443135   0.0000712462  -0.0000501910   0.0000533703   0.0001102212
        0.0000243715  -0.0001044941  -0.0002025011   0.0000390710  -0.0000495006
       -0.0000425435  -0.0001513440   0.0000412939  -0.0001869509   0.0001916867
       -0.0000615778  -0.0000829188  -0.0001785348  -0.0000699700   0.0002569759
       -0.0000235220  -0.0000628275  -0.0006321378  -0.0000209822   0.0008219856
       -0.0010152080  -0.0009196245   0.0009579828  -0.0145457345  -0.0060812484
       -0.0146132191  -0.0009014179   0.0020942264   0.0001840199  -0.1200151601
       -0.1117419347  -0.0183526366  -0.1206755676   0.1116456388   0.0207416534
       -0.1258182632  -0.0198192764   0.1125144052   0.0008104443  -0.0003135163
        0.0002450831   0.0007827575   0.0002197221   0.0003508677  -0.0010389087
       -0.0005617365   0.0033605972   0.0000418398  -0.0000482607   0.0000140313
        0.0000062146  -0.0000252031  -0.0000179841  -0.0000314936   0.0000031780
        0.0000425280  -0.0000158631  -0.0000145647   0.0000141139  -0.0000515799
        0.0000129567  -0.0000239331   0.0000275193   0.0000474572  -0.0000414262
        0.0000549158  -0.0000229299  -0.0000067783   0.0000268475  -0.0000102489
       -0.0000051226   0.0000365018  -0.0000071297   0.0000263699  -0.0000647739
       -0.0000085178   0.0000130011   0.0000007443   0.0000505512  -0.0000143649
       -0.0000139079   0.0000119294  -0.0000581216  -0.0000268946   0.0000105988
       -0.0000254921   0.0000125751   0.0000127865   0.0000256089  -0.0000178760
        0.0000031121   0.0000567923   0.0000059121  -0.0000414641   0.0000074470
       -0.0000652086   0.0000069287  -0.0000174010   0.0000421912   0.0000066804
       -0.0000337647   0.0000329666   0.0000134740  -0.0000004309   0.0000600835
        0.0000184817   0.0000019117   0.0000282920  -0.0000486294   0.0000387499
       -0.0000516005  -0.0000183849   0.0000184954  -0.0000168916   0.0000110627
       -0.0000175897  -0.0000319080  -0.0000018464  -0.0000441070   0.0000010805
        0.0000470048   0.0000214473   0.0000269925   0.0000229768   0.0000444419
        0.0066863729   0.5142008350   0.0081102035   0.0093846146  -0.0572806639
        0.0150158688   0.0019463252  -0.0014361368   0.0050384821   0.0149555169
       -0.0080360720   0.0136216496   0.0011584467   0.0010936590  -0.0000130527
       -0.0009481082   0.0006841778  -0.0011311961   0.0013637111  -0.0005999931
       -0.0004113407  -0.0010772787   0.0003155349   0.0001573938   0.0004099692
       -0.0004410198  -0.0000692205  -0.0003038226  -0.0000402650   0.0000059265
        0.0000498861  -0.0001317875  -0.0000568089  -0.0000995504   0.0001049666
       -0.0000371527  -0.0001200769  -0.0000452274   0.0000090655   0.0001465791
        0.0000395387  -0.0000831591  -0.0000224694  -0.0000725074   0.0000253605
        0.0000543553   0.0000151058  -0.0000169985  -0.0000386887   0.0000572388
       -0.0000398803  -0.0000179804  -0.0000310101   0.0000195252  -0.0000688014
        0.0001099069  -0.0000382041   0.0000853446  -0.0000311345   0.0000069184
       -0.0000972455   0.0000083634   0.0000364363   0.0000001156   0.0000213350
       -0.0000336786  -0.0000255126  -0.0000091464   0.0000235733   0.0000599705
       -0.0000839658   0.0000141948   0.0000312380   0.0000499812  -0.0000299303
        0.0000474329  -0.0001039128   0.0000636944   0.0001779524  -0.0000833821
        0.0000394408  -0.0001016651   0.0002411020   0.0000364433   0.0007260533
       -0.0000118404  -0.0003321344   0.0000415475  -0.0001522131   0.0000120465
        0.0000263675  -0.0000401625  -0.0000970548   0.0000472907   0.0000204153
        0.0000278992  -0.0001635927  -0.0000083886  -0.0000561121   0.0001810616
        0.0000006883   0.0000574574   0.0000178593  -0.0000920107  -0.0000356986
       -0.0000420783   0.0000724854  -0.0000410559  -0.0001117814  -0.0000069374
       -0.0000487535   0.0000337227  -0.0000084829   0.0000112299  -0.0000002779
        0.0000470260  -0.0000133351   0.0000134558   0.0000359194   0.0000499647
        0.0000236113   0.0000180696  -0.0000050586   0.0000234291   0.0000158800
        0.0000225091   0.0001059880   0.0000211469   0.0000114246   0.0000894236
       -0.0000062632  -0.0000138486  -0.0000072830   0.0000005958   0.0000599380
        0.0000219300  -0.0000553446   0.0000424664  -0.0000991179   0.0000693844
        0.0000444576   0.0000018430   0.0000676571  -0.0000538816   0.0000873911
        0.0000830805   0.0000820418  -0.0011182126  -0.0007594201   0.0000605423
        0.0002114025  -0.0001460002   0.0017255424  -0.0121613078  -0.0008299215
       -0.0139490182  -0.0010538906   0.0001395516   0.0000808076  -0.1128297154
       -0.1992870241  -0.0290610987   0.1121721289  -0.1993381161  -0.0262159082
       -0.0197430979  -0.0496340301   0.0263789009   0.0003881953   0.0004612150
       -0.0007137781  -0.0000293641   0.0003740666   0.0004997604  -0.0003944658
        0.0008329992   0.0010689538   0.0001747329  -0.0001659668   0.0000741431
        0.0000058136  -0.0000094669  -0.0000429308   0.0000016271   0.0000235162
       -0.0000111561   0.0000006465   0.0000183241  -0.0000049355   0.0000063279
       -0.0000040877   0.0000107151  -0.0000431827  -0.0000127961   0.0000069250
       -0.0000096301   0.0000052190  -0.0000042221  -0.0000069818  -0.0000035757
       -0.0000022936  -0.0000043455   0.0000005860  -0.0000081386   0.0000040077
       -0.0000029092  -0.0000038499  -0.0000327098  -0.0000130081   0.0000031843
       -0.0000200837  -0.0000244156   0.0000107784  -0.0000061633   0.0000068480
        0.0000171880   0.0000401208  -0.0000019241  -0.0000290697   0.0000188108
       -0.0000053001   0.0000029658  -0.0000649906   0.0000015258   0.0000049903
        0.0000431368  -0.0000171967   0.0000137813   0.0000015856  -0.0000072487
        0.0000139190  -0.0000159692  -0.0000135406  -0.0000019616  -0.0000221483
       -0.0000181185   0.0000006310  -0.0000473075   0.0000181575  -0.0000171182
        0.0000183492   0.0000118297  -0.0000100480   0.0000223037   0.0000090825
       -0.0000097067   0.0000005839   0.0000101980  -0.0000169562  -0.0000053364
       -0.0000250306   0.0000193078  -0.0001543442  -0.0001802475   0.0001210972
       -0.0390604811   0.0081102035   0.4687752024  -0.0549782425   0.0151809966
       -0.1416958148  -0.0110672903   0.0050670621  -0.0298151606  -0.0042219754
        0.0060107669   0.0009313986  -0.0005039045  -0.0020210375  -0.0002981964
        0.0013517493   0.0001770230  -0.0006195254  -0.0001412312   0.0000064042
       -0.0001446809   0.0000671376   0.0000518745  -0.0000392832  -0.0002559725
        0.0000883732   0.0000442403   0.0001276296  -0.0000354376   0.0000382387
       -0.0000892356   0.0000907042  -0.0000046149  -0.0000107113   0.0000038784
        0.0000427513   0.0001467686  -0.0000716332   0.0000117512  -0.0000938547
       -0.0001356472   0.0000236949  -0.0000402552   0.0000539010   0.0000358627
       -0.0001013426  -0.0000327595   0.0000082146   0.0000300969   0.0000633611
        0.0000701993   0.0000370512  -0.0000732820  -0.0000025081  -0.0000375098
       -0.0000324242  -0.0000139535  -0.0000012256   0.0000022691   0.0000356842
        0.0000583486   0.0000409817   0.0000005779   0.0000491967   0.0000194457
       -0.0000019526  -0.0000811839  -0.0000298295  -0.0000366556  -0.0000050825
        0.0000609088  -0.0000049152  -0.0000211919  -0.0000228886  -0.0000181842
        0.0000322841   0.0001256539  -0.0000001155  -0.0000576883   0.0000146922
       -0.0000069582   0.0000566985  -0.0000697160  -0.0000512177   0.0003282911
        0.0000258305   0.0000762156  -0.0003123894  -0.0001828546  -0.0000184088
        0.0000822157   0.0001030054   0.0000242665  -0.0000684415  -0.0000300411
        0.0000092208   0.0000220139   0.0000152909  -0.0000446483   0.0002592885
        0.0000849933  -0.0000211731  -0.0000296132  -0.0002761447   0.0000730184
       -0.0000469280   0.0000522196  -0.0000409184  -0.0000717320  -0.0001152270
        0.0000205400   0.0000059100   0.0000119803   0.0000514404   0.0000424957
        0.0000149822  -0.0000354766   0.0001946725  -0.0000334127   0.0000445855
       -0.0001257786  -0.0000522534  -0.0000296745   0.0000168614   0.0001618405
       -0.0000275716   0.0000233767   0.0000239112   0.0000248393   0.0000720527
       -0.0000305685  -0.0000781985  -0.0001614992   0.0000562820  -0.0000310346
       -0.0000063027  -0.0000685387   0.0000237918  -0.0002353718   0.0001971967
       -0.0000675227  -0.0000544307  -0.0000350246  -0.0000039514   0.0001877648
        0.0000370494  -0.0000269778  -0.0004434505  -0.0002550001   0.0001498993
        0.0013892496   0.0000677438  -0.0001817339  -0.0087470004  -0.0070824552
       -0.0063935822  -0.0010507244   0.0025292212   0.0005402529  -0.0171202703
       -0.0278976764  -0.0468815187   0.0222636845  -0.0272275204  -0.0462975789
        0.1121380250   0.0263913321  -0.1946264727  -0.0009504284   0.0002815677
        0.0007627501  -0.0010404289  -0.0004187337   0.0008532347   0.0023712499
        0.0010755337  -0.0051344213   0.0000527453  -0.0000496685   0.0000120165
       -0.0000067061  -0.0000136430  -0.0000317834  -0.0000292835   0.0000117488
        0.0000314442  -0.0000271948   0.0000011756   0.0000124505  -0.0000401137
        0.0000206478  -0.0000181442   0.0000231758   0.0000488804  -0.0000349892
        0.0000580736  -0.0000206392  -0.0000035102   0.0000277232  -0.0000167838
       -0.0000019787   0.0000313587  -0.0000173170   0.0000275993  -0.0000685840
       -0.0000227028   0.0000166382  -0.0000248761   0.0000464961  -0.0000082676
       -0.0000187805  -0.0000065989  -0.0000547254  -0.0000482882   0.0000024160
       -0.0000275276   0.0000004473   0.0000009824   0.0000249537  -0.0000168394
        0.0000086237   0.0000559500  -0.0000277020  -0.0000415100   0.0000072120
       -0.0000641240   0.0000221279  -0.0000192310   0.0000388221   0.0000182089
       -0.0000329766   0.0000344838   0.0000183392  -0.0000019163   0.0000630622
        0.0000145368   0.0000008426   0.0000232985  -0.0000505146   0.0000332605
       -0.0000391651  -0.0000244428   0.0000145230  -0.0000257379  -0.0000015235
       -0.0000146600  -0.0000263195  -0.0000112884  -0.0000383005  -0.0000024076
        0.0000096454   0.0000253150  -0.0000080128  -0.0000155707   0.0000485349
       -0.0949254501   0.0093846146  -0.0549782425   0.4483282976  -0.0001991996
        0.0002629922  -0.0935832852  -0.0091512617   0.0543397958  -0.0698532091
        0.0147851847   0.0019563879   0.0079856120   0.0096420721   0.0017099108
       -0.0445225991   0.0124689332   0.0015978825  -0.0000669428  -0.0030630911
        0.0009413092  -0.0043612906  -0.0002356355   0.0009045624   0.0032489964
       -0.0020171320  -0.0005732685  -0.0019921438   0.0001889545  -0.0006060734
        0.0005397786  -0.0014448852  -0.0003651511   0.0000893067   0.0000713216
       -0.0002040967  -0.0020003234   0.0004180602  -0.0000452475   0.0018095233
        0.0016206167  -0.0006301379   0.0001461843  -0.0014176418   0.0001977197
        0.0015392139   0.0001542433  -0.0002443710  -0.0008520165   0.0005581749
       -0.0006345609  -0.0007740958  -0.0003777865   0.0002933406  -0.0005812779
        0.0018421643  -0.0003773516   0.0010949216  -0.0008088013   0.0000212174
       -0.0015744795  -0.0006750350   0.0003465792  -0.0001431207   0.0008888204
       -0.0003661753  -0.0008070256  -0.0000110898   0.0003869760   0.0009182790
       -0.0011507829   0.0001863770   0.0008724533   0.0009759750  -0.0003337160
        0.0000721416  -0.0017615625   0.0004673215   0.0015771787   0.0000241535
        0.0004535455  -0.0009300829   0.0016850659   0.0007905398  -0.0043030708
        0.0001938650  -0.0009074900   0.0032087840   0.0019568547   0.0005128496
       -0.0009207145  -0.0016670782  -0.0007610172   0.0015315517   0.0000439600
       -0.0004371189   0.0000445412  -0.0000364374   0.0001795322  -0.0020027635
       -0.0003772193   0.0000729398   0.0001791372   0.0017261220  -0.0006033183
        0.0008648073  -0.0008592029   0.0004369720   0.0009101150   0.0011196864
       -0.0002432420  -0.0009194367   0.0000203670  -0.0003624135  -0.0001554198
       -0.0008723687   0.0004282241  -0.0015538870   0.0004605239  -0.0003589799
        0.0010519066   0.0008152992  -0.0000181125  -0.0005715063  -0.0018043565
        0.0004267051  -0.0005559998   0.0004442762  -0.0003011552  -0.0008038300
       -0.0004693307   0.0005549925   0.0014937545  -0.0001972934   0.0003392986
        0.0001191085   0.0012589410  -0.0003295777   0.0017786523  -0.0015590525
        0.0006707314   0.0004146413   0.0011982127   0.0003527065  -0.0019772641
       -0.0001289646   0.0006029636  -0.0002095015   0.0030686003  -0.0009000925
       -0.0444236045  -0.0124943129  -0.0012594875  -0.0702783175  -0.0141684609
       -0.0017722074   0.0081675678  -0.0098939901  -0.0018520871  -0.0155159059
        0.0000351346  -0.0169952788  -0.0155187953   0.0056014661  -0.0157976149
        0.0094273073  -0.0018710066   0.0102935854  -0.0152503096  -0.0000865733
        0.0170703009  -0.0152843862  -0.0056162374   0.0161974452   0.0094432023
        0.0018083316  -0.0107259990   0.0001915337  -0.0000954377  -0.0000472345
        0.0000410325   0.0002109940   0.0001489242   0.0000441447   0.0000326291
       -0.0002611344   0.0000959603   0.0000988687  -0.0000690231   0.0002177598
       -0.0000284071   0.0001264145  -0.0001429226  -0.0001683966   0.0001774647
       -0.0002325939   0.0000882200   0.0000410361  -0.0001230407   0.0000535685
        0.0000228348  -0.0001615332   0.0000136135  -0.0000969283   0.0002460835
        0.0000056578  -0.0000461323  -0.0000050631  -0.0002334773   0.0000680321
        0.0000106401  -0.0000361984   0.0003028202   0.0001071217  -0.0000698880
       -0.0000307207  -0.0000417746   0.0000479443   0.0000268232   0.0000297170
        0.0000052183  -0.0002934158  -0.0000361611   0.0002060916  -0.0000627539
        0.0002536678  -0.0000087627   0.0000572743  -0.0001782394  -0.0000134435
        0.0001242344  -0.0001385449  -0.0000669022  -0.0000023240  -0.0002486581
       -0.0000762642  -0.0000205411  -0.0001464867   0.0001676571  -0.0001653762
        0.0002192290   0.0000373756  -0.0001067004   0.0000915472  -0.0000913415
        0.0000722694   0.0000414725  -0.0000176756   0.0002680369   0.0000275062
       -0.0002295623  -0.0001435914   0.0001926943   0.0001237132  -0.0001024087
        0.0118734406  -0.0572806639   0.0151809966  -0.0001991996   0.3788327410
       -0.0071293369  -0.0115020036  -0.0571824722   0.0152644003   0.0332249682
       -0.0685062517  -0.0031239560   0.0090940075  -0.0539778042  -0.0105993325
        0.0252131380  -0.0091377335  -0.0037450360  -0.0063392701   0.0034780007
       -0.0002533576   0.0052307217  -0.0005637779   0.0004571335  -0.0009805757
        0.0013421546   0.0002645367   0.0009424101   0.0000602319  -0.0000671564
       -0.0001503916   0.0002465494   0.0002298530  -0.0000920522  -0.0000843764
        0.0001145654   0.0005558998  -0.0000187054  -0.0000660457  -0.0003660562
       -0.0001720041   0.0000814428   0.0000329670   0.0001926480  -0.0000818693
       -0.0000988987  -0.0000132289   0.0000365727   0.0001036905  -0.0001049987
        0.0000440524   0.0000518245   0.0000608466  -0.0000162561   0.0001717504
       -0.0001165698   0.0000358000  -0.0000261867   0.0000276825  -0.0000196279
        0.0000974363  -0.0001259072  -0.0000428685   0.0000247418  -0.0000533776
        0.0000567541   0.0000834268  -0.0000102637  -0.0000234096  -0.0001406397
        0.0001657290  -0.0000309764  -0.0001239214  -0.0001136435   0.0000901829
       -0.0000668852   0.0002822262  -0.0000508987  -0.0004119323   0.0002369098
       -0.0001464152   0.0003036180  -0.0005704961  -0.0000658764  -0.0052618569
       -0.0005348236   0.0004847277   0.0009774136   0.0013427470   0.0002554311
       -0.0003248983  -0.0005696333  -0.0000508535   0.0004038972   0.0000026830
       -0.0001494658   0.0000518484  -0.0000957356   0.0001639385  -0.0004639741
       -0.0000077389  -0.0000957230  -0.0000238844   0.0003542978  -0.0000197997
        0.0001238950  -0.0002037892   0.0001128762   0.0002680909   0.0000863866
        0.0000793192  -0.0001008372   0.0000264522  -0.0000521060  -0.0000110599
       -0.0001190227   0.0000536368  -0.0001453189  -0.0000471810  -0.0001346394
        0.0000368871   0.0000167668   0.0000108832  -0.0000885584  -0.0001458871
       -0.0000170664  -0.0002338953  -0.0000337227  -0.0000444157  -0.0002203337
        0.0000027527   0.0000647660   0.0000978968  -0.0000289037  -0.0001050200
       -0.0000711625   0.0001788038  -0.0001115980   0.0003649788  -0.0002769671
        0.0000125976   0.0001021836   0.0001932400   0.0002226425  -0.0009569727
       -0.0001848111  -0.0000266913   0.0063162723   0.0035899799  -0.0002795523
       -0.0252009230  -0.0091132964  -0.0035702250  -0.0332578014  -0.0683631801
       -0.0028268426  -0.0092423481  -0.0541130712  -0.0104644447  -0.0129268711
        0.0018578121  -0.0184601695   0.0151903959  -0.0054285889   0.0195009287
        0.0022711744  -0.0011962538   0.0042395035   0.0126913824   0.0018483410
       -0.0185893053  -0.0149778310  -0.0054167915   0.0196283393  -0.0022678083
       -0.0013689168   0.0042291482  -0.0004176032   0.0004213525  -0.0003470572
        0.0000138594   0.0000521627   0.0001054919   0.0000322504  -0.0000822818
        0.0000444473   0.0000162211  -0.0000736263   0.0000210706   0.0000036296
        0.0000010590  -0.0000137127   0.0000828233   0.0000066666  -0.0000017433
        0.0000001947  -0.0000014332   0.0000069606   0.0000100232   0.0000138329
        0.0000073826   0.0000097562   0.0000083094   0.0000070573   0.0000189835
        0.0000161383  -0.0000029045   0.0001036299   0.0000225990  -0.0000176315
        0.0000704842   0.0000343880  -0.0000210181   0.0000294616  -0.0000429946
        0.0000066991  -0.0000669071   0.0000099180   0.0000619789  -0.0000429919
        0.0000273606  -0.0000392578   0.0001407863   0.0000148136  -0.0000146807
       -0.0000687191   0.0000257318  -0.0000206310  -0.0000218248   0.0000036780
       -0.0000173778   0.0000122384   0.0000198081   0.0000043583   0.0000200844
        0.0000332915  -0.0000005554   0.0000883749  -0.0000194212   0.0000243722
       -0.0000339530  -0.0000137088   0.0000093570  -0.0000249041  -0.0000377074
        0.0000279847  -0.0000093537  -0.0000435695   0.0000667935  -0.0000030543
        0.0000177226   0.0000030696   0.0004105004   0.0004405167  -0.0003551452
       -0.0669651532   0.0150158688  -0.1416958148   0.0002629922  -0.0071293369
        0.4215399517   0.0664429178   0.0150938632  -0.1429207008   0.0065753931
       -0.0019751654  -0.0530017592   0.0011117002  -0.0117380444   0.0052490338
        0.0038081543  -0.0029129808   0.0086216470  -0.0006659155  -0.0004114409
        0.0051127627   0.0011226949  -0.0000342617  -0.0003700177  -0.0004722872
        0.0005412158  -0.0009470345   0.0001178150   0.0000637464   0.0001081037
       -0.0001626574  -0.0000071399   0.0000810587  -0.0000439351  -0.0000170874
        0.0000409880   0.0002361069  -0.0000342026  -0.0000404279  -0.0001734821
       -0.0001263444   0.0000214434   0.0000178422   0.0000859301  -0.0000320468
       -0.0000626914  -0.0000128473   0.0000138699   0.0000413278  -0.0000456168
        0.0000153782   0.0000275693   0.0000317069  -0.0000064772   0.0000695342
       -0.0000843756   0.0000193409  -0.0000479343   0.0000395563  -0.0000111318
        0.0000765805  -0.0000101989  -0.0000136385   0.0000027984  -0.0000392000
        0.0000136483   0.0000557386   0.0000025752  -0.0000103443  -0.0000554295
        0.0000705663  -0.0000151943  -0.0000570873  -0.0000628508   0.0000294809
       -0.0000208563   0.0001691770  -0.0000071230  -0.0001565203   0.0000069153
       -0.0000428877   0.0002505248  -0.0002176569  -0.0000508863  -0.0010982386
       -0.0000567663  -0.0003713523   0.0004457680   0.0005235454  -0.0009523570
       -0.0002517928  -0.0002201211  -0.0000547603   0.0001356551  -0.0000264749
       -0.0000301894   0.0000356033  -0.0000171532   0.0000479468  -0.0001976798
       -0.0000242332  -0.0000455823   0.0000054531   0.0001638084   0.0000005175
        0.0000431784  -0.0000575476   0.0000259012   0.0000674774   0.0000431160
        0.0000047653  -0.0000394162  -0.0000033826  -0.0000070481  -0.0000094019
       -0.0000284147   0.0000047837  -0.0000498164  -0.0000134365  -0.0000195610
        0.0000221036   0.0000221479  -0.0000054183  -0.0000453536  -0.0000504476
        0.0000019739  -0.0000480269  -0.0000049697  -0.0000025595  -0.0000518839
       -0.0000064370   0.0000064987   0.0000478361  -0.0000116907  -0.0000115624
       -0.0000232813   0.0000600253  -0.0000307037   0.0001557945  -0.0001279676
        0.0000081966   0.0001457874  -0.0000389844   0.0000667185  -0.0001201857
        0.0000304464   0.0001237893   0.0007225175  -0.0004174970   0.0051127188
       -0.0034958224  -0.0028392039   0.0086717214  -0.0064615434  -0.0020406355
       -0.0529819168  -0.0011735262  -0.0114024512   0.0053393358  -0.0089325863
       -0.0009486155  -0.0079742294  -0.0039424547   0.0018237975  -0.0005637953
       -0.0129963853   0.0042144197  -0.0245597913   0.0090060912  -0.0009479559
       -0.0082629525   0.0041090220   0.0018832115  -0.0008029533   0.0126001677
        0.0041580861  -0.0245763774  -0.0000481524   0.0000464743   0.0000967693
       -0.0000040749   0.0000210270   0.0000021383  -0.0000117175  -0.0000002234
        0.0000030704   0.0000003099  -0.0000212908   0.0000100823   0.0000019374
        0.0000038815  -0.0000017507   0.0000145760   0.0000021942  -0.0000002146
        0.0000030878  -0.0000006532   0.0000010769   0.0000039731   0.0000010168
        0.0000028409   0.0000034624   0.0000001699   0.0000024288   0.0000019722
        0.0000046504  -0.0000003616   0.0000203271   0.0000084469  -0.0000033878
        0.0000185956  -0.0000002496  -0.0000168254   0.0000147328  -0.0000254998
       -0.0000256617  -0.0000217190  -0.0000159235  -0.0000153062  -0.0000129193
       -0.0000017740  -0.0000177196   0.0000177155   0.0000049119  -0.0000020545
       -0.0000132926   0.0000061955  -0.0000038695  -0.0000037471   0.0000016190
       -0.0000029743   0.0000021009   0.0000025163   0.0000026819   0.0000034940
        0.0000068898  -0.0000001069   0.0000144673  -0.0000047689   0.0000063235
       -0.0000097935   0.0000006798   0.0000030262  -0.0000013279  -0.0000136741
        0.0000103686   0.0000157257   0.0000071360   0.0000054524   0.0000064063
        0.0000166200  -0.0000156423   0.0000430597   0.0000490392   0.0000966361
        0.0080981624   0.0019463252  -0.0110672903  -0.0935832852  -0.0115020036
        0.0664429178   0.4883348100  -0.0066507346   0.0388694828  -0.0146571022
        0.0051442350   0.0145582154  -0.0005944447  -0.0013721107  -0.0000329959
       -0.0007796358   0.0009376237  -0.0009510544  -0.0008432817   0.0000210124
       -0.0008226012   0.0002389681  -0.0001868539  -0.0000456492  -0.0005328597
        0.0002232778   0.0001719511   0.0002711746   0.0000121351   0.0000705054
       -0.0001271960   0.0002516453   0.0000792520  -0.0000608964   0.0000054657
        0.0000556571   0.0002516769  -0.0000343404  -0.0000075496  -0.0001456939
       -0.0001821108   0.0000426967  -0.0000570805   0.0001819794   0.0000011009
       -0.0001867366  -0.0000238450   0.0000232104   0.0001056242  -0.0000323077
        0.0001145083   0.0001164295   0.0000217091  -0.0000428673   0.0000186915
       -0.0001744135   0.0000227118  -0.0000260120   0.0000820892   0.0000117200
        0.0001256334   0.0000671169  -0.0000201508   0.0000365763  -0.0001146780
        0.0000476205   0.0000348486  -0.0000077118  -0.0000674482  -0.0000987696
        0.0001366686  -0.0000163128  -0.0001192774  -0.0001125505   0.0000209552
        0.0000455505   0.0000911209   0.0000031921  -0.0002327176   0.0000122474
       -0.0001030203   0.0000879498  -0.0002008393  -0.0001011939   0.0001455976
        0.0002071045   0.0002576737  -0.0005073434  -0.0002357721   0.0000455758
        0.0000936427   0.0002171895   0.0001038992  -0.0002237234  -0.0000180601
        0.0000827288  -0.0000382774  -0.0000158215  -0.0000461901   0.0002641041
        0.0000421977  -0.0000181061   0.0000075386  -0.0001359337   0.0000477217
       -0.0001177530   0.0000900463  -0.0000598374  -0.0001080331  -0.0001422769
        0.0000315045   0.0000756388   0.0000049463   0.0000659474   0.0000389013
        0.0001137993  -0.0000707484   0.0001616946  -0.0000268564   0.0000321758
       -0.0000541504  -0.0000836099  -0.0000180585   0.0000216434   0.0001877026
       -0.0000358695   0.0000689381  -0.0000494516   0.0000512701   0.0001065295
        0.0000227391  -0.0001033928  -0.0001975703   0.0000357652  -0.0000500631
       -0.0000460649  -0.0001479260   0.0000357156  -0.0001615854   0.0001780597
       -0.0000505323  -0.0000889407  -0.0001591817  -0.0000708662   0.0002213284
       -0.0000270507  -0.0000701141  -0.0005308291   0.0002094265  -0.0004040568
       -0.0012249191  -0.0006030280  -0.0012991191  -0.0141279362  -0.0107429221
        0.0117511768  -0.0009751702   0.0022211624   0.0005932151   0.0008004861
        0.0003398344  -0.0002544179   0.0008067671  -0.0002064384  -0.0003773922
       -0.0011027262   0.0005959962  -0.0033902474  -0.1195565085   0.1114232536
        0.0191208887  -0.1211894353  -0.1119283331  -0.0199126057  -0.1283051442
        0.0201096771  -0.1132272780   0.0000377456  -0.0000353240  -0.0000108992
       -0.0000037793  -0.0000406567  -0.0000228597  -0.0000333649  -0.0000026993
        0.0000415107  -0.0000159061  -0.0000143421   0.0000174305  -0.0000506922
        0.0000149846  -0.0000227155   0.0000279324   0.0000477295  -0.0000403507
        0.0000541465  -0.0000219175  -0.0000057482   0.0000274823  -0.0000093244
       -0.0000040507   0.0000365597  -0.0000062385   0.0000269964  -0.0000626193
       -0.0000051955   0.0000139906   0.0000025215   0.0000486460  -0.0000094368
       -0.0000111090   0.0000061879  -0.0000582784  -0.0000250577  -0.0000067093
       -0.0000255085   0.0000113337  -0.0000044719   0.0000251167  -0.0000200770
       -0.0000027872   0.0000552322   0.0000070576  -0.0000427500   0.0000122220
       -0.0000664111   0.0000097898  -0.0000163386   0.0000414717   0.0000071132
       -0.0000328214   0.0000317272   0.0000137086   0.0000005598   0.0000594763
        0.0000194393   0.0000027067   0.0000284716  -0.0000475440   0.0000391724
       -0.0000521888  -0.0000158848   0.0000191264  -0.0000159532   0.0000117186
       -0.0000143213  -0.0000295915  -0.0000073929  -0.0000440663   0.0000112971
        0.0000314455   0.0000163036   0.0000317210   0.0000360849   0.0000188663
       -0.0019673763  -0.0014361368   0.0050670621  -0.0091512617  -0.0571824722
        0.0150938632  -0.0066507346   0.5141714865   0.0081780377   0.0120127990
       -0.0009630525  -0.0140959470   0.0010859356   0.0002346615   0.0000873659
       -0.0001838604  -0.0001328375   0.0017336512   0.0010903494  -0.0007041020
        0.0000505058  -0.0007059162  -0.0000123241  -0.0003283608  -0.0000420968
       -0.0001499922   0.0000113330  -0.0000706011  -0.0000350218   0.0001093703
        0.0000176913   0.0000467357  -0.0000625474   0.0001784034  -0.0000129409
       -0.0000300208  -0.0002365630   0.0000104737   0.0000411355   0.0001142826
        0.0000249335   0.0000066177  -0.0000108860  -0.0000709715   0.0000393223
        0.0000176479  -0.0000007587  -0.0000140954  -0.0000377727   0.0000599278
       -0.0000094439  -0.0000188535  -0.0000451135   0.0000054513  -0.0000721008
        0.0000317358  -0.0000116594  -0.0000043795   0.0000002739   0.0000107613