110
 energy: -178.349040821062 gnorm: 0.000034105074 xtb: 6.7.1 (edcfbbe)
N            2.06128404825491       10.18719715906619        2.92145346686873
C            1.51229063058275        9.22346661891605        2.62953409164627
C            0.79125414682336        8.05878986245925        2.27410436446511
N            1.45788322609800        6.95243369322680        1.98412464210567
C            0.76440632573430        5.86368784842568        1.65190457039673
C            1.46889561688867        4.65657659998501        1.33048825798013
C            2.86988820781412        4.62338134483938        1.38864118194664
C            3.56294639072098        3.47742564628837        1.09614068906556
C            2.86287922484922        2.32227933702503        0.71847113829012
N            3.54268131126045        1.14590711539549        0.42168863406094
C            3.18386420818685       -0.12416924973084        0.84836838496608
C            2.18186477706373       -0.52124473887501        1.72218286964292
C            2.06008036637297       -1.86751407632532        2.00286205635863
C            2.91266728635960       -2.82669040614341        1.44205854838141
C            2.72312212633064       -4.25333218889474        1.74981352025834
C            2.41871014696211       -4.67294471094837        3.04326005561233
C            2.24127019354336       -6.01488911755202        3.32556836469402
C            2.35911285965480       -6.96068003051683        2.31998354024780
C            2.65863825431935       -6.55510575044367        1.02956689984050
C            2.84164561192750       -5.21404981408491        0.74712914990497
C            3.94191236651752       -2.41808086833495        0.60166901780717
C            4.08566023766946       -1.07023742866831        0.31318595446799
C            5.03373600599044       -0.33087683681534       -0.47811998198204
C            6.11701750836900       -0.71243216620222       -1.25343876105965
C            6.83522007326952        0.25873513438195       -1.94089275560023
C            7.99344338869709       -0.11508606779687       -2.76810799955617
C            7.95102931227893       -1.24722452906845       -3.57942214415763
C            9.03734961839514       -1.59639571728776       -4.36034657691563
C           10.18663791610305       -0.82334356103040       -4.34120071817806
C           10.24144833834133        0.30264779197191       -3.53623029863411
C            9.15414423815577        0.65578954746502       -2.75834524655680
C            6.43704724220669        1.59924017857702       -1.85703015574539
C            5.35670242390244        1.99910535437499       -1.09562238790802
C            4.66663495597481        1.02985514602736       -0.38211650214159
C            1.47564093241822        2.35051069859065        0.64866864285931
C            0.74838033253869        3.49781622473774        0.96209059598880
C           -0.70669240530796        3.52602712493894        0.93357906523837
C           -1.46439995764609        2.40469461012548        0.60070672095725
C           -2.85362122384528        2.42785365528899        0.61866446763784
N           -3.56080573730589        1.27010392984783        0.31478757719241
C           -4.65573617552257        1.17030964494202       -0.53016648015352
C           -5.30025213588187        2.14714571932078       -1.27511132341054
C           -6.35871537004022        1.76233062425455       -2.07422151572208
C           -6.77851924854756        0.42893052468272       -2.16499941402410
C           -7.91026710726200        0.07031771401208       -3.03454621545175
C           -9.05490971263766        0.86373083987282       -3.07785537974937
C          -10.11635926035078        0.52584873785330       -3.89716949917790
C          -10.05109976245853       -0.60738322553082       -4.69110373015390
C           -8.91793425713196       -1.40339358167591       -4.65689493317031
C           -7.85763310313156       -1.06941751451795       -3.83465671626028
C           -6.10533878409555       -0.55051099961649       -1.44440569615783
C           -5.04545368408821       -0.18406700990580       -0.63061623329317
C           -4.14486017440169       -0.93587566457160        0.20352113220035
C           -4.03872472676439       -2.28416805867973        0.50811376801203
C           -3.03992349431918       -2.70618050426041        1.37739549401095
C           -2.87287551032780       -4.13279064657233        1.69695725917396
C           -1.60059791943054       -4.69866588038363        1.75449976375297
C           -1.43765907982445       -6.03884032390638        2.05238031437574
C           -2.54294627721113       -6.83516497416009        2.30323265928835
C           -3.81271266883569       -6.28364719923464        2.24930771927637
C           -3.97745693882941       -4.94456136338570        1.94608156999292
C           -2.18897296544516       -1.75949521117215        1.96169338269495
C           -2.28349541835262       -0.41217051891349        1.67790005990567
C           -3.24515967160023       -0.00358945431594        0.76470472702767
C           -3.52361333891845        3.61298046681692        0.95536322640933
C           -2.79915384628282        4.73496824323696        1.26485645844787
C           -1.39662042779584        4.71398832542485        1.26629381100324
C           -0.65970270341681        5.89376112110634        1.61467525980912
N           -1.32269245277236        7.01374880035547        1.90300823046354
C           -0.62588137596102        8.09104975960272        2.22892481554262
C           -1.31364380669711        9.28979739767965        2.53370805035688
N           -1.83465778505760       10.27966008962592        2.78682903891393
H            3.38617383527261        5.52244355186910        1.68670637343545
H            4.63763849745931        3.45031278656925        1.18126020131859
H            1.52174109990756        0.19440944872107        2.18716322773726
H            1.27314516351515       -2.19450413258952        2.66559810622971
H            2.34134720606731       -3.94444755948286        3.83750850270791
H            2.00941503196185       -6.32515498256352        4.33461416035598
H            2.21733034524886       -8.00896069700849        2.54090614241536
H            2.74698149158829       -7.28743032154034        0.23960403224066
H            3.05875469048963       -4.90343681755340       -0.26482530080545
H            4.63818219064902       -3.13797247501963        0.19928024257407
H            6.40734523663305       -1.75049519096961       -1.30976714726691
H            7.05135905285638       -1.84483122439620       -3.61288137914914
H            8.98698022443052       -2.47410094285448       -4.98903223458394
H           11.03574945508918       -1.09707655714705       -4.95053361169129
H           11.13687878085570        0.90749965677140       -3.51367928751480
H            9.21051790039143        1.52688912836075       -2.12136125445963
H            6.97787946730867        2.33966576338266       -2.42754050902020
H            5.05670787584323        3.03548802085665       -1.07856379366101
H            0.97243780303096        1.45657453227511        0.32134380629049
H           -0.98342457824135        1.48942551070574        0.30015635970044
H           -4.98160025188046        3.17781375102596       -1.25361703369810
H           -6.86330950107168        2.50889434614162       -2.66941556759123
H           -9.11978165333443        1.74089227501407       -2.45007152639490
H          -10.99971016480525        1.14835621409577       -3.91583977096269
H          -10.87920190199442       -0.86890879221967       -5.33370690992322
H           -8.85961763351645       -2.28709396769543       -5.27644608672730
H           -6.96956357639489       -1.68503111783389       -3.82693304966166
H           -6.41199884117676       -1.58349361832282       -1.50644150019693
H           -4.71325536282576       -2.99822696768289        0.06092239093635
H           -0.73354003348129       -4.09003667854848        1.54227738448073
H           -0.44375539820485       -6.46064155625541        2.08776420798345
H           -2.41556133875131       -7.88168439125266        2.53936753098306
H           -4.67836660192101       -6.89984223723148        2.44736349791738
H           -4.96967441175966       -4.51694899131521        1.92193811556508
H           -1.45237667012222       -2.09615286389388        2.67533968723712
H           -1.63690840467203        0.29650570946606        2.17185453522246
H           -4.60100777870057        3.62752100286556        0.99785339948416
H           -3.29221758874620        5.65590514410930        1.53431651419927
