$hessian                                                                        
        0.2428827881   0.4654618490   0.0874589467  -0.2411067552  -0.4314151769
       -0.0810337968  -0.0053046570  -0.0436646426  -0.0081662615  -0.0027376852
        0.0179031698   0.0038231228  -0.0046434543  -0.0151127876  -0.0028981210
       -0.0038963397   0.0055279322   0.0011376543   0.0026840872  -0.0013172707
       -0.0003085288  -0.0002874433   0.0029261031   0.0006757448  -0.0018446243
       -0.0010428574  -0.0002886809   0.0004971498  -0.0007364679  -0.0000333267
        0.0001924148   0.0004504485  -0.0001170680   0.0000126569  -0.0000825637
        0.0000443045  -0.0000645778   0.0000794730   0.0000663474   0.0001604342
        0.0000636181  -0.0001543280   0.0000193830  -0.0000801774   0.0000450594
        0.0000243441  -0.0000144545  -0.0000729990  -0.0000005244  -0.0000557782
       -0.0001871425  -0.0000008691  -0.0001617153   0.0000886701   0.0000042992
       -0.0000312366   0.0000853109  -0.0000355885   0.0000377451   0.0000521001
       -0.0001727235  -0.0001015758   0.0001624067   0.0002132444   0.0000543452
       -0.0002085700  -0.0001131210  -0.0001815176   0.0001858214   0.0001743995
        0.0001613615  -0.0001398960  -0.0001578818  -0.0001279829   0.0001548827
        0.0000887025  -0.0000415239  -0.0000671206  -0.0000098659   0.0001075507
        0.0000376049   0.0000691928   0.0001865044  -0.0000117438   0.0001320128
        0.0000089396  -0.0000797705   0.0000092371  -0.0000794887  -0.0000099496
       -0.0000545323  -0.0001215839   0.0000256254  -0.0000384069  -0.0000260219
        0.0000660909   0.0000530338  -0.0000510244  -0.0000124906  -0.0005114408
       -0.0000548568   0.0001403419   0.0009139841  -0.0001300327  -0.0000559545
       -0.0028695601  -0.0025392238  -0.0005413965   0.0030873402   0.0009928492
        0.0002062812  -0.0017972484  -0.0010063266  -0.0001819943   0.0012962632
       -0.0002950955  -0.0001403563   0.0002422784   0.0005495693   0.0001126407
       -0.0004352224  -0.0000220564  -0.0002209646   0.0001398904  -0.0001486562
        0.0001339670  -0.0000276556  -0.0001856330  -0.0000170419   0.0002957281
       -0.0000940938   0.0002390759  -0.0001773844  -0.0000581421  -0.0001101348
        0.0000756847  -0.0001113810   0.0000270330  -0.0000002956  -0.0000749642
       -0.0000777889   0.0001886339   0.0000099595   0.0001282888  -0.0000926948
        0.0001692968   0.0000123936  -0.0000217566   0.0001362122  -0.0000057119
       -0.0003424350   0.0002058496  -0.0002759072   0.0002881374   0.0001471983
        0.0001850594  -0.0001348714   0.0003734463  -0.0000833973   0.0003243488
       -0.0002256781   0.0002784711  -0.0002317648   0.0002461522  -0.0002110936
        0.0000279003  -0.0002045731   0.0000634441  -0.0001453721  -0.0000042304
       -0.0000731029  -0.0000682099  -0.0000721716   0.0000772272  -0.0000247283
        0.0002262026  -0.0000031864   0.0000625849  -0.0000418978  -0.0000104211
        0.0000975256   0.0000726459   0.0000196847  -0.0001448528  -0.0001192264
        0.0000492327  -0.0002118169   0.0000515544  -0.0001425232   0.0001883492
       -0.0004350279   0.0001194596  -0.0006427430  -0.0000115365   0.0000127823
        0.0016168455   0.0003274682  -0.0000038311  -0.0015784717  -0.0022881123
       -0.0004476066   0.0000137398   0.0074398992   0.0016308222  -0.0036616552
       -0.0190872159  -0.0039187710   0.0153300870   0.0198409766   0.0035061655
        0.0046026576  -0.0057509368  -0.0014382761  -0.0029328332   0.0038338487
        0.0009330866   0.0001699267  -0.0002689299  -0.0000160663   0.0000662327
       -0.0000895326   0.0000027077   0.0000104198   0.0001122516   0.0000159274
       -0.0000213454   0.0000981665  -0.0000048118   0.0000169840  -0.0000040902
       -0.0000300622  -0.0000148928  -0.0000046229  -0.0000063221  -0.0000120803
       -0.0000959189  -0.0000015563  -0.0000019393  -0.0000004756  -0.0000776190
        0.0000133440   0.0000263799  -0.0000519007   0.0000737273  -0.0001206337
        0.0000224591   0.0000029273  -0.0001450336  -0.0000102723  -0.0000437218
        0.0000238253  -0.0000191084   0.0000207177  -0.0000045865   0.0000044437
        0.0000097467   0.0001085195   0.0000130503   0.0001046364  -0.0000089399
       -0.0000041738   0.0000017851  -0.0000118218  -0.0000132383  -0.0000793064
       -0.0000146113  -0.0000422954  -0.0000894906   0.0000899764   0.0000288149
        0.0000568597   0.0000251962  -0.0000673103   0.0000221406  -0.0000247999
        0.0000594816  -0.0000349184  -0.0001104573  -0.0000034104  -0.0000234860
        0.0000228915  -0.0000230483   0.0000285322   0.0000171685   0.0000157856
       -0.0000466004   0.0000033525  -0.0000063593  -0.0000072326  -0.0001403146
       -0.0000191596   0.0000149617  -0.0000342429  -0.0000002408  -0.0000215079
       -0.0000222474   0.0000601855   0.0000144631   0.0000929308   0.0000116823
        0.0000699181   0.0000741277  -0.0000018672  -0.0000593084   0.0000428876
        0.0000429334   0.0000341650  -0.0000012507   0.0000206984  -0.0000025347
       -0.0000210315   0.0000165422   0.0000250029  -0.0000154489   0.0000045641
        0.0000470492   0.0000239630  -0.0000475701   0.0000421568  -0.0000085390
        0.0000241049   0.0000358377  -0.0000566324  -0.0000776055   0.0000017059
        0.0000144627  -0.0000187006   0.0000878280   0.0002428094  -0.0000365784
        0.4654618490   0.9688432194   0.1794896092  -0.4280382633  -0.9165933947
       -0.1673395296  -0.0471088849  -0.0728443915  -0.0154073878   0.0007056396
        0.0427931148   0.0084223831  -0.0108161404  -0.0293296967  -0.0053173571
       -0.0076383559   0.0114115669   0.0024412160   0.0056750062  -0.0024085098
       -0.0005549063  -0.0007637291   0.0057039035   0.0013474529  -0.0036525534
       -0.0021034057  -0.0006114063   0.0008911096  -0.0013837490  -0.0000360441
        0.0003616762   0.0008106061  -0.0001785199   0.0001008755  -0.0001539084
        0.0000087438  -0.0000836720   0.0001493707   0.0001108171   0.0004036922
        0.0002031115  -0.0003900251   0.0000278655  -0.0002050171   0.0001004435
        0.0000830571  -0.0000486698  -0.0002076419  -0.0000032772  -0.0001328244
       -0.0004137918   0.0000029309  -0.0003191211   0.0001823615   0.0000021045
       -0.0000611902   0.0002098622  -0.0000982661   0.0001032062   0.0001668728
       -0.0004645818  -0.0002720281   0.0004546936   0.0004428048   0.0002463700
       -0.0004645635  -0.0003626691  -0.0003123935   0.0004496841   0.0004594930
        0.0004258703  -0.0003934629  -0.0004024497  -0.0003074315   0.0003972881
        0.0002192961  -0.0000987176  -0.0001598370  -0.0000104551   0.0002876768
        0.0000716904   0.0001658804   0.0004024945  -0.0000231877   0.0002676642
        0.0000261527  -0.0001593503   0.0000216045  -0.0001919093  -0.0000345927
       -0.0001339174  -0.0002928291   0.0000665358  -0.0000889825  -0.0001157510
        0.0001405882   0.0000518603  -0.0001540790   0.0000110614  -0.0009015413
       -0.0001221488   0.0002064766   0.0019017777  -0.0002087606  -0.0001619234
       -0.0056982490  -0.0047831229  -0.0009903120   0.0059145365   0.0022954876
        0.0005070422  -0.0037292887  -0.0019671662  -0.0004537625   0.0025513728
       -0.0004296635  -0.0002921634   0.0005392659   0.0012813464   0.0003087237
       -0.0010648035  -0.0000724954  -0.0005907994   0.0003671919  -0.0004469196
        0.0003775763  -0.0000395190  -0.0004836249  -0.0000232494   0.0007955505
       -0.0002818178   0.0006411382  -0.0004569672  -0.0001444386  -0.0002835416
        0.0002165201  -0.0003363541   0.0000622269  -0.0000010684  -0.0002017037
       -0.0001957783   0.0004108138   0.0000372998   0.0002815786  -0.0002467804
        0.0003797071   0.0000273722  -0.0000631965   0.0003981384  -0.0000049133
       -0.0009289010   0.0006079726  -0.0007509399   0.0008088500   0.0003840087
        0.0005213883  -0.0003415985   0.0010257420  -0.0002567300   0.0008875972
       -0.0005908611   0.0007508428  -0.0006318098   0.0006252743  -0.0005672234
        0.0000682292  -0.0005133879   0.0001588319  -0.0004034062  -0.0000075746
       -0.0001802478  -0.0001819902  -0.0001816680   0.0001791449  -0.0000560132
        0.0004938658  -0.0000136097   0.0001729070  -0.0001009323  -0.0000219834
        0.0002988770   0.0001889824   0.0000661520  -0.0003874365  -0.0002540597
        0.0000843195  -0.0005604356   0.0001236329  -0.0003904851   0.0004475122
       -0.0010802099   0.0003073107  -0.0011755682  -0.0003103420   0.0000294724
        0.0034462627   0.0007354555   0.0000558213  -0.0032078439  -0.0051172814
       -0.0010798031  -0.0003963060   0.0157697018   0.0032515279  -0.0110911921
       -0.0414098153  -0.0077521584   0.0312008857   0.0350262669   0.0055453260
        0.0096996962  -0.0144366627  -0.0035887334  -0.0047002293   0.0103038015
        0.0023086257   0.0003026458  -0.0003842288  -0.0000113432   0.0000723856
       -0.0001360915  -0.0000043194   0.0000284207   0.0002100753   0.0000285626
       -0.0000570692   0.0001929679  -0.0000032756   0.0000333846  -0.0000026194
       -0.0000688593  -0.0000363967  -0.0000138222  -0.0000028064  -0.0000276371
       -0.0002014943  -0.0000012140  -0.0000032166  -0.0000153321  -0.0001675992
        0.0000278389   0.0000675251  -0.0001100336   0.0001594635  -0.0002529689
        0.0000553170   0.0000081789  -0.0002944522  -0.0000248582  -0.0000934517
        0.0000488277  -0.0000300665   0.0000458448  -0.0000261026   0.0000019182
        0.0000180011   0.0002213119   0.0000271612   0.0002173128  -0.0000170637
       -0.0000123146  -0.0000052100  -0.0000362261  -0.0000342055  -0.0001683932
       -0.0000327062  -0.0000809641  -0.0001550490   0.0001769497   0.0000690002
        0.0001118390   0.0000751975  -0.0001067712   0.0000211556  -0.0000379427
        0.0001704172  -0.0000844924  -0.0002328788  -0.0000179344  -0.0000699370
        0.0000540757  -0.0000721158   0.0000699103   0.0000419631   0.0000369603
       -0.0001146659   0.0000134586  -0.0000207681  -0.0000162353  -0.0002933480
       -0.0000394189   0.0000301130  -0.0000845637  -0.0000025652  -0.0000300951
       -0.0000461012   0.0001416905   0.0000268896   0.0001984088   0.0000207263
        0.0001455397   0.0001450023  -0.0000064542  -0.0001052153   0.0000995240
        0.0000970439   0.0000863426  -0.0000024460   0.0000508092  -0.0000032951
       -0.0000431322   0.0000361944   0.0000381355  -0.0000424459   0.0000120372
        0.0000873973   0.0000609613  -0.0001099088   0.0001096040  -0.0000264868
        0.0000632725   0.0000914055  -0.0001411706  -0.0001611764  -0.0000033851
        0.0000197843  -0.0000715125   0.0001000223   0.0004642723  -0.0001028661
        0.0874589467   0.1794896092   0.0484678997  -0.0803476716  -0.1672388696
       -0.0594319918  -0.0087698139  -0.0158967494   0.0090998407   0.0001108476
        0.0075346855   0.0036375217  -0.0017333275  -0.0050652020  -0.0020889150
       -0.0014855970   0.0021462815   0.0002531169   0.0010559951  -0.0004696439
       -0.0001322751  -0.0001710421   0.0010580225   0.0002740800  -0.0005566405
       -0.0004320697  -0.0001028594   0.0000899348  -0.0001514197   0.0000081955
        0.0000447408   0.0000818693  -0.0000064406   0.0000466079  -0.0000068547
       -0.0000234031  -0.0000032068   0.0000026772   0.0000153923   0.0000924703
        0.0000692069  -0.0000960893   0.0000021590  -0.0000639493   0.0000297254
        0.0000241812  -0.0000084775  -0.0000593994   0.0000017960  -0.0000339587
       -0.0000789720   0.0000007297  -0.0000543655   0.0000343152   0.0000007668
       -0.0000172205   0.0000491629  -0.0000276340   0.0000355583   0.0000407476
       -0.0001145238  -0.0000750629   0.0001217474   0.0000730249   0.0000840313
       -0.0000918400  -0.0001027219  -0.0000385092   0.0000998885   0.0001189738
        0.0000968298  -0.0000987260  -0.0001033931  -0.0000688281   0.0000989311
        0.0000583990  -0.0000246396  -0.0000488337  -0.0000032119   0.0000674364
        0.0000192131   0.0000349114   0.0000751789  -0.0000105051   0.0000489759
        0.0000052634  -0.0000234830   0.0000078231  -0.0000408914  -0.0000103332
       -0.0000340330  -0.0000652486   0.0000212920  -0.0000009862  -0.0000397357
        0.0000200200  -0.0000129991  -0.0000318535   0.0000320569  -0.0001039809
       -0.0000337007  -0.0000104685   0.0002692382  -0.0000215951  -0.0000153356
       -0.0009162109  -0.0008793670  -0.0001850886   0.0009615771   0.0002818146
        0.0000726592  -0.0005193086  -0.0002974966  -0.0000468379   0.0002698102
       -0.0003318556  -0.0000830499   0.0002417154   0.0004911980   0.0000984488
       -0.0002683401  -0.0000207636  -0.0001556452   0.0001039671  -0.0000816239
        0.0001095457  -0.0000361268  -0.0001170594  -0.0000112374   0.0001734047
       -0.0000405080   0.0001373359  -0.0001080707  -0.0000364802  -0.0000701647
        0.0000556774  -0.0000712046   0.0000173052  -0.0000052519  -0.0000443565
       -0.0000409399   0.0000805821   0.0000073653   0.0000587387  -0.0000558555
        0.0000730677   0.0000063790  -0.0000050776   0.0000934652   0.0000028713
       -0.0001873439   0.0001254906  -0.0001450731   0.0001562227   0.0001045116
        0.0000950103  -0.0000280888   0.0002259688  -0.0000300368   0.0001974654
       -0.0001329827   0.0001606735  -0.0001287626   0.0001615971  -0.0001216427
        0.0000203538  -0.0001318509   0.0000407204  -0.0001003033   0.0000083268
       -0.0000397163  -0.0000408704  -0.0000443865   0.0000368401  -0.0000124927
        0.0000963770  -0.0000069015   0.0000443679  -0.0000266952  -0.0000023213
        0.0000729062   0.0000556748   0.0000155381  -0.0000946042  -0.0000875649
        0.0000187156  -0.0001452885   0.0000548048  -0.0001076901   0.0001336742
       -0.0003212911   0.0000874622  -0.0001851977   0.0001399592  -0.0000054168
        0.0004710220   0.0000756489  -0.0001708129  -0.0004018814  -0.0008241833
        0.0001880762  -0.0002586549   0.0026421513   0.0011505439  -0.0021572870
       -0.0071886742  -0.0030883450   0.0055642992   0.0060669766   0.0020952944
        0.0018447271  -0.0027994463  -0.0006598061  -0.0008830090   0.0019185425
        0.0007066185   0.0000313956  -0.0000394925  -0.0000333725   0.0000101873
       -0.0000306842  -0.0000138733   0.0000037341   0.0000352953   0.0000027381
       -0.0000120451   0.0000313692  -0.0000002227   0.0000045088   0.0000014034
       -0.0000120259  -0.0000080327  -0.0000058442   0.0000015206  -0.0000061467
       -0.0000361270  -0.0000014422  -0.0000008841  -0.0000029308  -0.0000315493
        0.0000044947   0.0000125304  -0.0000195726   0.0000282484  -0.0000461612
        0.0000103345   0.0000023030  -0.0000538567  -0.0000050634  -0.0000176635
        0.0000087692  -0.0000054741   0.0000078896  -0.0000058529   0.0000007539
        0.0000013228   0.0000407042   0.0000041624   0.0000397009  -0.0000037824
       -0.0000037344  -0.0000018264  -0.0000061744  -0.0000115266  -0.0000357157
       -0.0000040707  -0.0000128409  -0.0000269750   0.0000340283   0.0000049951
        0.0000293112   0.0000137018  -0.0000291649  -0.0000036081  -0.0000052229
        0.0000218649  -0.0000138457  -0.0000418301  -0.0000133509  -0.0000105280
        0.0000088963  -0.0000117490   0.0000131765   0.0000084336   0.0000055991
       -0.0000215534   0.0000034291  -0.0000039292  -0.0000030811  -0.0000539582
       -0.0000072127   0.0000039193  -0.0000165805  -0.0000001060  -0.0000051916
       -0.0000076462   0.0000254115   0.0000049112   0.0000374371   0.0000051188
        0.0000277701   0.0000257375  -0.0000000490  -0.0000171209   0.0000171940
        0.0000194574   0.0000171243  -0.0000003846   0.0000098550  -0.0000002593
       -0.0000070329   0.0000098609   0.0000067577  -0.0000093641   0.0000016867
        0.0000150068   0.0000107681  -0.0000208465   0.0000198175  -0.0000077612
        0.0000120417   0.0000222352  -0.0000296239  -0.0000334061   0.0000119424
       -0.0000171410   0.0000105042   0.0000552351   0.0001288697   0.0000032809
       -0.2411067552  -0.4280382633  -0.0803476716   0.3578220154   0.5286083679
        0.0988098563  -0.0922616638  -0.0640290838  -0.0122397828   0.0127775454
       -0.0266439858  -0.0058779559   0.0059762289   0.0256637028   0.0049757075
        0.0060969132  -0.0087862805  -0.0017328176  -0.0044352414   0.0021450705
        0.0005315015   0.0004556742  -0.0047770954  -0.0010529107   0.0026928386
        0.0016692839   0.0004063880  -0.0009810274   0.0015164487   0.0001617016
       -0.0004056154  -0.0010734619   0.0003566826   0.0000824489   0.0001858968
       -0.0001790876   0.0001597369  -0.0001715947  -0.0001286104  -0.0001195921
        0.0000371695   0.0000996533  -0.0000424143   0.0000242941  -0.0000382968
       -0.0000049409   0.0000320036   0.0000478619   0.0000161203   0.0000586812
        0.0002957646   0.0000058809   0.0002712455  -0.0001439942   0.0000010382
        0.0000320816  -0.0001014292   0.0000158294  -0.0000076216  -0.0000403713
        0.0001176486  -0.0000050370  -0.0000437540  -0.0003450183   0.0001943345
        0.0002514393  -0.0000582754   0.0004120024  -0.0001645803  -0.0000452621
       -0.0001149957   0.0000142062   0.0000672358   0.0001229690  -0.0000814639
       -0.0000361962   0.0000408807   0.0000341289   0.0000096836  -0.0000824484
       -0.0000511450  -0.0000697360  -0.0002831792   0.0000097607  -0.0002172955
       -0.0000076984   0.0001353033  -0.0000025208   0.0001000801  -0.0000074757
        0.0000333415   0.0001177220  -0.0000188594   0.0000911784  -0.0000601880
       -0.0001213778  -0.0001757959  -0.0000205876   0.0001420173   0.0011803288
        0.0000481059  -0.0004792301  -0.0010374025   0.0000475005  -0.0000376560
        0.0041585109   0.0044693351   0.0010441606  -0.0045242004  -0.0016352111
       -0.0003332189   0.0026151746   0.0015022339   0.0001974980  -0.0017085159
        0.0003199295   0.0001002212  -0.0003255619  -0.0007215814  -0.0001252080
        0.0004915347   0.0000043190   0.0001979055  -0.0001678681   0.0001809227
       -0.0001601270   0.0000384459   0.0002347589   0.0000218685  -0.0003531862
        0.0000857129  -0.0002834524   0.0002306818   0.0000802048   0.0001386244
       -0.0000867306   0.0001294568  -0.0000325653  -0.0000070927   0.0001024990
        0.0001014560  -0.0003028712  -0.0000145963  -0.0002022934   0.0001279822
       -0.0002656042  -0.0000224798   0.0000289357  -0.0001626044   0.0000177793
        0.0003835543  -0.0002338876   0.0003093247  -0.0003036949  -0.0001721955
       -0.0002007096   0.0001842182  -0.0004137647   0.0000860250  -0.0003704706
        0.0002413397  -0.0003218370   0.0002620591  -0.0003096513   0.0002455962
       -0.0000373052   0.0002636368  -0.0000856682   0.0001714679   0.0000095602
        0.0000982495   0.0000874498   0.0000967058  -0.0001083400   0.0000371844
       -0.0003549460   0.0000059373  -0.0000851293   0.0000568031   0.0000150488
       -0.0001051516  -0.0000846162  -0.0000173833   0.0001720288   0.0001678399
       -0.0000801859   0.0002724466  -0.0000652555   0.0001621748  -0.0002373898
        0.0004637294  -0.0001050728   0.0011879398   0.0003983171   0.0001255594
       -0.0032243004  -0.0007145345   0.0000401915   0.0036156056   0.0047466299
        0.0008859605   0.0023992077  -0.0151201655  -0.0035393901   0.0000797898
        0.0347384388   0.0077624209  -0.0465680938  -0.0582331930  -0.0103222283
       -0.0083980312   0.0108595684   0.0026029164   0.0047479405  -0.0082775980
       -0.0019486146  -0.0002504114   0.0004131598   0.0000007715  -0.0001257369
        0.0001408937  -0.0000358116  -0.0000183279  -0.0002081377  -0.0000365201
        0.0000286691  -0.0001579858   0.0000048256  -0.0000309581   0.0000081110
        0.0000432639   0.0000193399   0.0000056683   0.0000147586   0.0000176766
        0.0001630511   0.0000002463   0.0000042308  -0.0000031735   0.0001239389
       -0.0000223045  -0.0000327909   0.0000891644  -0.0001198370   0.0002024845
       -0.0000215336  -0.0000118811   0.0002577630   0.0000094170   0.0000712008
       -0.0000311145   0.0000393471  -0.0000303308   0.0000038166  -0.0000074806
       -0.0000213846  -0.0001717006  -0.0000174580  -0.0001543319   0.0000122598
       -0.0000008189  -0.0000066089   0.0000160390   0.0000127726   0.0001312070
        0.0000192288   0.0000622992   0.0001657837  -0.0001617407  -0.0000526373
       -0.0000748878  -0.0000018251   0.0001475924  -0.0000527151   0.0000429161
       -0.0000523181   0.0000407728   0.0001638813   0.0000018551   0.0000356799
       -0.0000338057   0.0000310821  -0.0000388121  -0.0000286857  -0.0000242949
        0.0000706036  -0.0000075942   0.0000053479   0.0000215203   0.0002242940
        0.0000347153  -0.0000273196   0.0000463930  -0.0000003567   0.0000396743
        0.0000401989  -0.0000843100  -0.0000194065  -0.0001273430  -0.0000211942
       -0.0001011001  -0.0001088475   0.0000042418   0.0001003219  -0.0000624842
       -0.0000653759  -0.0000440021  -0.0000015761  -0.0000288600   0.0000064859
        0.0000454518  -0.0000254947  -0.0000376987   0.0000179450  -0.0000059005
       -0.0000759874  -0.0000311903   0.0000707265  -0.0000584862   0.0000123602
       -0.0000303389  -0.0000704608   0.0000654215   0.0001099838   0.0000214275
        0.0000018157   0.0000090712  -0.0001251024  -0.0003320139   0.0000416358
       -0.4314151769  -0.9165933947  -0.1672388696   0.5286083679   1.1840100726
        0.2122987135  -0.0610092388  -0.1704617994  -0.0253318088  -0.0075106534
       -0.1172351403  -0.0232589851   0.0240058452   0.0433938036   0.0064834900
        0.0110520980  -0.0193723259  -0.0042171448  -0.0092540831   0.0038623696
        0.0008481733   0.0011726059  -0.0092775578  -0.0021539098   0.0060040816
        0.0034883438   0.0009975071  -0.0014574573   0.0022476123   0.0000878119
       -0.0005793420  -0.0013437352   0.0003362123  -0.0001000286   0.0002547592
       -0.0000640641   0.0001504544  -0.0002534575  -0.0001801695  -0.0005495790
       -0.0002478616   0.0005278600  -0.0000465755   0.0002625341  -0.0001364586
       -0.0001060584   0.0000736503   0.0002828753   0.0000050024   0.0001804651
        0.0006111412  -0.0000023213   0.0004781764  -0.0002724509  -0.0000045578
        0.0000845443  -0.0002961227   0.0001355826  -0.0001349899  -0.0002310354
        0.0006374821   0.0003431958  -0.0005964468  -0.0006675139  -0.0002596132
        0.0006673429   0.0004470278   0.0005289863  -0.0006244570  -0.0005927632
       -0.0005834552   0.0005028790   0.0005290333   0.0004307058  -0.0005266379
       -0.0002777977   0.0001363899   0.0002103126   0.0000096246  -0.0003943765
       -0.0001058071  -0.0002248850  -0.0005916360   0.0000308864  -0.0003999246
       -0.0000367272   0.0002370442  -0.0000229652   0.0002697684   0.0000377453
        0.0001794401   0.0004069376  -0.0000908059   0.0001454579   0.0001175187
       -0.0002198286  -0.0001157428   0.0001691309   0.0000326862   0.0015071056
        0.0001770673  -0.0004103441  -0.0033335358   0.0003588752   0.0002350240
        0.0097805240   0.0071551370   0.0015400563  -0.0095725699  -0.0041023724
       -0.0009128710   0.0063648288   0.0034198405   0.0007477864  -0.0044107666
        0.0005195731   0.0004288673  -0.0007364254  -0.0017996482  -0.0004347389
        0.0015669381   0.0001111110   0.0008455507  -0.0005353794   0.0006426980
       -0.0005385516   0.0000555888   0.0007044208   0.0000403290  -0.0011593347
        0.0004065043  -0.0009332922   0.0006673129   0.0002144218   0.0004130038
       -0.0003118355   0.0004818784  -0.0000915373  -0.0000009211   0.0002893717
        0.0002806664  -0.0006101042  -0.0000528360  -0.0004179712   0.0003556029
       -0.0005600026  -0.0000419274   0.0000888798  -0.0005763814   0.0000103286
        0.0013508782  -0.0008778285   0.0010967493  -0.0011760184  -0.0005734201
       -0.0007593949   0.0004994763  -0.0014978170   0.0003661897  -0.0012873074
        0.0008639564  -0.0010910451   0.0009120289  -0.0009138398   0.0008202528
       -0.0001024220   0.0007454429  -0.0002323652   0.0005775114   0.0000116896
        0.0002598321   0.0002593106   0.0002584311  -0.0002566834   0.0000811120
       -0.0007292555   0.0000223487  -0.0002485047   0.0001463007   0.0000349708
       -0.0004267882  -0.0002729024  -0.0000927797   0.0005557885   0.0003726571
       -0.0001271354   0.0008020165  -0.0001783714   0.0005570517  -0.0006610990
        0.0015559176  -0.0004544719   0.0019405478   0.0006364713  -0.0000255757
       -0.0058967037  -0.0012514246  -0.0001868518   0.0058669545   0.0092440644
        0.0021457892  -0.0005230118  -0.0259318569  -0.0050856342   0.0159247558
        0.0676706903   0.0120480324  -0.0699224256  -0.0650364389  -0.0107645327
       -0.0128546178   0.0186118440   0.0050183123   0.0071849165  -0.0146515777
       -0.0034189299  -0.0005704802   0.0005249426   0.0000224013  -0.0001018478
        0.0001977681  -0.0000067872  -0.0000400675  -0.0003062915  -0.0000526375
        0.0000787612  -0.0002843582   0.0000074026  -0.0000503905   0.0000091136
        0.0000982531   0.0000528168   0.0000236909   0.0000069014   0.0000417385
        0.0003034678   0.0000041371   0.0000057662   0.0000221909   0.0002497299
       -0.0000416818  -0.0000911129   0.0001685086  -0.0002354168   0.0003812202
       -0.0000773277  -0.0000152110   0.0004480860   0.0000344739   0.0001406451
       -0.0000646891   0.0000511259  -0.0000680808   0.0000376277  -0.0000034828
       -0.0000294080  -0.0003272148  -0.0000382871  -0.0003225631   0.0000268150
        0.0000156983   0.0000021306   0.0000511186   0.0000480977   0.0002497395
        0.0000509494   0.0001185361   0.0002270637  -0.0002633795  -0.0000894126
       -0.0001413674  -0.0001427687   0.0001423272  -0.0000269084   0.0000621432
       -0.0002465025   0.0001328808   0.0003440547   0.0000279524   0.0000999812
       -0.0000750243   0.0000988556  -0.0000981248  -0.0000627884  -0.0000516122
        0.0001679427  -0.0000193682   0.0000299751   0.0000268772   0.0004364379
        0.0000611658  -0.0000439163   0.0001231367   0.0000061981   0.0000501087
        0.0000726510  -0.0002031685  -0.0000386554  -0.0002866242  -0.0000299590
       -0.0002153556  -0.0002130490   0.0000107106   0.0001651655  -0.0001390979
       -0.0001423837  -0.0001214836   0.0000065688  -0.0000727388   0.0000073235
        0.0000680937  -0.0000534350  -0.0000578169   0.0000631048  -0.0000169108
       -0.0001304264  -0.0000844971   0.0001610645  -0.0001503419   0.0000412495
       -0.0000844492  -0.0001347998   0.0002113761   0.0002331345   0.0000069004
       -0.0000306976   0.0001192435  -0.0001392434  -0.0006601312   0.0001710152
       -0.0810337968  -0.1673395296  -0.0594319918   0.0988098563   0.2122987135
        0.1042827507  -0.0121286885  -0.0245543754  -0.0486791442  -0.0016817301
       -0.0220082620  -0.0076672804   0.0039096768   0.0062876724   0.0079478877
        0.0022844087  -0.0037844971   0.0001786498  -0.0017157462   0.0007875774
        0.0003732449   0.0002938858  -0.0017293074  -0.0004690218   0.0007012726
        0.0008166902   0.0001205657  -0.0000115599   0.0000968363  -0.0000020816
       -0.0000546232  -0.0000615278  -0.0000207223  -0.0000862774  -0.0000034702
        0.0000666842  -0.0000066693   0.0000156549  -0.0000115213  -0.0001442086
       -0.0001313179   0.0001546729  -0.0000000946   0.0001115708  -0.0000495436
       -0.0000459540   0.0000142643   0.0001001379  -0.0000007526   0.0000533127
        0.0001261609  -0.0000027204   0.0000729679  -0.0000456582   0.0000029521
        0.0000213880  -0.0000812264   0.0000486961  -0.0000605687  -0.0000762965
        0.0001900280   0.0001170271  -0.0002079824  -0.0000900547  -0.0001478686
        0.0001363184   0.0001638495   0.0000291934  -0.0001505933  -0.0001894822
       -0.0001726550   0.0001623839   0.0001806703   0.0000919785  -0.0001674024
       -0.0001059145   0.0000423858   0.0000724942   0.0000068226  -0.0001247907
       -0.0000232956  -0.0000673377  -0.0001200019   0.0000040434  -0.0000618386
       -0.0000107338   0.0000386607  -0.0000088630   0.0000729713   0.0000204844
        0.0000634421   0.0001143640  -0.0000309340  -0.0000049955   0.0000898440
       -0.0000281434   0.0000445635   0.0000612532  -0.0000702311   0.0001050665
        0.0000512978   0.0000436966  -0.0003527693   0.0000162635  -0.0000081532
        0.0013690214   0.0013022616   0.0001951988  -0.0013390839  -0.0001995566
       -0.0000947245   0.0005544381   0.0003812047   0.0000282567  -0.0000759853
        0.0010899181   0.0001977966  -0.0006870447  -0.0012920441  -0.0002168798
        0.0005531612   0.0000351946   0.0003150804  -0.0002325181   0.0001183235
       -0.0002380888   0.0001120219   0.0002346077   0.0000342587  -0.0003090091
        0.0000134115  -0.0002315759   0.0002012395   0.0000729423   0.0001460575
       -0.0001109950   0.0001243822  -0.0000412187   0.0000082859   0.0000872849
        0.0000692787  -0.0001275644  -0.0000201167  -0.0000855869   0.0001016433
       -0.0001177736   0.0000002221   0.0000047509  -0.0001700047  -0.0000204217
        0.0002880912  -0.0002057870   0.0002193050  -0.0002356923  -0.0002129700
       -0.0001041669  -0.0000503738  -0.0003910490   0.0000126939  -0.0003335853
        0.0002130779  -0.0002726291   0.0002035242  -0.0003291044   0.0002065408
       -0.0000462919   0.0002752379  -0.0000820257   0.0001875095  -0.0000309749
        0.0000768511   0.0000781448   0.0000879776  -0.0000619553   0.0000227589
       -0.0001630871   0.0000094361  -0.0000880948   0.0000542433  -0.0000025964
       -0.0001402620  -0.0001180605  -0.0000171694   0.0001887237   0.0002172774
       -0.0000373016   0.0002831117  -0.0001582241   0.0002380803  -0.0003044130
        0.0007452477  -0.0002052316   0.0002502638  -0.0006920545   0.0000519273