$hessian                                                                        
        0.2617402616   0.4996763612   0.0776343557  -0.2635541832  -0.4700430601
       -0.0729258480   0.0020937665  -0.0298770924  -0.0046946215  -0.0047825066
        0.0023444778   0.0008803679  -0.0013259322  -0.0033557146  -0.0008018655
       -0.0004454117  -0.0002240698  -0.0000179378  -0.0001240974  -0.0001971887
       -0.0000442364  -0.0000169750   0.0000581710   0.0000729811  -0.0004262887
        0.0003757767   0.0000180920   0.0002578699  -0.0003570260  -0.0000241921
        0.0000570113   0.0000961641  -0.0000086668   0.0000266576  -0.0000355947
        0.0000251962   0.0000140622   0.0000368603  -0.0000095727   0.0000384307
       -0.0000078045  -0.0000347683  -0.0000011579   0.0000074574  -0.0000016336
        0.0000117081  -0.0000193658  -0.0000046264   0.0000018767  -0.0000082236
       -0.0000060447  -0.0000022107  -0.0000000753  -0.0000017130   0.0000045114
       -0.0000027619   0.0000092404  -0.0000024141  -0.0000080426   0.0000111863
       -0.0000341042  -0.0000216765   0.0000340757   0.0000474318   0.0000330168
       -0.0000473006  -0.0000276786  -0.0000624068   0.0000404923   0.0000296237
        0.0000316114  -0.0000260862  -0.0000102383  -0.0000273751   0.0000103415
       -0.0000112995   0.0000056352   0.0000057744   0.0000070756   0.0000013846
       -0.0000089924   0.0000064052   0.0000014771   0.0000012881   0.0000032518
        0.0000022540  -0.0000001128  -0.0000019838  -0.0000048877  -0.0000034976
        0.0000064756  -0.0000214049  -0.0000107712  -0.0000156094   0.0000053877
        0.0000325833   0.0000459918  -0.0000325689  -0.0000111542  -0.0001770097
        0.0000001350   0.0000234308   0.0002923996  -0.0000734581  -0.0000811137
       -0.0000613347   0.0001003648   0.0000905910  -0.0000404887   0.0010108239
        0.0002126097  -0.0007714533  -0.0003208570  -0.0002463892   0.0007168963
        0.0010085949   0.0001460001  -0.0004444834  -0.0009070556  -0.0001282165
        0.0003171287   0.0000117516  -0.0000090473  -0.0000558939  -0.0000730949
       -0.0000382610   0.0000647624   0.0000069097   0.0000732326   0.0000880666
       -0.0001356432   0.0000839339   0.0000076796   0.0000018020  -0.0000009533
       -0.0000059653  -0.0000473410  -0.0000093862   0.0000102534  -0.0000186480
       -0.0000140189   0.0000018992   0.0000023964   0.0000042715  -0.0000161707
        0.0000108903   0.0000111102  -0.0000351455   0.0000289490  -0.0000193586
       -0.0001810356   0.0001125557  -0.0001376173   0.0002117890  -0.0001017826
        0.0001594524  -0.0001794711   0.0001547479  -0.0001464687   0.0001840893
       -0.0001142592   0.0001387479  -0.0001461808   0.0000166878  -0.0001052711
       -0.0000013161   0.0000046276   0.0000026658  -0.0000404641  -0.0000412252
       -0.0000050800  -0.0000213822  -0.0000109673   0.0000106729   0.0000003155
        0.0000023046  -0.0000019290   0.0000216738  -0.0000036576  -0.0000090211
        0.0000434458  -0.0000175508   0.0000235865  -0.0000273720   0.0000729422
       -0.0000559719  -0.0000361385  -0.0001027659   0.0000027209  -0.0001746122
        0.0002600383   0.0000173271   0.0001558390  -0.0006386712   0.0000711011
        0.0008036031   0.0002542991   0.0000225487  -0.0007586453  -0.0015902985
       -0.0002018645   0.0017287230   0.0020596535   0.0003254300   0.0003602878
       -0.0015740335  -0.0003841457   0.0047857200   0.0024259961   0.0001978770
        0.0000041560   0.0004109881   0.0000075962  -0.0003131559  -0.0003013842
       -0.0000035950   0.0000683377  -0.0000894049  -0.0000350747   0.0000516834
       -0.0000559004   0.0000016034  -0.0000217661   0.0000033249  -0.0000120926
       -0.0000167495   0.0000008256  -0.0000002876  -0.0000055973   0.0000027118
       -0.0000033715  -0.0000031183  -0.0000029647   0.0000002879  -0.0000025786
       -0.0000019692  -0.0000015053  -0.0000019435  -0.0000019654  -0.0000025810
       -0.0000031146   0.0000026907  -0.0000015210   0.0000027665  -0.0000127641
       -0.0000055003   0.0000003070  -0.0000093757   0.0000045619  -0.0000037158
       -0.0000004363   0.0000044469  -0.0000014710  -0.0000028024   0.0000004051
        0.0000006117  -0.0000029540  -0.0000012477   0.0000072225  -0.0000022770
       -0.0000024992  -0.0000033003   0.0000000299   0.0000029901   0.0000113928
        0.0000007252  -0.0000163748  -0.0000222883   0.0000014357  -0.0000030101
       -0.0000023482  -0.0000289865   0.0000049274  -0.0000187849  -0.0000447987
        0.0000058113   0.0000207514   0.0000164720   0.0000097080  -0.0000151492
        0.0000146762  -0.0000179784   0.0000139596   0.0000051800   0.0000049757
       -0.0000086021   0.0000045138   0.0000002853  -0.0000075273  -0.0000056501
       -0.0000048605   0.0000006225  -0.0000118410  -0.0000057706   0.0000088565
        0.0000008426   0.0000143157  -0.0000133054  -0.0000249427   0.0000110839
       -0.0000065746  -0.0000217827  -0.0000167428  -0.0000010299   0.0000138234
       -0.0000016056   0.0000102281  -0.0000090629  -0.0000003901   0.0000031735
       -0.0000096695   0.0000022322  -0.0000052955  -0.0000106626   0.0000019443
        0.0000004382   0.0000115624  -0.0000104533   0.0000217259  -0.0000112583
        0.0000231478   0.0000027428   0.0000256937  -0.0000058443  -0.0000184654
       -0.0000299862  -0.0000087915   0.0000365764   0.0000324875  -0.0000547549
        0.4996763612   1.0283707051   0.1575297108  -0.4688256783  -0.9868082850
       -0.1490275854  -0.0337119229  -0.0435916688  -0.0086798868  -0.0012753888
        0.0115252629   0.0015888059  -0.0045425421  -0.0047581799  -0.0001944191
       -0.0001675844  -0.0001038463   0.0000573604  -0.0000919497  -0.0002119600
       -0.0000225438  -0.0000887640  -0.0000351488   0.0001227111  -0.0008793022
        0.0008025971   0.0000623669   0.0005077255  -0.0008451186  -0.0000690799
        0.0001391751   0.0002755276  -0.0000355851   0.0000469866  -0.0000912404
        0.0000532764   0.0000285464   0.0000843058  -0.0000267701   0.0000863457
       -0.0000241756  -0.0000719620  -0.0000000048   0.0000229875  -0.0000054723
        0.0000268025  -0.0000519524  -0.0000093857  -0.0000065235  -0.0000167073
       -0.0000228733  -0.0000056210  -0.0000014767  -0.0000046493   0.0000048322
       -0.0000012565   0.0000208150  -0.0000059845  -0.0000261410   0.0000291037
       -0.0000836447  -0.0000466009   0.0000676969   0.0001163833   0.0000533911
       -0.0001034869  -0.0000744187  -0.0001236912   0.0000936507   0.0000749493
        0.0000592640  -0.0000687560  -0.0000216853  -0.0000708806   0.0000314535
       -0.0000248170   0.0000070913   0.0000150156   0.0000231436   0.0000034992
       -0.0000201984   0.0000147151   0.0000067566   0.0000030637   0.0000047228
        0.0000041864   0.0000021594  -0.0000111902  -0.0000159238  -0.0000093931
        0.0000201556  -0.0000340514  -0.0000155058  -0.0000513289   0.0000121833
        0.0000727416   0.0000854447  -0.0000463054  -0.0000513817  -0.0003699731
        0.0000023426   0.0000613187   0.0006501733  -0.0001297254  -0.0001639326
       -0.0002579263   0.0004419570   0.0001740203  -0.0001777862   0.0021429128
        0.0004459013  -0.0016380409  -0.0006513560  -0.0004836763   0.0015156612
        0.0022300512   0.0003295710  -0.0010126161  -0.0019779365  -0.0002972621
        0.0007337671   0.0000330813   0.0000052909  -0.0001278454  -0.0001619188
       -0.0000848029   0.0001388296   0.0000179727   0.0001621964   0.0001773130
       -0.0002884756   0.0001709363   0.0000228200   0.0000064858   0.0000015714
       -0.0000148960  -0.0001074105  -0.0000248720   0.0000217190  -0.0000409041
       -0.0000328999   0.0000047956   0.0000036017   0.0000091643  -0.0000356352
        0.0000243910   0.0000240445  -0.0000756261   0.0000580858  -0.0000450336
       -0.0003750046   0.0002406396  -0.0002833092   0.0004384543  -0.0002356790
        0.0003331182  -0.0003859792   0.0003313632  -0.0003129472   0.0003847326
       -0.0002447311   0.0002900085  -0.0003119450   0.0000273999  -0.0002256950
       -0.0000044900   0.0000063436   0.0000059526  -0.0000795141  -0.0000819190
       -0.0000117532  -0.0000443983  -0.0000268297   0.0000223727  -0.0000013965
        0.0000057073  -0.0000042769   0.0000487011  -0.0000108547  -0.0000194334
        0.0000937767  -0.0000405918   0.0000493918  -0.0000552273   0.0001649897
       -0.0001147042  -0.0000743404  -0.0002157105   0.0000167817  -0.0003827804
        0.0005584666   0.0000300774   0.0003149839  -0.0014073266   0.0001612233
        0.0017640959   0.0004908656   0.0000188023  -0.0018476767  -0.0033447709
       -0.0006881323   0.0038210260   0.0052023388   0.0008942547  -0.0054984213
       -0.0067721194  -0.0008214556   0.0116825907  -0.0001256146  -0.0006888349
       -0.0002622014  -0.0017244060  -0.0003160938   0.0002571755   0.0016312515
        0.0002904179  -0.0000084103   0.0000072675  -0.0000328116   0.0000578291
       -0.0000737462   0.0000032136  -0.0000325966   0.0000118051  -0.0000279129
       -0.0000369873  -0.0000030994   0.0000048285  -0.0000112335   0.0000063705
       -0.0000108873  -0.0000067318  -0.0000085729   0.0000037079  -0.0000057427
       -0.0000099902  -0.0000010135  -0.0000037149  -0.0000090043  -0.0000068607
       -0.0000042416   0.0000084696  -0.0000012554   0.0000061612  -0.0000281170
       -0.0000107506   0.0000042343  -0.0000238724   0.0000101872  -0.0000082937
       -0.0000008164   0.0000117311  -0.0000021490  -0.0000126839  -0.0000026504
        0.0000039963  -0.0000092960  -0.0000049675   0.0000095500  -0.0000036723
       -0.0000030211  -0.0000146458  -0.0000069589   0.0000043421   0.0000153877
        0.0000016537  -0.0000206817  -0.0000379732  -0.0000002025   0.0000162378
       -0.0000257437  -0.0000556125   0.0000052588  -0.0000390178  -0.0000891289
        0.0000139061   0.0000522631   0.0000331399   0.0000206989  -0.0000388401
        0.0000306291  -0.0000458550   0.0000301406   0.0000118453   0.0000124081
       -0.0000239343   0.0000107613  -0.0000001758  -0.0000151649  -0.0000111445
       -0.0000108489  -0.0000016553  -0.0000254260  -0.0000120292   0.0000204652
        0.0000022430   0.0000305742  -0.0000287055  -0.0000542989   0.0000227951
       -0.0000165500  -0.0000512349  -0.0000368005  -0.0000005581   0.0000273131
       -0.0000001066   0.0000211725  -0.0000150628   0.0000003113   0.0000057519
       -0.0000231453   0.0000036234  -0.0000167342  -0.0000227739   0.0000038392
       -0.0000031796   0.0000230120  -0.0000233147   0.0000472146  -0.0000216430
        0.0000447070   0.0000114502   0.0000530158  -0.0000146731  -0.0000591500
       -0.0000873167  -0.0000155800   0.0001315036   0.0000641790  -0.0001184716
        0.0776343557   0.1575297108   0.0385397378  -0.0726853353  -0.1489332494
       -0.0517957914  -0.0055487668  -0.0090269202   0.0134747727   0.0002974405
        0.0014206453   0.0034725672  -0.0010265939  -0.0000900492  -0.0031542314
        0.0000112285  -0.0000034883  -0.0001529948  -0.0000256503  -0.0000039868
       -0.0000612936  -0.0000111760  -0.0000170469   0.0000392950  -0.0001427556
        0.0001406229  -0.0000279242   0.0000808610  -0.0001425324   0.0000029190
        0.0000174422   0.0000439859  -0.0000060039   0.0000120920  -0.0000133978
        0.0000125367   0.0000046957   0.0000113847  -0.0000027670   0.0000113736
       -0.0000040045  -0.0000113142  -0.0000007900   0.0000030306  -0.0000008819
        0.0000031884  -0.0000121416  -0.0000045361   0.0000001947  -0.0000049949
       -0.0000051035  -0.0000010005   0.0000003734  -0.0000007450   0.0000016730
        0.0000022514   0.0000008005  -0.0000012214  -0.0000043811   0.0000026771
       -0.0000130028  -0.0000065910   0.0000108734   0.0000201872   0.0000077928
       -0.0000138945  -0.0000173676  -0.0000177030   0.0000180655   0.0000162545
        0.0000076550  -0.0000106628  -0.0000055716  -0.0000135973   0.0000092980
        0.0000002959   0.0000014331   0.0000018927   0.0000023800   0.0000020882
       -0.0000040669   0.0000042316   0.0000028946   0.0000035516  -0.0000006743
        0.0000015363   0.0000016141   0.0000000579  -0.0000014056   0.0000041622
        0.0000038056  -0.0000042903  -0.0000017025  -0.0000041648   0.0000046509
        0.0000132343   0.0000124602   0.0000004079  -0.0000013876  -0.0000417866
       -0.0000055585  -0.0000088133   0.0001040569  -0.0000277805  -0.0000148012
       -0.0000268099   0.0000709549   0.0001913112  -0.0000349026   0.0003516035
        0.0001017018  -0.0002693281  -0.0000711519  -0.0001897488   0.0002589958
        0.0003838276   0.0000536509  -0.0001755009  -0.0003449359  -0.0000161987
        0.0001070393   0.0000049915  -0.0000033051  -0.0000208146  -0.0000223263
       -0.0000137055   0.0000234178   0.0000047415   0.0000256539   0.0000287437
       -0.0000500836   0.0000298334   0.0000008687  -0.0000010257   0.0000021521
       -0.0000020274  -0.0000160185  -0.0000055831   0.0000023752  -0.0000108768
        0.0000032132   0.0000010488   0.0000084439  -0.0000060500  -0.0000056135
        0.0000041240   0.0000047507  -0.0000084076   0.0000140520  -0.0000121166
       -0.0000660876   0.0000374749  -0.0000480858   0.0000764522  -0.0000369161
        0.0000575505  -0.0000640787   0.0000521488  -0.0000514232   0.0000608594
       -0.0000405404   0.0000458017  -0.0000493060   0.0000035169  -0.0000366379
       -0.0000014833   0.0000030948  -0.0000000660  -0.0000120318  -0.0000147437
       -0.0000013839  -0.0000068059  -0.0000038018   0.0000016199   0.0000004283
       -0.0000015926  -0.0000063429   0.0000070170  -0.0000018639  -0.0000062398
        0.0000151337  -0.0000102220   0.0000071023  -0.0000068316   0.0000281003
       -0.0000183697  -0.0000121141  -0.0000362182   0.0000062369  -0.0000620587
        0.0000948906  -0.0000002520   0.0000343239  -0.0002405503  -0.0000350380
        0.0003069030   0.0000792646   0.0000611208  -0.0002865175  -0.0007266714
        0.0007348051   0.0006796446   0.0008910600   0.0000270243  -0.0011886293
       -0.0009518954  -0.0012460567   0.0020096379  -0.0002056694   0.0002254294
       -0.0000468096  -0.0003246359  -0.0005134878   0.0000502568   0.0002959637
        0.0003964894  -0.0000087651   0.0000071583  -0.0000527133   0.0000077473
       -0.0000176133   0.0000179990  -0.0000066294  -0.0000007981  -0.0000066265
       -0.0000073224  -0.0000056081  -0.0000010847  -0.0000021525   0.0000007483
       -0.0000024040  -0.0000020298  -0.0000053112  -0.0000000995  -0.0000016432
       -0.0000024334  -0.0000031649  -0.0000012597  -0.0000049528  -0.0000016721
       -0.0000011282   0.0000016348  -0.0000009542  -0.0000002254  -0.0000038718
       -0.0000027595   0.0000020148  -0.0000036724   0.0000024274  -0.0000009602
        0.0000018175   0.0000014925  -0.0000003255   0.0000007049  -0.0000004146
        0.0000005240   0.0000011014  -0.0000002849   0.0000004991   0.0000014495
        0.0000003293  -0.0000026752   0.0000001738   0.0000008647  -0.0000030924
        0.0000030198   0.0000023553  -0.0000058890   0.0000037486  -0.0000013482
       -0.0000048860  -0.0000115921   0.0000188349  -0.0000076995  -0.0000121767
       -0.0000022821   0.0000076874   0.0000064318   0.0000013408  -0.0000030908
        0.0000055102  -0.0000052831   0.0000050572   0.0000028017   0.0000008584
       -0.0000027298   0.0000032441  -0.0000008826  -0.0000012038   0.0000001781
       -0.0000033476   0.0000003588  -0.0000015120  -0.0000035733   0.0000039478
        0.0000031533   0.0000030973  -0.0000042382  -0.0000076090   0.0000018566
       -0.0000020095  -0.0000061006  -0.0000084103   0.0000001693   0.0000030240
       -0.0000014531   0.0000028197  -0.0000033297  -0.0000023327   0.0000005489
       -0.0000036056   0.0000000572  -0.0000030815  -0.0000050332  -0.0000024075
       -0.0000006485   0.0000017640  -0.0000059131   0.0000058159  -0.0000060901
        0.0000062868   0.0000013183  -0.0000000323  -0.0000071765  -0.0000127868
       -0.0000117729  -0.0000118805   0.0000185581   0.0000015930  -0.0000237690
       -0.2635541832  -0.4688256783  -0.0726853353   0.3857059936   0.5708750500
        0.0869102405  -0.1038632026  -0.0790202994  -0.0117915006   0.0174640743
       -0.0038801005  -0.0021540084   0.0023808058   0.0081753704   0.0023509378
        0.0007648882   0.0008244296   0.0001330860   0.0002045343   0.0003190161
        0.0000796340   0.0000663118  -0.0000837630  -0.0001449890   0.0009596972
       -0.0007811478  -0.0000368905  -0.0005399624   0.0008127459   0.0000647016
       -0.0001376241  -0.0002843692   0.0000401768  -0.0000601623   0.0000839735
       -0.0000429870  -0.0000210303  -0.0000951125   0.0000245485  -0.0000825227
        0.0000307458   0.0000660427   0.0000012217  -0.0000131468   0.0000015043
       -0.0000272550   0.0000498812   0.0000129199   0.0000105703   0.0000118478
        0.0000209435   0.0000063386  -0.0000015713   0.0000035399  -0.0000042989
       -0.0000010216  -0.0000180247   0.0000053405   0.0000213459  -0.0000325887
        0.0000822669   0.0000362022  -0.0000646522  -0.0001135208  -0.0000594414
        0.0001053857   0.0000685084   0.0001322926  -0.0000922187  -0.0000609862
       -0.0000662090   0.0000570008   0.0000112653   0.0000670002  -0.0000212777
        0.0000189909  -0.0000083911  -0.0000095699  -0.0000233999  -0.0000081111
        0.0000173613  -0.0000124682  -0.0000059160  -0.0000038148  -0.0000046827
       -0.0000059135  -0.0000026466   0.0000094216   0.0000123722   0.0000074286
       -0.0000182674   0.0000410828   0.0000191336   0.0000492070  -0.0000258732
       -0.0000707263  -0.0000833101   0.0000686765   0.0000312796   0.0004049171
       -0.0000090928  -0.0000813797  -0.0006816078   0.0001651862   0.0001696089
        0.0001812167  -0.0001341645  -0.0001888644   0.0000207690  -0.0019889778
       -0.0004277641   0.0016164346   0.0006158464   0.0005024775  -0.0015164305
       -0.0021180709  -0.0002993512   0.0009512754   0.0019081157   0.0002531243
       -0.0007053590  -0.0000283132  -0.0000137793   0.0001134261   0.0001438456
        0.0000770518  -0.0001326365  -0.0000342338  -0.0001504300  -0.0001571398
        0.0002685125  -0.0001545223  -0.0000212909  -0.0000051176  -0.0000012531
        0.0000112205   0.0000942353   0.0000200060  -0.0000194249   0.0000335099
        0.0000253062  -0.0000049451  -0.0000061494  -0.0000084155   0.0000314977
       -0.0000232428  -0.0000239043   0.0000729064  -0.0000617422   0.0000400990
        0.0003436061  -0.0002285408   0.0002593267  -0.0004118915   0.0002255132
       -0.0003137029   0.0003712869  -0.0002947885   0.0002980347  -0.0003572724
        0.0002100937  -0.0002661565   0.0002845699  -0.0000167761   0.0002042415
        0.0000032940  -0.0000130577  -0.0000049418   0.0000801117   0.0000805399
        0.0000077369   0.0000408513   0.0000202459  -0.0000201767   0.0000004050
       -0.0000046886   0.0000043053  -0.0000430912   0.0000073781   0.0000191923
       -0.0000901129   0.0000380241  -0.0000466459   0.0000449778  -0.0001659746
        0.0001063898   0.0000766064   0.0002057701  -0.0000105343   0.0003761369
       -0.0005749252  -0.0000035386  -0.0002956877   0.0012582768  -0.0001339074
       -0.0016807788  -0.0005412493  -0.0000540263   0.0015640985   0.0034064718
        0.0003387008  -0.0029573615  -0.0037197109  -0.0006049936  -0.0083519795
        0.0012212904   0.0009977295  -0.0288281646  -0.0270298714  -0.0032092223
        0.0005922278  -0.0021995542  -0.0003088170  -0.0001308686   0.0003209380
        0.0000003489  -0.0001300544   0.0001271967   0.0000646637  -0.0000807781
        0.0000904947  -0.0000110874   0.0000394022  -0.0000068380   0.0000189585
        0.0000332419   0.0000052601  -0.0000037112   0.0000109866  -0.0000063223
        0.0000066160   0.0000056556   0.0000072305  -0.0000012292   0.0000049730
        0.0000071416   0.0000025838   0.0000032161   0.0000076246   0.0000072379
        0.0000026100  -0.0000058436   0.0000076381  -0.0000092872   0.0000301131
        0.0000116714  -0.0000061187   0.0000247622  -0.0000076325   0.0000095597
        0.0000036495  -0.0000094849   0.0000032035   0.0000095298   0.0000017219
       -0.0000015106   0.0000071190   0.0000036003  -0.0000091929   0.0000025925
        0.0000033027   0.0000095388   0.0000006884  -0.0000051538  -0.0000195352
       -0.0000002621   0.0000251245   0.0000339120  -0.0000060060   0.0000036134
       -0.0000011133   0.0000713267  -0.0000103490   0.0000411625   0.0000843082
       -0.0000132926  -0.0000364420  -0.0000305863  -0.0000091872   0.0000325376
       -0.0000246459   0.0000368816  -0.0000255183  -0.0000097354  -0.0000089612
        0.0000190578  -0.0000091063   0.0000000611   0.0000115988   0.0000098155
        0.0000097781   0.0000018807   0.0000244042   0.0000119831  -0.0000232874
        0.0000030695  -0.0000252470   0.0000275172   0.0000557772  -0.0000216569
        0.0000169358   0.0000513538   0.0000336481  -0.0000055815  -0.0000257561
        0.0000002281  -0.0000218294   0.0000150057  -0.0000006856  -0.0000058260
        0.0000203463  -0.0000030331   0.0000143661   0.0000188325  -0.0000027748
        0.0000036728  -0.0000196280   0.0000213025  -0.0000460285   0.0000258164
       -0.0000448588  -0.0000178586  -0.0000443351   0.0000053258   0.0000464379
        0.0000682723   0.0000150411   0.0000701431  -0.0000041845   0.0001153756
       -0.4700430601  -0.9868082850  -0.1489332494   0.5708750500   1.2504025945
        0.1843848449  -0.0783423760  -0.1932734403  -0.0220617303  -0.0021096322
       -0.0700466303  -0.0111959116   0.0110357262   0.0043598144  -0.0019572654
       -0.0004869624  -0.0013542932  -0.0004574415  -0.0001775552   0.0004567746
        0.0000122717   0.0001347121  -0.0000380684  -0.0001784595   0.0013307626
       -0.0012173162  -0.0000897928  -0.0007552587   0.0013153028   0.0000863475
       -0.0002181566  -0.0004628304   0.0000826931  -0.0000915259   0.0001305855
       -0.0000713383  -0.0000375181  -0.0001472304   0.0000375890  -0.0001275584
        0.0000548794   0.0001043264   0.0000011811  -0.0000400192   0.0000099320
       -0.0000442934   0.0000868518   0.0000188360   0.0000171911   0.0000207999
        0.0000371911   0.0000171432   0.0000006517   0.0000065289  -0.0000095151
       -0.0000022985  -0.0000307275   0.0000137804   0.0000409894  -0.0000555159
        0.0001278305   0.0000492218  -0.0000993160  -0.0001855398  -0.0000699481
        0.0001612231   0.0001083694   0.0002110064  -0.0001450781  -0.0000977610
       -0.0001004504   0.0000982824   0.0000181487   0.0001100151  -0.0000363754
        0.0000439161  -0.0000103551  -0.0000270060  -0.0000423440  -0.0000159355
        0.0000320097  -0.0000202870  -0.0000108265  -0.0000095597  -0.0000066199
       -0.0000065285  -0.0000041812   0.0000200377   0.0000220293   0.0000082930
       -0.0000306095   0.0000585476   0.0000258822   0.0000815588  -0.0000345254
       -0.0001099479  -0.0001210797   0.0000697135   0.0000664340   0.0006137841
       -0.0000115967  -0.0001258153  -0.0010102698  -0.0000287955   0.0001869096
        0.0008377576  -0.0008056132  -0.0002325052   0.0003689452  -0.0036063543
       -0.0007243286   0.0027380722   0.0010625975   0.0007430373  -0.0025693683
       -0.0038285047  -0.0005635376   0.0016978287   0.0034033779   0.0005157229
       -0.0012908523  -0.0000622569  -0.0000445404   0.0002176776   0.0002542467
        0.0001496291  -0.0002328355  -0.0000474180  -0.0002687240  -0.0002791350
        0.0004764560  -0.0002730208  -0.0000477133  -0.0000127743  -0.0000093215
        0.0000255454   0.0001753319   0.0000416557  -0.0000356154   0.0000632411
        0.0000465433  -0.0000055983  -0.0000084013  -0.0000110152   0.0000550999
       -0.0000380894  -0.0000415293   0.0001287258  -0.0001017795   0.0000760153
        0.0006034438  -0.0004040175   0.0004585957  -0.0007150328   0.0004241881
       -0.0005502827   0.0006543526  -0.0005187662   0.0005252954  -0.0006324556
        0.0003821154  -0.0004744973   0.0005068563  -0.0000303934   0.0003644914
        0.0000097870  -0.0000256214  -0.0000065055   0.0001314445   0.0001421062
        0.0000179706   0.0000711986   0.0000366738  -0.0000339106  -0.0000003822
       -0.0000045677   0.0000090179  -0.0000744223   0.0000157524   0.0000345136
       -0.0001587023   0.0000713776  -0.0000827544   0.0000769496  -0.0002900286
        0.0001896916   0.0001114989   0.0003644367  -0.0000346322   0.0006759436
       -0.0010039539  -0.0000025435  -0.0005625595   0.0024126174  -0.0002696003
       -0.0030331022  -0.0008762160  -0.0000342275   0.0032064443   0.0060985877
        0.0015748313  -0.0049262546  -0.0092781580  -0.0016302763   0.0054324160
        0.0132869794   0.0012269370  -0.0354243578  -0.0104864479  -0.0004189862
        0.0023501272   0.0000880290  -0.0000758315  -0.0004136010  -0.0017478538
       -0.0003149297  -0.0001057829  -0.0000575427   0.0000506904  -0.0000780918
        0.0001163093   0.0000035628   0.0000625286  -0.0000028001   0.0000327790
        0.0000607974   0.0000139082  -0.0000074487   0.0000189049  -0.0000075104
        0.0000140563   0.0000114886   0.0000181777  -0.0000057309   0.0000097814
        0.0000204916   0.0000036968   0.0000060440   0.0000208197   0.0000142036
        0.0000053388  -0.0000075775   0.0000116005  -0.0000160888   0.0000569788
        0.0000183470  -0.0000114456   0.0000509749  -0.0000159567   0.0000169289
        0.0000115764  -0.0000158665   0.0000032653   0.0000250354   0.0000071058
       -0.0000075707   0.0000187908   0.0000099965  -0.0000173030   0.0000090453
        0.0000059329   0.0000190812   0.0000119856  -0.0000051478  -0.0000259717
        0.0000064321   0.0000310837   0.0000427576   0.0000027157  -0.0000106714
        0.0000605406   0.0000553803  -0.0000142516   0.0000739008   0.0001725635
       -0.0000242504  -0.0000774915  -0.0000568301  -0.0000264251   0.0000614695
       -0.0000452264   0.0000713313  -0.0000471396  -0.0000196972  -0.0000187788
        0.0000369398  -0.0000159365   0.0000007684   0.0000233126   0.0000187318
        0.0000179855   0.0000022179   0.0000419995   0.0000209784  -0.0000362245
        0.0000014914  -0.0000476049   0.0000502951   0.0000990934  -0.0000378937
        0.0000320241   0.0000924930   0.0000640531  -0.0000010620  -0.0000408232
        0.0000001582  -0.0000348162   0.0000291169  -0.0000000592  -0.0000083203
        0.0000385506  -0.0000062157   0.0000271251   0.0000395118  -0.0000056231
        0.0000102267  -0.0000347003   0.0000379627  -0.0000753612   0.0000428251
       -0.0000745708  -0.0000188876  -0.0000747509   0.0000193012   0.0000948269
        0.0001422265   0.0000230463  -0.0001476337  -0.0000851330   0.0002105242
       -0.0729258480  -0.1490275854  -0.0517957914   0.0869102405   0.1843848449
        0.0975135979  -0.0111366984  -0.0217660707  -0.0543314973  -0.0021929955
       -0.0111115054  -0.0100044452   0.0028738064  -0.0022620400   0.0133014094
       -0.0001605545  -0.0003757618   0.0007632614  -0.0000417482  -0.0000310156
        0.0003312140   0.0000263414   0.0000165890  -0.0000735830   0.0001821447
       -0.0002011301   0.0000980228  -0.0001066928   0.0001927793   0.0000137260
       -0.0000285809  -0.0000642444   0.0000104412  -0.0000142702   0.0000226207
       -0.0000155718  -0.0000099263  -0.0000216569   0.0000043932  -0.0000172569
        0.0000064592   0.0000147887   0.0000001807  -0.0000080815   0.0000016770
       -0.0000083450   0.0000153661   0.0000031490   0.0000036973   0.0000008433
        0.0000066096   0.0000028127   0.0000003990   0.0000007359  -0.0000007825
        0.0000018696  -0.0000063714   0.0000016811   0.0000060311  -0.0000085394
        0.0000202896   0.0000073537  -0.0000176012  -0.0000271893  -0.0000070378
        0.0000240499   0.0000150514   0.0000269252  -0.0000220375  -0.0000161192
       -0.0000162569   0.0000132253   0.0000055878   0.0000160244  -0.0000075434
        0.0000080889  -0.0000010495  -0.0000031374  -0.0000082576  -0.0000019945
        0.0000011234  -0.0000027137  -0.0000020350   0.0000001399  -0.0000014689
       -0.0000015157  -0.0000020231   0.0000039979   0.0000041071   0.0000036689
       -0.0000055251   0.0000082981  -0.0000011013   0.0000093086  -0.0000028163
       -0.0000167714  -0.0000165307   0.0000037138   0.0000070812   0.0000795648
        0.0000048696  -0.0000028884  -0.0001423167  -0.0000117701  -0.0000295674
        0.0000833734  -0.0000507510  -0.0006760548   0.0000780787  -0.0005600748
       -0.0001820039   0.0004262205   0.0000521501   0.0005472075  -0.0004091584
       -0.0006226619  -0.0000998501   0.0002860902   0.0005849482  -0.0000074817
       -0.0001843413  -0.0000189357  -0.0000124137   0.0000398691   0.0000514979
        0.0000229491  -0.0000468068  -0.0000133938  -0.0000413332  -0.0000454400
        0.0000851678  -0.0000450179  -0.0000065947  -0.0000043815   0.0000000923
        0.0000046811   0.0000299056   0.0000041767  -0.0000074809   0.0000060318
        0.0000146709  -0.0000021376   0.0000047643  -0.0000089578   0.0000089526
       -0.0000079377  -0.0000060108   0.0000233903  -0.0000127826   0.0000064156
        0.0000985537  -0.0000676034   0.0000783701  -0.0001247839   0.0000619151
       -0.0000938603   0.0001117129  -0.0000787685   0.0000897337  -0.0000966698
        0.0000570223  -0.0000747730   0.0000774487  -0.0000017760   0.0000546116
        0.0000013781  -0.0000015616  -0.0000010606   0.0000200789   0.0000207300
        0.0000023908   0.0000120074   0.0000057133  -0.0000061831   0.0000002152
       -0.0000029416  -0.0000022560  -0.0000125686   0.0000021192   0.0000042692
       -0.0000251313   0.0000093172  -0.0000138683   0.0000107090  -0.0000492232
        0.0000300965   0.0000152713   0.0000542016  -0.0000051192   0.0001117274
       -0.0001773234   0.0000126266  -0.0000495676   0.0003921338   0.0002111845