$hessian                                                                        
        0.6730158783  -0.0276594637   0.0784774699  -0.1126892837   0.0805747671
        0.0585227090  -0.0141783763   0.0261193978   0.0199300320   0.0010173151
       -0.0063923428  -0.0042927352   0.0004666321   0.0000069708   0.0002535781
        0.0009618480  -0.0022436721  -0.0018018919  -0.0006194908   0.0000502899
        0.0000508223   0.0000945991  -0.0000802191  -0.0000717684  -0.0001352117
       -0.0000270411  -0.0000022493   0.0000706367   0.0000239752  -0.0000019840
       -0.0000564360  -0.0000273626   0.0000038285   0.0000417923   0.0000340355
       -0.0000026132  -0.0000181651  -0.0000035827   0.0000024286   0.0000013378
        0.0000200743   0.0000006176  -0.0000134457   0.0000048417  -0.0000041248
        0.0000056816  -0.0000034714   0.0000033522  -0.0000013689   0.0000013856
       -0.0000023715  -0.0000027062  -0.0000016892   0.0000005760  -0.0000041187
        0.0000038654  -0.0000032366  -0.0000074086   0.0000012677  -0.0000011319
       -0.0000027565  -0.0000034101   0.0000032921   0.0000007238  -0.0000013767
        0.0000011236  -0.0000031016   0.0000000222   0.0000020747   0.0000036155
       -0.0000014722  -0.0000017389  -0.0000015422  -0.0000015652  -0.0000030748
       -0.0000046881  -0.0000206727   0.0000013346  -0.0000127828   0.0000198553
        0.0000059338   0.0000235324  -0.0000094013  -0.0000053012  -0.0000844793
        0.0000458429  -0.0000271978   0.0002015318   0.0001102117   0.0000972909
       -0.0042877281   0.0019229331   0.0006673969   0.0003343122   0.0039194907
        0.0023891002  -0.0510041220  -0.0093918275  -0.0177177468  -0.2116626629
       -0.1164599975  -0.1322944360  -0.2867838311   0.0565402792   0.0028836409
        0.0051178811  -0.0142591403  -0.0116925408  -0.0052940586   0.0026398074
       -0.0004011850   0.0002515201  -0.0001532306  -0.0000680239  -0.0000120411
       -0.0000232445   0.0000039216   0.0000042067  -0.0000054395   0.0000101903
       -0.0000034514  -0.0000019339  -0.0000013125  -0.0000019919  -0.0000038923
       -0.0000017010  -0.0000015491   0.0000004772  -0.0000020516  -0.0000020047
       -0.0000017478   0.0000005509  -0.0000005826  -0.0000028057   0.0000009092
        0.0000026057  -0.0000015104  -0.0000005538   0.0000004144   0.0000014109
       -0.0000019393  -0.0000015448   0.0000005925  -0.0000003359  -0.0000014533
       -0.0000013884   0.0000017432   0.0000010126   0.0000013246   0.0000018183
       -0.0000021696   0.0000084433   0.0000009476  -0.0000015999   0.0000150730
        0.0000006430   0.0000202289   0.0000458029  -0.0000035677  -0.0003703602
        0.0000231042   0.0001102933   0.0000742410   0.0002111511   0.0002481588
        0.0055549658   0.0044362079   0.0047310357
       -0.0276594637   0.4139449295   0.2560996642   0.0221344247  -0.1827787325
       -0.1123740078   0.0666195503  -0.0082256943   0.0042802912  -0.0202793265
       -0.0222668089  -0.0181801028   0.0131549101   0.0008410480   0.0033786427
       -0.0017291953  -0.0095882534  -0.0088374738  -0.0003884547  -0.0000595799
       -0.0000118090   0.0001004455  -0.0001605110  -0.0000332967  -0.0000822467
        0.0000091319  -0.0000206468   0.0000715982   0.0000092277  -0.0000069600
       -0.0000562574  -0.0000032483   0.0000167067   0.0000349284   0.0000192410
        0.0000015053  -0.0000251664  -0.0000093910  -0.0000053425   0.0000139119
        0.0000145083  -0.0000010135   0.0000014590  -0.0000014527   0.0000036938
       -0.0000018567  -0.0000023068   0.0000002097   0.0000010134  -0.0000001861
        0.0000003119   0.0000006123  -0.0000003255   0.0000003290   0.0000011248
       -0.0000021223   0.0000013932   0.0000012737  -0.0000007629   0.0000003402
        0.0000013126   0.0000008853  -0.0000007679  -0.0000003602   0.0000017823
       -0.0000014295   0.0000025941  -0.0000013116  -0.0000004340  -0.0000011055
        0.0000045601  -0.0000009318   0.0000085350  -0.0000064592   0.0000002481
       -0.0000100724   0.0000082177   0.0000003209   0.0000146967  -0.0000047503
        0.0000068796  -0.0000090991   0.0000223110  -0.0000024864  -0.0000326089
        0.0000122893  -0.0000491969   0.0000370857   0.0001019704   0.0001389883
       -0.0111582007   0.0083548620   0.0047768335   0.0182327749   0.0069464198
        0.0041938223  -0.0449549231   0.0146391026   0.0034801562  -0.0622855026
       -0.1469204829  -0.1014318069   0.0563735888  -0.0526319886  -0.0056256243
        0.0035709220  -0.0124756766  -0.0112518076   0.0019981220   0.0043128692
       -0.0040134675  -0.0000438686   0.0000530209   0.0001976055  -0.0000126687
        0.0000569378  -0.0000079848  -0.0000037685   0.0000097652   0.0000102573
       -0.0000050682   0.0000040395   0.0000006098  -0.0000013797   0.0000029987
        0.0000005485   0.0000011311  -0.0000002586   0.0000007792  -0.0000005326
        0.0000011551  -0.0000011185  -0.0000003304   0.0000008803  -0.0000011237
       -0.0000011368   0.0000000905  -0.0000001300  -0.0000008634  -0.0000006711
        0.0000009840   0.0000008617  -0.0000000669   0.0000004910   0.0000011525
        0.0000003187  -0.0000001306  -0.0000025384  -0.0000009642   0.0000002259
        0.0000020128  -0.0000026229   0.0000009484   0.0000069004   0.0000023395
       -0.0000026320   0.0000385064   0.0000640712   0.0000191475  -0.0000013683
       -0.0002845348   0.0004535847   0.0002339578  -0.0001357236   0.0001000131
       -0.0139120432  -0.0138740863  -0.0153038064
        0.0784774699   0.2560996642   0.3516192465   0.0076656422  -0.1016148130
       -0.1364098877   0.0551927792  -0.0032345440   0.0083721633  -0.0163782300
       -0.0154972602  -0.0224142521   0.0115528250   0.0008368555   0.0028620317
       -0.0014180964  -0.0090577663  -0.0076254658  -0.0004566962  -0.0000509417
        0.0000341843   0.0001130941  -0.0001610177  -0.0000387302  -0.0000927862
        0.0000059733  -0.0000189239   0.0000791995   0.0000086909  -0.0000063618
       -0.0000621193  -0.0000039528   0.0000162459   0.0000376122   0.0000200670
        0.0000007657  -0.0000283543  -0.0000071250  -0.0000039939   0.0000116607
        0.0000162629  -0.0000006329   0.0000000885  -0.0000001441   0.0000021648
       -0.0000006674  -0.0000010984  -0.0000002835  -0.0000004471  -0.0000011222
        0.0000010335  -0.0000003442   0.0000006874  -0.0000006219   0.0000011282
       -0.0000020659   0.0000013609   0.0000011215  -0.0000003413  -0.0000000021
        0.0000003532   0.0000005888  -0.0000002598  -0.0000012618   0.0000005265
        0.0000000594  -0.0000002115   0.0000000116  -0.0000004773   0.0000011514
        0.0000020859  -0.0000000882   0.0000074763  -0.0000084784  -0.0000001847
       -0.0000086772   0.0000054281   0.0000008634   0.0000103320  -0.0000051662
        0.0000075339  -0.0000047087   0.0000214502  -0.0000026292  -0.0000508398
        0.0000110573  -0.0000528235   0.0000733794   0.0001147519   0.0001378668
       -0.0105157374   0.0073461970   0.0045258789   0.0148051121   0.0015670270
        0.0100367409  -0.0486463539   0.0100935449   0.0008662648  -0.0851445659
       -0.1114057611  -0.1561178652   0.0027456499  -0.0055903713  -0.0386667741
        0.0038370065  -0.0145391596  -0.0107746491  -0.0009674047  -0.0039261605
        0.0058044647   0.0000456415   0.0001910418  -0.0000441741  -0.0000178264
        0.0000448686  -0.0000078101  -0.0000034049   0.0000071480   0.0000099066
       -0.0000046603   0.0000025102  -0.0000002874  -0.0000012637   0.0000016055
       -0.0000000572   0.0000007447  -0.0000004709   0.0000004087  -0.0000004189
        0.0000004160  -0.0000006922  -0.0000002017   0.0000002526  -0.0000008117
       -0.0000006305  -0.0000002671  -0.0000000829  -0.0000002374  -0.0000003525
        0.0000005048   0.0000005853  -0.0000000236   0.0000004214   0.0000005477
        0.0000004482  -0.0000001318  -0.0000018290   0.0000001565   0.0000004068
        0.0000011337  -0.0000000968   0.0000006888   0.0000052307   0.0000059818
       -0.0000029685   0.0000382063   0.0000611341   0.0000153423   0.0000901905
        0.0005155280  -0.0004384508   0.0002400028   0.0000488804   0.0000020289
       -0.0112273904  -0.0119223417  -0.0116882041
       -0.1126892837   0.0221344247   0.0076656422   0.6872225311  -0.0423842531
        0.0686712250  -0.3627089266   0.0953824373   0.0243287361  -0.0658234230
       -0.0279061785  -0.0368311699   0.0177583686  -0.0007659193   0.0016274319
       -0.0040922631  -0.0108346814  -0.0100946625  -0.0000260407  -0.0003169309
       -0.0000625904   0.0001143934  -0.0000306965   0.0000565571  -0.0000198809
        0.0000157459  -0.0000294017   0.0000221149   0.0000107291  -0.0000058624
       -0.0000155322   0.0000327886   0.0000171988   0.0000024639  -0.0000030234
       -0.0000022535  -0.0000097882   0.0000178217  -0.0000003412  -0.0000097754
        0.0000064229   0.0000020833  -0.0000061714   0.0000010642  -0.0000011567
        0.0000066713   0.0000040746  -0.0000006166  -0.0000023512   0.0000013290
       -0.0000011097   0.0000009613  -0.0000016449   0.0000011018  -0.0000021196
        0.0000051954  -0.0000024935  -0.0000027539   0.0000013164  -0.0000003493
       -0.0000011787  -0.0000022781   0.0000019617   0.0000033589  -0.0000021164
        0.0000015300   0.0000002007   0.0000010194   0.0000015614   0.0000024847
       -0.0000048585  -0.0000003747   0.0000010848  -0.0000193045  -0.0000019654
       -0.0000023126  -0.0000060059  -0.0000004658   0.0000175512  -0.0000152154
       -0.0000019737  -0.0000305645   0.0000019735   0.0000051323   0.0000119577
       -0.0000162755  -0.0000304681  -0.0001929413  -0.0000167560   0.0000572117
       -0.0092680308   0.0078292727   0.0048917152   0.0108666254   0.0028745527
        0.0045365530  -0.0308103110   0.0125431557   0.0062423467   0.0488115859
        0.0003068017   0.0090469968  -0.0124217154   0.0221013588   0.0167457036
       -0.1536609296  -0.0838372864  -0.0950707737  -0.0120477456   0.0046387169
        0.0017224974   0.0003480131  -0.0000364291   0.0000213792  -0.0000444396
        0.0000174939  -0.0000072387   0.0000003128  -0.0000048501   0.0000013724
       -0.0000030698  -0.0000076620  -0.0000006529   0.0000002429  -0.0000060363
       -0.0000003624  -0.0000006921  -0.0000004341  -0.0000006480   0.0000012955
       -0.0000016742   0.0000021348   0.0000008618  -0.0000013609   0.0000020558
        0.0000034767  -0.0000002586   0.0000002998   0.0000019008   0.0000014460
       -0.0000017405  -0.0000007125   0.0000005917  -0.0000009445  -0.0000002432
        0.0000001309   0.0000002260   0.0000027485   0.0000051559  -0.0000002561
       -0.0000016197   0.0000087714  -0.0000005573   0.0000019965   0.0000181812
       -0.0000027496   0.0000394551   0.0000935740   0.0000254876   0.0000590974
        0.0000644939   0.0000297981   0.0001622900   0.0000468912   0.0001445272
       -0.0015692287  -0.0019448010  -0.0036972879
        0.0805747671  -0.1827787325  -0.1016148130  -0.0423842531   0.4086516189
        0.2487128042   0.0417022273  -0.0877631975  -0.0310143057   0.0068587279
        0.0204783800   0.0183208530  -0.0146554290   0.0000541287  -0.0076601996
        0.0017537152   0.0083061139   0.0071163107  -0.0002862440  -0.0003466776
        0.0002483349   0.0000245776   0.0000494374  -0.0000304434  -0.0000091060
       -0.0000040041  -0.0000023238   0.0000068245  -0.0000109517   0.0000050696
       -0.0000041164   0.0000143514  -0.0000099026   0.0000006484  -0.0000047515
       -0.0000026817  -0.0000006252   0.0000168953   0.0000063158  -0.0000082690
        0.0000038149   0.0000036604  -0.0000131194   0.0000044108  -0.0000049601
        0.0000065209   0.0000008354   0.0000019005  -0.0000006046   0.0000024017
       -0.0000036548   0.0000002222  -0.0000008574   0.0000009534  -0.0000041448
        0.0000040064  -0.0000034733  -0.0000034070   0.0000009113  -0.0000005919
       -0.0000022853  -0.0000025022   0.0000019349   0.0000012431  -0.0000023556
        0.0000019976  -0.0000022564   0.0000020428   0.0000028334   0.0000055393
       -0.0000052704  -0.0000024197  -0.0000035224  -0.0000066759  -0.0000023254
        0.0000043433  -0.0000177500  -0.0000001488  -0.0000031140   0.0000030989
       -0.0000007494   0.0000123222  -0.0000109359  -0.0000011047  -0.0000427778
       -0.0000136713   0.0000250481  -0.0000136041   0.0000135418  -0.0000586540
        0.0079935361  -0.0057922640  -0.0037820449  -0.0104368038  -0.0028367274
       -0.0042869719   0.0269006712  -0.0099653890   0.0013058349  -0.0402210931
       -0.0328579414  -0.0368683348   0.0042743729  -0.0055462852  -0.0050722066
       -0.0837018949  -0.1051924146  -0.0770900477   0.0230062537  -0.0069540623
       -0.0024844583  -0.0000670742  -0.0002514382  -0.0000755859   0.0000076497
       -0.0000713545  -0.0000038914   0.0000088330  -0.0000164434   0.0000027607
        0.0000040155  -0.0000114682  -0.0000001942   0.0000016308  -0.0000082154
       -0.0000012836  -0.0000011023   0.0000019438  -0.0000026325   0.0000008075
       -0.0000021169   0.0000014429   0.0000002061  -0.0000013392   0.0000008458
        0.0000029044  -0.0000001032  -0.0000003437   0.0000012569   0.0000019456
       -0.0000018279  -0.0000014134   0.0000011660  -0.0000003328  -0.0000018851
       -0.0000004569   0.0000026354   0.0000026117   0.0000052075   0.0000018857
       -0.0000024451   0.0000046503   0.0000006253  -0.0000035487  -0.0000028842
        0.0000020674  -0.0000178125  -0.0000352844  -0.0000010941   0.0000935743
       -0.0000029802   0.0000203886  -0.0000525200   0.0000834796   0.0002085919
       -0.0013055313   0.0028131198  -0.0059110926
        0.0585227090  -0.1123740078  -0.1364098877   0.0686712250   0.2487128042
        0.3437686628  -0.0224717926  -0.0210027011  -0.0658880288  -0.0064469903
        0.0116791554   0.0101286930  -0.0105165371  -0.0049989993  -0.0005673374
        0.0005431027   0.0048436165   0.0045491987   0.0000136240   0.0003187952
       -0.0006079431  -0.0000852557   0.0000858705   0.0000046735  -0.0000033731
        0.0000165169   0.0000321700  -0.0000137792  -0.0000102571   0.0000013812
        0.0000099408   0.0000077764  -0.0000161238  -0.0000056506  -0.0000070034
       -0.0000016298   0.0000067417   0.0000115125   0.0000082777  -0.0000094618
       -0.0000003288   0.0000020077  -0.0000076421   0.0000036302  -0.0000052431
        0.0000046255   0.0000006905   0.0000015247  -0.0000009100   0.0000011900
       -0.0000018777  -0.0000004128   0.0000001418  -0.0000000124  -0.0000025590
        0.0000032132  -0.0000025252  -0.0000032982   0.0000007471  -0.0000002503
       -0.0000019544  -0.0000019376   0.0000018357   0.0000000732  -0.0000018852
        0.0000019341  -0.0000034194   0.0000016551   0.0000019794   0.0000049165
       -0.0000044498  -0.0000009691  -0.0000061586   0.0000006682   0.0000011920
        0.0000077302  -0.0000130837  -0.0000010406  -0.0000060234   0.0000120534
       -0.0000209791   0.0000250582  -0.0000118045   0.0000056083  -0.0000063627
        0.0000255311   0.0001386727   0.0001038495  -0.0000537040  -0.0000629520
        0.0052293818  -0.0039053914  -0.0020421769  -0.0070770016  -0.0018319174
       -0.0030318679   0.0188231725  -0.0013782476  -0.0034517981  -0.0262280271
       -0.0294103774  -0.0294696137   0.0012199069  -0.0017910835  -0.0001623989
       -0.0949446298  -0.0771173240  -0.1191566935   0.0176690857  -0.0058415577
       -0.0010852170   0.0000274749  -0.0000950515  -0.0001921772  -0.0000077540
       -0.0000515524  -0.0000185203   0.0000057943  -0.0000115131  -0.0000028179
        0.0000024728  -0.0000070872  -0.0000002936   0.0000004296  -0.0000054193
       -0.0000011707  -0.0000009810   0.0000012381  -0.0000017644   0.0000003002
       -0.0000014825   0.0000013147   0.0000002945  -0.0000012804   0.0000010547
        0.0000023632  -0.0000002519  -0.0000001608   0.0000010272   0.0000014696
       -0.0000015561  -0.0000011348   0.0000006800  -0.0000004055  -0.0000016371
       -0.0000004002   0.0000014700   0.0000014850   0.0000031149   0.0000013996
       -0.0000018356   0.0000039967  -0.0000004215  -0.0000021535   0.0000010986
        0.0000047144  -0.0000052734  -0.0000153205  -0.0000310287   0.0000801651
       -0.0000037247   0.0000554583   0.0000248032   0.0002488651   0.0000188164
       -0.0031397442  -0.0060368861   0.0035048430
       -0.0141783763   0.0666195503   0.0551927792  -0.3627089266   0.0417022273
       -0.0224717926   0.6798213447  -0.0811247889   0.0338761050  -0.1426247405
       -0.0521946398  -0.0620683520  -0.0619878873  -0.0158491816  -0.0255090717
        0.0008109612   0.0176155433   0.0138224476  -0.0014135129  -0.0005793529
       -0.0008117810  -0.0000655186  -0.0001669867  -0.0001151614   0.0000041643
       -0.0000055926   0.0000559341   0.0000275940  -0.0000581603   0.0000003426
       -0.0000111266  -0.0000235452  -0.0000297653   0.0000109418  -0.0000142439
        0.0000029863  -0.0000108110  -0.0000200305   0.0000033537   0.0000092635
       -0.0000072968  -0.0000041932   0.0000123157  -0.0000043230   0.0000034458
       -0.0000066955  -0.0000061116   0.0000019468   0.0000016735  -0.0000009047
        0.0000031654  -0.0000024283  -0.0000004910   0.0000011765   0.0000041021
       -0.0000043040   0.0000043765   0.0000007239  -0.0000003605   0.0000012715
        0.0000033624   0.0000012504  -0.0000000664  -0.0000010526   0.0000045633
       -0.0000036253   0.0000052437  -0.0000032164  -0.0000013104  -0.0000059433
        0.0000099758  -0.0000000811  -0.0000056370   0.0000041447   0.0000043021
        0.0000066502   0.0000356396  -0.0000025687  -0.0000255682  -0.0000073015
       -0.0000209636   0.0000244760   0.0000825739  -0.0000059882  -0.0001656778
       -0.0000755936   0.0001745783   0.0001030990   0.0003440472  -0.0000192997
        0.0105690390  -0.0099280628  -0.0065567641  -0.0118804690  -0.0003880541
       -0.0037265196   0.0436990737  -0.0200810826  -0.0095707628  -0.0470811098
       -0.0118927487  -0.0183302260   0.0003942456   0.0020335220   0.0007573262
       -0.0235085273   0.0032100420  -0.0016731001  -0.0705024260   0.0623555305
        0.0474030092   0.0008193702  -0.0015095093  -0.0007341155   0.0000170634
       -0.0001586406  -0.0000120508  -0.0000338584   0.0000129863   0.0000036933
       -0.0000032524   0.0000099738  -0.0000004198  -0.0000013954   0.0000083402
        0.0000011176   0.0000028646  -0.0000009134   0.0000022900  -0.0000023600
        0.0000034940  -0.0000016360  -0.0000006760   0.0000020524  -0.0000005409
       -0.0000028127   0.0000002567   0.0000010920  -0.0000020558  -0.0000019145
        0.0000025830   0.0000020677  -0.0000016173   0.0000009542   0.0000032019
       -0.0000006074  -0.0000023207  -0.0000068765  -0.0000052633  -0.0000014860
        0.0000011867  -0.0000060064  -0.0000013090  -0.0000022888  -0.0000069355
        0.0000055177  -0.0000339273  -0.0000325917  -0.0000697418   0.0000767687
       -0.0001553576   0.0001901301   0.0001841541   0.0005546241   0.0005189970
       -0.0003390137  -0.0002946071  -0.0002899082
        0.0261193978  -0.0082256943  -0.0032345440   0.0953824373  -0.0877631975
       -0.0210027011  -0.0811247889   0.4179408512   0.2498362538  -0.0761735658
       -0.1276007092  -0.0803468762  -0.0094555596   0.0033148937   0.0007299132
        0.0042380369   0.0067474428   0.0015925772  -0.0002925924   0.0004269157
        0.0000793024   0.0001355012  -0.0000023711  -0.0000711900  -0.0000445495
        0.0000012039  -0.0000218851   0.0000523122   0.0000008137   0.0000052298
       -0.0000361669   0.0000216247  -0.0000123601   0.0000215772   0.0000135776
       -0.0000030072  -0.0000145495   0.0000263390   0.0000055593  -0.0000031304
        0.0000164337   0.0000055289  -0.0000254499   0.0000068375  -0.0000074176
        0.0000133601   0.0000070674  -0.0000027475  -0.0000020523   0.0000003508
       -0.0000021934   0.0000035305  -0.0000009854   0.0000006523  -0.0000051098
        0.0000069689  -0.0000039381  -0.0000013814   0.0000017997  -0.0000005110
       -0.0000021287  -0.0000023828   0.0000018966   0.0000045589  -0.0000080452
        0.0000060373  -0.0000051317   0.0000046417   0.0000030953   0.0000116703
       -0.0000151399  -0.0000003289   0.0000046981  -0.0000124059  -0.0000057153
        0.0000049399  -0.0000416140  -0.0000032182  -0.0000129470   0.0000112552
       -0.0000071548   0.0000607777  -0.0000434701  -0.0000089334  -0.0000582909
        0.0000532990   0.0000301241   0.0003980105  -0.0000346606  -0.0000205236
        0.0028453569  -0.0026494663  -0.0017538818  -0.0003739609  -0.0012700790
       -0.0065382523  -0.0041475388  -0.0220704325  -0.0210414666  -0.0065917528
       -0.0010167575   0.0009867575   0.0024297705  -0.0007727559  -0.0055349385
       -0.0149307684   0.0031601658  -0.0005595648   0.0612836872  -0.1789652712
       -0.1155176070   0.0013506954  -0.0002929350   0.0017528496  -0.0000230950
       -0.0000086967   0.0000397842   0.0000268564  -0.0000451185   0.0000123433
        0.0000115910  -0.0000253330   0.0000028813   0.0000055186  -0.0000168506
       -0.0000000076  -0.0000029358   0.0000003582  -0.0000016841   0.0000037166
       -0.0000037559   0.0000042534   0.0000017903  -0.0000019647   0.0000034134
        0.0000058838  -0.0000001382   0.0000012249   0.0000046921   0.0000024813
       -0.0000017734  -0.0000009052   0.0000018367  -0.0000006287  -0.0000021399
        0.0000003361   0.0000031608   0.0000129054   0.0000067583   0.0000022213
       -0.0000036706   0.0000109195   0.0000006821  -0.0000127506   0.0000071123
        0.0000031562  -0.0000258458  -0.0000391665   0.0000127838  -0.0000236841
       -0.0005851882   0.0007378406  -0.0007056929  -0.0006857730  -0.0005374094
       -0.0003311373   0.0004080744   0.0003829373
        0.0199300320   0.0042802912   0.0083721633   0.0243287361  -0.0310143057
       -0.0658880288   0.0338761050   0.2498362538   0.3381467573  -0.0828321957
       -0.0760070734  -0.1333135773  -0.0201504644  -0.0005640884  -0.0036309762
        0.0029742152   0.0039068159   0.0098057106  -0.0008164807   0.0000950012
        0.0001744895   0.0002292360   0.0000375461  -0.0001164081  -0.0000787322
       -0.0000342293  -0.0000088033   0.0000693204  -0.0000085367   0.0000051736
       -0.0000615867   0.0000066426  -0.0000149078   0.0000350626   0.0000137464
       -0.0000036389  -0.0000254290   0.0000186436   0.0000070780   0.0000029787
        0.0000171013   0.0000041952  -0.0000220205   0.0000050415  -0.0000061383
        0.0000121081   0.0000077317  -0.0000042821  -0.0000029228  -0.0000000742
       -0.0000012009   0.0000043558  -0.0000004268  -0.0000000236  -0.0000040741
        0.0000062191  -0.0000034987  -0.0000011249   0.0000014038   0.0000000760
       -0.0000015212  -0.0000019945   0.0000019425   0.0000036200  -0.0000060114
        0.0000050465  -0.0000060593   0.0000039491   0.0000028707   0.0000106261
       -0.0000118704  -0.0000001024   0.0000033102  -0.0000125821  -0.0000043883
        0.0000068879  -0.0000287398  -0.0000010747  -0.0000255007   0.0000059005
       -0.0000065130   0.0000668334  -0.0000128065  -0.0000040096  -0.0001672325
        0.0000317742   0.0000364503   0.0003617071   0.0001048493  -0.0000731141
        0.0044710295  -0.0040139373  -0.0027886657  -0.0037287638  -0.0065107813
       -0.0002137834   0.0041461310  -0.0238245702  -0.0187505517  -0.0137433578
       -0.0000019437  -0.0060038783   0.0010718959  -0.0056035186   0.0013984176
       -0.0174656828   0.0027943220  -0.0001612426   0.0465017790  -0.1152994555
       -0.1253093317   0.0016809796   0.0012228362  -0.0005794311  -0.0000282637
       -0.0000839538   0.0000309133   0.0000243407  -0.0000460279   0.0000129598
        0.0000128280  -0.0000226172   0.0000013070   0.0000057194  -0.0000143414
       -0.0000006356  -0.0000025587  -0.0000006761  -0.0000005914   0.0000039956
       -0.0000038383   0.0000042284   0.0000021321  -0.0000022929   0.0000035269
        0.0000051800  -0.0000003133   0.0000013018   0.0000040382   0.0000017961
       -0.0000012024  -0.0000005075   0.0000007872  -0.0000001385  -0.0000017034
       -0.0000004014   0.0000027054   0.0000105385   0.0000050252   0.0000012105
       -0.0000033665   0.0000068821  -0.0000005508  -0.0000124557   0.0000008429
        0.0000013487  -0.0000545975  -0.0000549003  -0.0000001244   0.0002532274
        0.0006946786  -0.0007313407  -0.0005376897  -0.0003098411  -0.0005783918
       -0.0003346575   0.0003900677   0.0001806730
        0.0010173151  -0.0202793265  -0.0163782300  -0.0658234230   0.0068587279
       -0.0064469903  -0.1426247405  -0.0761735658  -0.0828321957   0.6464530866
       -0.0395241126   0.0620969991  -0.2628504565   0.0729322442   0.0218874007
       -0.0519879191  -0.0420298053  -0.0459070771   0.0027966327  -0.0020033350
       -0.0026769205  -0.0002033189   0.0004837540   0.0006968759   0.0004980798
        0.0000657608   0.0000071738  -0.0002578621   0.0000383713  -0.0000148942
        0.0002565445   0.0001090691   0.0000268706  -0.0001510722  -0.0000661293
       -0.0000030032   0.0001032673   0.0000511677   0.0000000641  -0.0000544108
       -0.0000446709   0.0000020513   0.0000083885  -0.0000003475  -0.0000046764
        0.0000081468   0.0000109386  -0.0000033125   0.0000005067   0.0000022346
       -0.0000038670   0.0000012081  -0.0000025315   0.0000010079  -0.0000006007
        0.0000071856  -0.0000051038  -0.0000031023   0.0000025910   0.0000002149
        0.0000001982  -0.0000022628   0.0000034221   0.0000052376  -0.0000051267
        0.0000060613   0.0000029389   0.0000023028   0.0000017358  -0.0000010021
       -0.0000116174   0.0000031938  -0.0000059110  -0.0000026171   0.0000067925
       -0.0000002230  -0.0000214513  -0.0000019978   0.0000490257  -0.0000267466
       -0.0000498738  -0.0001993560  -0.0001146093   0.0000677305   0.0004765138
       -0.0001660643   0.0001482929  -0.0021837363  -0.0007396183  -0.0002848083
       -0.0295001315   0.0249443100   0.0172679104   0.0431586590  -0.0043950357
        0.0040626726  -0.1208511136   0.0416179580   0.0240028588  -0.0005959568
        0.0258305429   0.0219429215   0.0007793076  -0.0004464938  -0.0001545933
       -0.0051004022   0.0021723166  -0.0008614633   0.0056890589   0.0039993581
        0.0043036318  -0.0112509743   0.0057400030   0.0023169132  -0.0001881004
        0.0003458436  -0.0000081987   0.0000374008  -0.0000025360  -0.0000677454
       -0.0000078174  -0.0000012318  -0.0000054579  -0.0000012092  -0.0000047661
       -0.0000018094  -0.0000040525  -0.0000038703  -0.0000016275   0.0000037293
       -0.0000047140   0.0000016635   0.0000022884  -0.0000027445   0.0000022384
        0.0000052642   0.0000004310   0.0000004477   0.0000042146   0.0000032004
       -0.0000009362  -0.0000009586   0.0000030220  -0.0000009713  -0.0000010303
        0.0000011474   0.0000006252   0.0000055948   0.0000020074  -0.0000001664
        0.0000006187   0.0000167439  -0.0000014457   0.0000107844   0.0000479344
       -0.0000029196   0.0000947760   0.0002791851  -0.0000072566  -0.0000508299
        0.0006021680   0.0004164141  -0.0021632565  -0.0022178142  -0.0032932120
       -0.0054058191   0.0021226251  -0.0002534307
       -0.0063923428  -0.0222668089  -0.0154972602  -0.0279061785   0.0204783800
        0.0116791554  -0.0521946398  -0.1276007092  -0.0760070734  -0.0395241126
        0.4155771200   0.2378000294   0.0480193557  -0.0811676927  -0.0178627841
       -0.0086571819   0.0132782579   0.0088761956  -0.0021096819   0.0023113888
       -0.0058762294  -0.0005262381  -0.0001180640   0.0000785807  -0.0000302921
        0.0001761757   0.0002574757   0.0000421572  -0.0000702946  -0.0000399669
       -0.0000144526  -0.0000231051  -0.0000704288   0.0000160849  -0.0000122865
        0.0000074193  -0.0000099032  -0.0000178903   0.0000191676   0.0000130958
       -0.0000076682  -0.0000043674   0.0000074224  -0.0000015204  -0.0000009282
       -0.0000080657  -0.0000058437   0.0000028404  -0.0000004112  -0.0000002439
        0.0000022994  -0.0000024879   0.0000005893  -0.0000004206   0.0000026457
       -0.0000052187   0.0000032246   0.0000000249  -0.0000013061  -0.0000000157
        0.0000010185   0.0000020329  -0.0000016796  -0.0000032187   0.0000046419
       -0.0000039820   0.0000023124  -0.0000017424  -0.0000021503  -0.0000041995
        0.0000101529  -0.0000007797  -0.0000061868   0.0000255735   0.0000155009
        0.0000123116   0.0000259991  -0.0000049897  -0.0000360174   0.0000355861
       -0.0001065857   0.0000971589   0.0000679320   0.0000137638  -0.0001905808
        0.0000814020   0.0007907999   0.0007219370   0.0002437309   0.0000851880
        0.0125290923  -0.0092938908  -0.0014770228  -0.0202334297  -0.0224414743
       -0.0243996506   0.0421324345  -0.1720665805  -0.0915055521   0.0421404328
       -0.0049317562   0.0024837728  -0.0003239137  -0.0003348134  -0.0001355901
        0.0028165993   0.0043430106  -0.0040797935  -0.0124375140  -0.0136195379
       -0.0151974937   0.0217660052  -0.0070532410  -0.0031202478  -0.0000333278
        0.0000516300  -0.0001919965  -0.0000502190   0.0000357011   0.0000030436
       -0.0000033378   0.0000094401   0.0000009615  -0.0000027145   0.0000066987
       -0.0000001869   0.0000016201   0.0000004168   0.0000008278  -0.0000027061
        0.0000024474  -0.0000021594  -0.0000013358   0.0000010823  -0.0000019956
       -0.0000027581  -0.0000006060  -0.0000006984  -0.0000026774  -0.0000017310
        0.0000007739   0.0000008759  -0.0000014106   0.0000004525   0.0000015919
       -0.0000008468  -0.0000014782  -0.0000064505  -0.0000039800   0.0000007773
        0.0000035971  -0.0000039372  -0.0000021117   0.0000091888   0.0000007567
        0.0000236868   0.0000296949  -0.0000114488  -0.0002615001   0.0003824537
        0.0000183944   0.0003545999  -0.0013579890   0.0014237696  -0.0040968658