      -----------------------------------------------------------      
     |                   =====================                   |     
     |                           x T B                           |     
     |                   =====================                   |     
     |                         S. Grimme                         |     
     |          Mulliken Center for Theoretical Chemistry        |     
     |                    University of Bonn                     |     
      -----------------------------------------------------------      

   * xtb version 6.7.1 (edcfbbe) compiled by 'albert@albert-system' on 2024-07-22

   xtb is free software: you can redistribute it and/or modify it under
   the terms of the GNU Lesser General Public License as published by
   the Free Software Foundation, either version 3 of the License, or
   (at your option) any later version.
   
   xtb is distributed in the hope that it will be useful,
   but WITHOUT ANY WARRANTY; without even the implied warranty of
   MERCHANTABILITY or FITNESS FOR A PARTICULAR PURPOSE.  See the
   GNU Lesser General Public License for more details.
   
   Cite this work as:
   * C. Bannwarth, E. Caldeweyher, S. Ehlert, A. Hansen, P. Pracht,
     J. Seibert, S. Spicher, S. Grimme, WIREs Comput. Mol. Sci., 2020, 11,
     e01493. DOI: 10.1002/wcms.1493
   
   for GFN2-xTB:
   * C. Bannwarth, S. Ehlert and S. Grimme., J. Chem. Theory Comput., 2019,
     15, 1652-1671. DOI: 10.1021/acs.jctc.8b01176
   for GFN1-xTB:
   * S. Grimme, C. Bannwarth, P. Shushkov, J. Chem. Theory Comput., 2017,
     13, 1989-2009. DOI: 10.1021/acs.jctc.7b00118
   for GFN0-xTB:
   * P. Pracht, E. Caldeweyher, S. Ehlert, S. Grimme, ChemRxiv, 2019, preprint.
     DOI: 10.26434/chemrxiv.8326202.v1
   for GFN-FF:
   * S. Spicher and S. Grimme, Angew. Chem. Int. Ed., 2020, 59, 15665-15673.
     DOI: 10.1002/anie.202004239
   
   for ALPB and GBSA implicit solvation:
   * S. Ehlert, M. Stahn, S. Spicher, S. Grimme, J. Chem. Theory Comput.,
     2021, 17, 4250-4261. DOI: 10.1021/acs.jctc.1c00471
   
   for ddCOSMO and CPCM-X implicit solvation:
   * M. Stahn, S. Ehlert, S. Grimme, J. Phys. Chem. A,
     2023, XX, XXXX-XXXX. DOI: 10.1021/acs.jpca.3c04382
   
   for DFT-D4:
   * E. Caldeweyher, C. Bannwarth and S. Grimme, J. Chem. Phys., 2017,
     147, 034112. DOI: 10.1063/1.4993215
   * E. Caldeweyher, S. Ehlert, A. Hansen, H. Neugebauer, S. Spicher,
     C. Bannwarth and S. Grimme, J. Chem. Phys., 2019, 150, 154122.
     DOI: 10.1063/1.5090222
   * E. Caldeweyher, J.-M. Mewes, S. Ehlert and S. Grimme, Phys. Chem. Chem. Phys.
     2020, 22, 8499-8512. DOI: 10.1039/D0CP00502A
   
   for sTDA-xTB:
   * S. Grimme and C. Bannwarth, J. Chem. Phys., 2016, 145, 054103.
     DOI: 10.1063/1.4959605
   
   in the mass-spec context:
   * V. Asgeirsson, C. Bauer and S. Grimme, Chem. Sci., 2017, 8, 4879.
     DOI: 10.1039/c7sc00601b
   * J. Koopman and S. Grimme, ACS Omega 2019, 4, 12, 15120-15133.
     DOI: 10.1021/acsomega.9b02011
   
   for metadynamics refer to:
   * S. Grimme, J. Chem. Theory Comput., 2019, 155, 2847-2862
     DOI: 10.1021/acs.jctc.9b00143
   
   for SPH calculations refer to:
   * S. Spicher and S. Grimme, J. Chem. Theory Comput., 2021, 17, 1701-1714
     DOI: 10.1021/acs.jctc.0c01306
   
   for ONIOM refer to:
   * C. Plett, A. Katbashev, S. Ehlert, S. Grimme, M. Bursch,
     Phys. Chem. Chem. Phys., 2023, 25, 17860-17868. DOI: 10.1039/D3CP02178E
   
   for DIPRO refer to:
   * J. Kohn, N. Gildemeister, S. Grimme, D. Fazzi, A. Hansen,
     J. Chem. Phys., 2023, just accepted.
   
   for PTB refer to:
   * S. Grimme, M. Mueller, A. Hansen, J. Chem. Phys., 2023, 158, 124111.
     DOI: 10.1063/5.0137838
   
   with help from (in alphabetical order)
   P. Atkinson, C. Bannwarth, F. Bohle, G. Brandenburg, E. Caldeweyher
   M. Checinski, S. Dohm, S. Ehlert, S. Ehrlich, I. Gerasimov, C. Hölzer
   A. Katbashev, J. Kohn, J. Koopman, C. Lavigne, S. Lehtola, F. März, M. Müller,
   F. Musil, H. Neugebauer, J. Pisarek, C. Plett, P. Pracht, F. Pultar,
   J. Seibert, P. Shushkov, S. Spicher, M. Stahn, M. Steiner, T. Strunk,
   J. Stückrath, T. Rose, and J. Unsleber
   
 * started run on 2025/09/14 at 04:59:54.276     
   ID    Z sym.   atoms
    1    6 C      1-7, 9-20, 22-25, 27-30, 32-49, 51-68
    2    8 O      8
    3    7 N      21, 26, 31, 50
    4    1 H      69-112

           -------------------------------------------------
          |                Calculation Setup                |
           -------------------------------------------------

          program call               : xtb data2507/toluene/V–TPA/V–TPA_toluene_S0_finalOpt.xtbopt.xyz --gfn 2 --uhf 2 --gbsa toluene --ohess vtight --parallel 40 --molden --ceasefiles --namespace data2507/toluene/V–TPA/V–TPA_toluene_T1_preOpt
          calculation namespace      : data2507/toluene/V–TPA/V–TPA_toluene_T1_preOpt
          coordinate file            : data2507/toluene/V–TPA/V–TPA_toluene_S0_finalOpt.xtbopt.xyz
          omp threads                :                    40


           -------------------------------------------------
          |                 G F N 2 - x T B                 |
           -------------------------------------------------

        Reference                      10.1021/acs.jctc.8b01176
      * Hamiltonian:
        H0-scaling (s, p, d)           1.850000    2.230000    2.230000
        zeta-weighting                 0.500000
      * Dispersion:
        s8                             2.700000
        a1                             0.520000
        a2                             5.000000
        s9                             5.000000
      * Repulsion:
        kExp                           1.500000    1.000000
        rExp                           1.000000
      * Coulomb:
        alpha                          2.000000
        third order                    shell-resolved
        anisotropic                    true
        a3                             3.000000
        a5                             4.000000
        cn-shift                       1.200000
        cn-exp                         4.000000
        max-rad                        5.000000

      * Solvation model:               GBSA
        Solvent                        toluene
        Parameter file                 internal GFN2-xTB/GBSA
        Dielectric constant                7.0000E+00
        Reference state                gsolv [1 M gas/solution]
        Free energy shift                  4.5239E-03 Eh       2.8388E+00 kcal/mol
        Temperature                        2.9815E+02 K
        Density                            8.6700E-01 kg/L
        Solvent mass                       9.2140E+01 g/mol
        Interaction kernel             Still
        Born radius scaling (c1)           1.5686E+00
        Born radii integrator          GBOBC
        Born offset                        0.0000E+00 a0       0.0000E+00 AA
        H-bond correction              false
        Ion screening                  false
        Surface tension                    1.0000E-05 Eh       1.5569E+01 dyn/cm
        Grid points                               230 per atom

          ...................................................
          :                      SETUP                      :
          :.................................................:
          :  # basis functions                 316          :
          :  # atomic orbitals                 316          :
          :  # shells                          180          :
          :  # electrons                       322          :
          :  max. iterations                   250          :
          :  Hamiltonian                  GFN2-xTB          :
          :  restarted?                      false          :
          :  GBSA solvation                   true          :
          :  PC potential                    false          :
          :  electronic temp.          300.0000000     K    :
          :  accuracy                    1.0000000          :
          :  -> integral cutoff          0.2500000E+02      :
          :  -> integral neglect         0.1000000E-07      :
          :  -> SCF convergence          0.1000000E-05 Eh   :
          :  -> wf. convergence          0.1000000E-03 e    :
          :  Broyden damping             0.4000000          :
          :  net charge                          0          :
          :  unpaired electrons                  2          :
          ...................................................

 iter      E             dE          RMSdq      gap      omega  full diag
   1   -176.1518466 -0.176152E+03  0.406E+00    0.01       0.0  T
   2   -176.2386174 -0.867708E-01  0.268E+00    0.03       1.0  T
   3   -176.0479150  0.190702E+00  0.159E+00    0.08       1.0  T
   4   -176.3042734 -0.256358E+00  0.650E-01    0.03       1.0  T
   5   -176.3336527 -0.293793E-01  0.453E-01    0.10       1.0  T
   6   -176.3418901 -0.823743E-02  0.357E-01    0.12       1.0  T
   7   -176.3589956 -0.171055E-01  0.210E-01    0.05       1.0  T
   8   -176.3646950 -0.569939E-02  0.136E-01    0.02       1.0  T
   9   -176.3575288  0.716617E-02  0.228E-01    0.01       1.0  T
  10   -176.3671583 -0.962944E-02  0.568E-02    0.01       1.0  T
  11   -176.3673615 -0.203254E-03  0.383E-02    0.01       1.0  T
  12   -176.3673883 -0.268261E-04  0.337E-02    0.01       1.0  T
  13   -176.3675412 -0.152879E-03  0.183E-02    0.00       1.0  T
  14   -176.3676054 -0.641394E-04  0.398E-03    0.00       2.4  T
  15   -176.3676072 -0.182965E-05  0.238E-03    0.00       4.0  T
  16   -176.3676080 -0.815222E-06  0.904E-04    0.00      10.5  T
  17   -176.3676080 -0.263159E-08  0.689E-04    0.00      13.7  T

   *** convergence criteria satisfied after 17 iterations ***

         #    Occupation            Energy/Eh            Energy/eV
      -------------------------------------------------------------
         1        2.0000           -0.7164892             -19.4967
       ...           ...                  ...                  ...
       156        2.0000           -0.3773803             -10.2690
       157        2.0000           -0.3765971             -10.2477
       158        2.0000           -0.3724458             -10.1348
       159        1.9992           -0.3647945              -9.9266
       160        1.9962           -0.3633468              -9.8872
       161        1.0046           -0.3529288              -9.6037
       162        0.4466           -0.2481893              -6.7536 (HOMO)
       163        0.4397           -0.2481627              -6.7528 (LUMO)
       164        0.1061           -0.2463678              -6.7040
       165        0.0069           -0.2436787              -6.6308
       166        0.0003           -0.2407180              -6.5503
       167        0.0002           -0.2404272              -6.5424
       ...           ...                  ...                  ...
       316                          0.7452025              20.2780
      -------------------------------------------------------------
                  HL-Gap            0.0000267 Eh            0.0007 eV
             Fermi-level           -0.3032182 Eh           -8.2510 eV
 
 transition dipole moment (au) for excitation:         161         162
     X       Y       Z   
  -1.2709  -1.5658   0.1006  total (au/Debye):    2.019   5.132
 dE (eV)             :    2.850
 oscillator strength :  0.40259E+00

 SCC (total)                   0 d,  0 h,  0 min,  0.426 sec
 SCC setup                      ...        0 min,  0.004 sec (  0.833%)
 Dispersion                     ...        0 min,  0.007 sec (  1.724%)
 classical contributions        ...        0 min,  0.000 sec (  0.105%)
 integral evaluation            ...        0 min,  0.015 sec (  3.478%)
 iterations                     ...        0 min,  0.342 sec ( 80.326%)
 molecular gradient             ...        0 min,  0.019 sec (  4.542%)
 printout                       ...        0 min,  0.038 sec (  8.970%)

         :::::::::::::::::::::::::::::::::::::::::::::::::::::
         ::                     SUMMARY                     ::
         :::::::::::::::::::::::::::::::::::::::::::::::::::::
         :: total energy            -173.171804866220 Eh    ::
         :: total w/o Gsasa/hb      -173.103195938111 Eh    ::
         :: gradient norm              0.065235749289 Eh/a0 ::
         :: HOMO-LUMO gap              0.000725214773 eV    ::
         ::.................................................::
         :: SCC energy              -176.368746496887 Eh    ::
         :: -> isotropic ES            0.032016490328 Eh    ::
         :: -> anisotropic ES          0.018440293775 Eh    ::
         :: -> anisotropic XC          0.090676641845 Eh    ::
         :: -> dispersion             -0.157141363431 Eh    ::
         :: -> Gsolv                  -0.072746232440 Eh    ::
         ::    -> Gelec               -0.004137304331 Eh    ::
         ::    -> Gsasa               -0.073132807981 Eh    ::
         ::    -> Ghb                  0.000000000000 Eh    ::
         ::    -> Gshift               0.004523879872 Eh    ::
         :: repulsion energy           3.196941630667 Eh    ::
         :: add. restraining           0.000000000000 Eh    ::
         :: total charge               0.000000000000 e     ::
         :::::::::::::::::::::::::::::::::::::::::::::::::::::

      ----------------------------------------------------------- 
     |                   =====================                   |
     |                        A N C O P T                        |
     |                   =====================                   |
     |               Approximate Normal Coordinate               |
     |                Rational Function Optimizer                |
      ----------------------------------------------------------- 

Optimization log is written to '/dev/null'
      ----------------------------------------------------------- 
     |                   =====================                   |
     |                        A N C O P T                        |
     |                   =====================                   |
     |               Approximate Normal Coordinate               |
     |                Rational Function Optimizer                |
      ----------------------------------------------------------- 

          ...................................................
          :                      SETUP                      :
          :.................................................:
          :   optimization level         verytight          :
          :   max. optcycles                  2240          :
          :   ANC micro-cycles                  20          :
          :   degrees of freedom               330          :
          :.................................................:
          :   RF solver                   davidson          :
          :   write xtbopt.log                true          :
          :   linear?                        false          :
          :   energy convergence         0.1000000E-06 Eh   :
          :   grad. convergence          0.2000000E-03 Eh/α :
          :   maxmium RF displ.          1.0000000          :
          :   Hlow (freq-cutoff)         0.1000000E-01      :
          :   Hmax (freq-cutoff)         5.0000000          :
          :   S6 in model hess.         20.0000000          :
          ...................................................

generating ANC from exact Hessian ...
Using Lindh-Hessian (1995)
 Shifting diagonal of input Hessian by   9.966489842699960E-003
 Lowest  eigenvalues of input Hessian
    0.000000    0.000000    0.000000    0.000000    0.000000    0.000000
    0.010000    0.010006    0.010050    0.010075    0.010101    0.010108
    0.010117    0.010197    0.010469    0.010713    0.010850    0.010947
 Highest eigenvalues
    2.188333    2.188677    2.190643    2.218701    2.232655    2.233813
 

........................................................................
.............................. CYCLE    1 ..............................
........................................................................

 iter      E             dE          RMSdq      gap      omega  full diag
   1   -176.3676081 -0.176368E+03  0.248E-04    0.00       0.0  T
   2   -176.3676080  0.960588E-07  0.671E-04    0.00      14.1  T
   3   -176.3676081 -0.988280E-07  0.189E-04    0.00      49.9  T
     SCC iter.                  ...        0 min,  0.055 sec
     gradient                   ...        0 min,  0.019 sec
 * total energy  :  -173.1718049 Eh     change       -0.7947338E-07 Eh
   gradient norm :     0.0652598 Eh/α   predicted     0.0000000E+00 (-100.00%)
   displ. norm   :     0.1398453 α      lambda       -0.3518729E-02
   maximum displ.:     0.0697822 α      in ANC's #99, #26, #20, ...

........................................................................
.............................. CYCLE    2 ..............................
........................................................................

 iter      E             dE          RMSdq      gap      omega  full diag
   1   -176.3489984 -0.176349E+03  0.842E-02    0.00       0.0  T
   2   -176.3133848  0.356136E-01  0.434E-01    0.06       1.0  T
   3   -176.3491653 -0.357805E-01  0.712E-02    0.01       1.0  T
   4   -176.3494363 -0.270950E-03  0.496E-02    0.01       1.0  T
   5   -176.3491343  0.302014E-03  0.598E-02    0.02       1.0  T
   6   -176.3497575 -0.623214E-03  0.235E-02    0.00       1.0  T
   7   -176.3498406 -0.831557E-04  0.109E-02    0.00       1.0  T
   8   -176.3498538 -0.131439E-04  0.662E-03    0.00       1.4  T
   9   -176.3498586 -0.485317E-05  0.448E-03    0.00       2.1  T
  10   -176.3498620 -0.341397E-05  0.146E-03    0.00       6.5  T
  11   -176.3498623 -0.303918E-06  0.532E-04    0.00      17.8  T
  12   -176.3498624 -0.351137E-07  0.193E-04    0.00      48.9  T
     SCC iter.                  ...        0 min,  0.193 sec
     gradient                   ...        0 min,  0.019 sec
 * total energy  :  -173.1742464 Eh     change       -0.2441439E-02 Eh
   gradient norm :     0.0301171 Eh/α   predicted    -0.1793998E-02 ( -26.52%)
   displ. norm   :     0.1926687 α      lambda       -0.1322837E-02
   maximum displ.:     0.1119816 α      in ANC's #20, #26, #23, ...

........................................................................
.............................. CYCLE    3 ..............................
........................................................................

 iter      E             dE          RMSdq      gap      omega  full diag
   1   -176.3438734 -0.176344E+03  0.703E-02    0.00       0.0  T
   2   -176.3175898  0.262836E-01  0.372E-01    0.05       1.0  T
   3   -176.3441391 -0.265493E-01  0.495E-02    0.01       1.0  T
   4   -176.3440500  0.890800E-04  0.458E-02    0.01       1.0  T
   5   -176.3439657  0.843227E-04  0.483E-02    0.02       1.0  T
   6   -176.3443732 -0.407458E-03  0.162E-02    0.00       1.0  T
   7   -176.3444156 -0.423865E-04  0.651E-03    0.00       1.5  T
   8   -176.3444210 -0.540896E-05  0.347E-03    0.00       2.7  T
   9   -176.3444231 -0.213233E-05  0.100E-03    0.00       9.4  T
  10   -176.3444232 -0.620734E-07  0.749E-04    0.00      12.6  T
  11   -176.3444233 -0.103942E-06  0.210E-04    0.00      45.0  T
     SCC iter.                  ...        0 min,  0.184 sec
     gradient                   ...        0 min,  0.022 sec
 * total energy  :  -173.1750374 Eh     change       -0.7910099E-03 Eh
   gradient norm :     0.0059088 Eh/α   predicted    -0.6861846E-03 ( -13.25%)
   displ. norm   :     0.1444477 α      lambda       -0.2522047E-03
   maximum displ.:     0.0946803 α      in ANC's #20, #26, #23, ...

........................................................................
.............................. CYCLE    4 ..............................
........................................................................

 iter      E             dE          RMSdq      gap      omega  full diag
   1   -176.3465437 -0.176347E+03  0.362E-02    0.00       0.0  T
   2   -176.3454329  0.111079E-02  0.794E-02    0.00       1.0  T
   3   -176.3464645 -0.103158E-02  0.302E-02    0.00       1.0  T
   4   -176.3465519 -0.874316E-04  0.122E-02    0.00       1.0  T
   5   -176.3465044  0.475247E-04  0.188E-02    0.01       1.0  T
   6   -176.3465762 -0.718551E-04  0.351E-03    0.00       2.7  T
   7   -176.3465784 -0.216244E-05  0.138E-03    0.00       6.9  T
   8   -176.3465785 -0.101056E-06  0.106E-03    0.00       8.9  T
   9   -176.3465786 -0.955223E-07  0.763E-04    0.00      12.4  T
  10   -176.3465787 -0.888357E-07  0.281E-04    0.00      33.6  T
     SCC iter.                  ...        0 min,  0.174 sec
     gradient                   ...        0 min,  0.019 sec
 * total energy  :  -173.1752280 Eh     change       -0.1906481E-03 Eh
   gradient norm :     0.0060996 Eh/α   predicted    -0.1287367E-03 ( -32.47%)
   displ. norm   :     0.2111372 α      lambda       -0.2435942E-03
   maximum displ.:     0.1447555 α      in ANC's #20, #26, #19, ...

........................................................................
.............................. CYCLE    5 ..............................
........................................................................

 iter      E             dE          RMSdq      gap      omega  full diag
   1   -176.3505039 -0.176351E+03  0.484E-02    0.00       0.0  T
   2   -176.3504478  0.560636E-04  0.341E-02    0.00       1.0  T
   3   -176.3497745  0.673321E-03  0.645E-02    0.01       1.0  T
   4   -176.3504187 -0.644131E-03  0.224E-02    0.00       1.0  T
   5   -176.3504773 -0.586203E-04  0.133E-02    0.01       1.0  T
   6   -176.3504992 -0.219027E-04  0.846E-03    0.00       1.1  T
   7   -176.3505131 -0.139613E-04  0.874E-04    0.00      10.8  T
   8   -176.3505129  0.244046E-06  0.134E-03    0.00       7.0  T
   9   -176.3505132 -0.274838E-06  0.710E-04    0.00      13.3  T
  10   -176.3505132 -0.681839E-07  0.287E-04    0.00      32.9  T
     SCC iter.                  ...        0 min,  0.174 sec
     gradient                   ...        0 min,  0.019 sec
 * total energy  :  -173.1753857 Eh     change       -0.1577032E-03 Eh
   gradient norm :     0.0063026 Eh/α   predicted    -0.1272274E-03 ( -19.32%)
   displ. norm   :     0.1005097 α      lambda       -0.6862694E-04
   maximum displ.:     0.0702944 α      in ANC's #20, #26, #19, ...

........................................................................
.............................. CYCLE    6 ..............................
........................................................................

 iter      E             dE          RMSdq      gap      omega  full diag
   1   -176.3519696 -0.176352E+03  0.229E-02    0.00       0.0  T
   2   -176.3518425  0.127105E-03  0.287E-02    0.00       1.0  T
   3   -176.3517873  0.552523E-04  0.333E-02    0.00       1.0  T
   4   -176.3519307 -0.143380E-03  0.168E-02    0.00       1.0  T
   5   -176.3519607 -0.300657E-04  0.939E-03    0.00       1.0  T
   6   -176.3519759 -0.152019E-04  0.373E-03    0.00       2.5  T
   7   -176.3519783 -0.240264E-05  0.138E-03    0.00       6.8  T
   8   -176.3519786 -0.291620E-06  0.467E-04    0.00      20.2  T
   9   -176.3519786  0.699336E-08  0.461E-04    0.00      20.5  T
     SCC iter.                  ...        0 min,  0.156 sec
     gradient                   ...        0 min,  0.019 sec
 * total energy  :  -173.1754355 Eh     change       -0.4971786E-04 Eh
   gradient norm :     0.0034865 Eh/α   predicted    -0.3466063E-04 ( -30.29%)
   displ. norm   :     0.0819825 α      lambda       -0.3906068E-04
   maximum displ.:     0.0543799 α      in ANC's #20, #7, #19, ...

........................................................................
.............................. CYCLE    7 ..............................
........................................................................

 iter      E             dE          RMSdq      gap      omega  full diag
   1   -176.3520780 -0.176352E+03  0.181E-02    0.00       0.0  T
   2   -176.3519700  0.107970E-03  0.256E-02    0.00       1.0  T
   3   -176.3519901 -0.201289E-04  0.240E-02    0.00       1.0  T
   4   -176.3520607 -0.705872E-04  0.119E-02    0.00       1.0  T
   5   -176.3520751 -0.143879E-04  0.691E-03    0.00       1.4  T
   6   -176.3520835 -0.837765E-05  0.267E-03    0.00       3.5  T
   7   -176.3520848 -0.137819E-05  0.718E-04    0.00      13.2  T
   8   -176.3520849 -0.303448E-07  0.551E-04    0.00      17.2  T
   9   -176.3520849 -0.491949E-07  0.215E-04    0.00      43.9  T
     SCC iter.                  ...        0 min,  0.156 sec
     gradient                   ...        0 min,  0.019 sec
 * total energy  :  -173.1754626 Eh     change       -0.2712552E-04 Eh
   gradient norm :     0.0011376 Eh/α   predicted    -0.1967884E-04 ( -27.45%)
   displ. norm   :     0.0979344 α      lambda       -0.1785801E-04
   maximum displ.:     0.0555747 α      in ANC's #20, #7, #8, ...

........................................................................
.............................. CYCLE    8 ..............................
........................................................................

 iter      E             dE          RMSdq      gap      omega  full diag
   1   -176.3511648 -0.176351E+03  0.179E-02    0.00       0.0  T
   2   -176.3511441  0.207329E-04  0.144E-02    0.00       1.0  T
   3   -176.3508514  0.292650E-03  0.411E-02    0.00       1.0  T
   4   -176.3511461 -0.294707E-03  0.105E-02    0.00       1.0  T
   5   -176.3511610 -0.148531E-04  0.507E-03    0.00       1.9  T
   6   -176.3511653 -0.436028E-05  0.207E-03    0.00       4.6  T
   7   -176.3511662 -0.829570E-06  0.592E-04    0.00      16.0  T
   8   -176.3511662 -0.248866E-07  0.431E-04    0.00      21.9  T
     SCC iter.                  ...        0 min,  0.161 sec
     gradient                   ...        0 min,  0.022 sec
 * total energy  :  -173.1754790 Eh     change       -0.1638946E-04 Eh
   gradient norm :     0.0021424 Eh/α   predicted    -0.8967461E-05 ( -45.29%)
   displ. norm   :     0.0425023 α      lambda       -0.9836187E-05
   maximum displ.:     0.0255792 α      in ANC's #7, #8, #20, ...

........................................................................
.............................. CYCLE    9 ..............................
........................................................................

 iter      E             dE          RMSdq      gap      omega  full diag
   1   -176.3507757 -0.176351E+03  0.598E-03    0.00       0.0  T
   2   -176.3507634  0.123895E-04  0.891E-03    0.00       1.1  T
   3   -176.3507708 -0.740739E-05  0.603E-03    0.00       1.6  T
   4   -176.3507746 -0.379010E-05  0.297E-03    0.00       3.2  T
   5   -176.3507758 -0.119954E-05  0.160E-03    0.00       5.9  T
   6   -176.3507763 -0.533963E-06  0.255E-04    0.00      37.1  T
   7   -176.3507763 -0.832731E-08  0.112E-04    0.00      84.5  T
     SCC iter.                  ...        0 min,  0.118 sec
     gradient                   ...        0 min,  0.019 sec
 * total energy  :  -173.1754878 Eh     change       -0.8842399E-05 Eh
   gradient norm :     0.0017442 Eh/α   predicted    -0.4930968E-05 ( -44.23%)
   displ. norm   :     0.1408038 α      lambda       -0.2085600E-04
   maximum displ.:     0.0843153 α      in ANC's #7, #8, #26, ...

........................................................................
.............................. CYCLE   10 ..............................
........................................................................

 iter      E             dE          RMSdq      gap      omega  full diag
   1   -176.3497821 -0.176350E+03  0.194E-02    0.00       0.0  T
   2   -176.3496829  0.991854E-04  0.255E-02    0.00       1.0  T
   3   -176.3497015 -0.185658E-04  0.229E-02    0.00       1.0  T
   4   -176.3497753 -0.737753E-04  0.755E-03    0.00       1.3  T
   5   -176.3497808 -0.546979E-05  0.525E-03    0.00       1.8  T
   6   -176.3497861 -0.530197E-05  0.162E-03    0.00       5.8  T
   7   -176.3497864 -0.387829E-06  0.541E-04    0.00      17.5  T
   8   -176.3497865 -0.138279E-07  0.435E-04    0.00      21.7  T
     SCC iter.                  ...        0 min,  0.135 sec
     gradient                   ...        0 min,  0.019 sec
 * total energy  :  -173.1755084 Eh     change       -0.2057831E-04 Eh
   gradient norm :     0.0010365 Eh/α   predicted    -0.1052115E-04 ( -48.87%)
   displ. norm   :     0.0913425 α      lambda       -0.8584225E-05
   maximum displ.:     0.0595224 α      in ANC's #7, #8, #4, ...

........................................................................
.............................. CYCLE   11 ..............................
........................................................................

 iter      E             dE          RMSdq      gap      omega  full diag
   1   -176.3496893 -0.176350E+03  0.113E-02    0.00       0.0  T
   2   -176.3496666  0.226999E-04  0.128E-02    0.00       1.0  T
   3   -176.3496484  0.181743E-04  0.155E-02    0.00       1.0  T
   4   -176.3496853 -0.368878E-04  0.501E-03    0.00       1.9  T
   5   -176.3496895 -0.424681E-05  0.196E-03    0.00       4.8  T
   6   -176.3496903 -0.738373E-06  0.456E-04    0.00      20.7  T
   7   -176.3496903 -0.263962E-07  0.278E-04    0.00      34.0  T
     SCC iter.                  ...        0 min,  0.118 sec
     gradient                   ...        0 min,  0.019 sec
 * total energy  :  -173.1755192 Eh     change       -0.1078488E-04 Eh
   gradient norm :     0.0010287 Eh/α   predicted    -0.4308804E-05 ( -60.05%)
   displ. norm   :     0.0979778 α      lambda       -0.1100627E-04
   maximum displ.:     0.0647037 α      in ANC's #7, #8, #4, ...

........................................................................
.............................. CYCLE   12 ..............................
........................................................................

 iter      E             dE          RMSdq      gap      omega  full diag
   1   -176.3499207 -0.176350E+03  0.113E-02    0.00       0.0  T
   2   -176.3499156  0.515024E-05  0.841E-03    0.00       1.1  T
   3   -176.3498270  0.886357E-04  0.222E-02    0.01       1.0  T
   4   -176.3499205 -0.934925E-04  0.186E-03    0.00       5.1  T
   5   -176.3499204  0.730209E-07  0.181E-03    0.00       5.2  T
   6   -176.3499210 -0.632425E-06  0.436E-04    0.00      21.7  T
   7   -176.3499210 -0.354063E-07  0.157E-04    0.00      60.3  T
     SCC iter.                  ...        0 min,  0.120 sec
     gradient                   ...        0 min,  0.019 sec
 * total energy  :  -173.1755332 Eh     change       -0.1402575E-04 Eh
   gradient norm :     0.0010358 Eh/α   predicted    -0.5527335E-05 ( -60.59%)
   displ. norm   :     0.1522781 α      lambda       -0.1694249E-04
   maximum displ.:     0.0986836 α      in ANC's #7, #8, #4, ...

........................................................................
.............................. CYCLE   13 ..............................
........................................................................

 iter      E             dE          RMSdq      gap      omega  full diag
   1   -176.3502453 -0.176350E+03  0.177E-02    0.00       0.0  T
   2   -176.3502430  0.227401E-05  0.111E-02    0.00       1.0  T
   3   -176.3499557  0.287284E-03  0.379E-02    0.00       1.0  T
   4   -176.3502414 -0.285659E-03  0.483E-03    0.00       2.0  T
   5   -176.3502441 -0.270197E-05  0.272E-03    0.00       3.5  T
   6   -176.3502454 -0.135254E-05  0.818E-04    0.00      11.6  T
   7   -176.3502456 -0.120733E-06  0.270E-04    0.00      34.9  T
   8   -176.3502456 -0.250591E-08  0.215E-04    0.00      43.9  T
     SCC iter.                  ...        0 min,  0.135 sec
     gradient                   ...        0 min,  0.019 sec
 * total energy  :  -173.1755543 Eh     change       -0.2109878E-04 Eh
   gradient norm :     0.0012445 Eh/α   predicted    -0.8559616E-05 ( -59.43%)
   displ. norm   :     0.2167969 α      lambda       -0.1976633E-04
   maximum displ.:     0.1396666 α      in ANC's #7, #8, #4, ...

........................................................................
.............................. CYCLE   14 ..............................
........................................................................

 iter      E             dE          RMSdq      gap      omega  full diag
   1   -176.3502988 -0.176350E+03  0.260E-02    0.00       0.0  T
   2   -176.3502876  0.111265E-04  0.173E-02    0.00       1.0  T
   3   -176.3494122  0.875463E-03  0.666E-02    0.01       1.0  T
   4   -176.3502688 -0.856616E-03  0.128E-02    0.00       1.0  T
   5   -176.3502968 -0.280292E-04  0.375E-03    0.00       2.5  T
   6   -176.3502989 -0.205479E-05  0.190E-03    0.00       5.0  T
   7   -176.3502995 -0.596916E-06  0.836E-04    0.00      11.3  T
   8   -176.3502995 -0.721841E-07  0.522E-04    0.00      18.1  T
     SCC iter.                  ...        0 min,  0.138 sec
     gradient                   ...        0 min,  0.021 sec
 * total energy  :  -173.1755794 Eh     change       -0.2508382E-04 Eh
   gradient norm :     0.0012436 Eh/α   predicted    -0.1009012E-04 ( -59.77%)
   displ. norm   :     0.2682396 α      lambda       -0.2018259E-04
   maximum displ.:     0.1728519 α      in ANC's #7, #8, #4, ...

........................................................................
.............................. CYCLE   15 ..............................
........................................................................

 iter      E             dE          RMSdq      gap      omega  full diag
   1   -176.3504312 -0.176350E+03  0.325E-02    0.00       0.0  T
   2   -176.3504172  0.139343E-04  0.212E-02    0.00       1.0  T
   3   -176.3487059  0.171130E-02  0.935E-02    0.00       1.0  T
   4   -176.3504211 -0.171512E-02  0.830E-03    0.00       1.1  T
   5   -176.3504298 -0.869875E-05  0.355E-03    0.00       2.7  T
   6   -176.3504312 -0.141253E-05  0.238E-03    0.00       4.0  T
   7   -176.3504320 -0.819779E-06  0.116E-03    0.00       8.1  T
   8   -176.3504322 -0.194291E-06  0.488E-04    0.00      19.4  T
   9   -176.3504322 -0.166759E-07  0.313E-04    0.00      30.2  T
     SCC iter.                  ...        0 min,  0.155 sec
     gradient                   ...        0 min,  0.019 sec
 * total energy  :  -173.1756044 Eh     change       -0.2497752E-04 Eh
   gradient norm :     0.0009314 Eh/α   predicted    -0.1041835E-04 ( -58.29%)
   displ. norm   :     0.2813865 α      lambda       -0.1636089E-04
   maximum displ.:     0.1817909 α      in ANC's #7, #8, #4, ...

........................................................................
.............................. CYCLE   16 ..............................
........................................................................

 iter      E             dE          RMSdq      gap      omega  full diag
   1   -176.3504891 -0.176350E+03  0.340E-02    0.00       0.0  T
   2   -176.3504519  0.371722E-04  0.246E-02    0.00       1.0  T
   3   -176.3486266  0.182525E-02  0.975E-02    0.00       1.0  T
   4   -176.3504397 -0.181302E-02  0.165E-02    0.00       1.0  T
   5   -176.3504818 -0.421761E-04  0.713E-03    0.00       1.3  T
   6   -176.3504866 -0.476888E-05  0.493E-03    0.00       1.9  T
   7   -176.3504904 -0.377029E-05  0.220E-03    0.00       4.3  T
   8   -176.3504908 -0.413337E-06  0.156E-03    0.00       6.0  T
   9   -176.3504911 -0.312649E-06  0.812E-04    0.00      11.6  T
  10   -176.3504912 -0.108559E-06  0.813E-05    0.00     116.3  T
     SCC iter.                  ...        0 min,  0.169 sec
     gradient                   ...        0 min,  0.019 sec
 * total energy  :  -173.1756234 Eh     change       -0.1902143E-04 Eh
   gradient norm :     0.0006278 Eh/α   predicted    -0.8470966E-05 ( -55.47%)
   displ. norm   :     0.2167416 α      lambda       -0.9396304E-05
   maximum displ.:     0.1408701 α      in ANC's #7, #8, #4, ...

........................................................................
.............................. CYCLE   17 ..............................
........................................................................

 iter      E             dE          RMSdq      gap      omega  full diag
   1   -176.3507038 -0.176351E+03  0.255E-02    0.00       0.0  T
   2   -176.3507032  0.656141E-06  0.152E-02    0.00       1.0  T
   3   -176.3505573  0.145845E-03  0.271E-02    0.00       1.0  T
   4   -176.3507030 -0.145678E-03  0.258E-03    0.00       3.7  T
   5   -176.3507039 -0.936384E-06  0.647E-04    0.00      14.6  T
   6   -176.3507039  0.564515E-08  0.671E-04    0.00      14.1  T
     SCC iter.                  ...        0 min,  0.104 sec
     gradient                   ...        0 min,  0.019 sec
 * total energy  :  -173.1756342 Eh     change       -0.1077471E-04 Eh
   gradient norm :     0.0005457 Eh/α   predicted    -0.4799064E-05 ( -55.46%)
   displ. norm   :     0.1630948 α      lambda       -0.6100663E-05
   maximum displ.:     0.1064375 α      in ANC's #7, #8, #4, ...

........................................................................
.............................. CYCLE   18 ..............................
........................................................................

 iter      E             dE          RMSdq      gap      omega  full diag
   1   -176.3508322 -0.176351E+03  0.191E-02    0.00       0.0  T
   2   -176.3508292  0.296392E-05  0.119E-02    0.00       1.0  T
   3   -176.3506281  0.201072E-03  0.328E-02    0.00       1.0  T
   4   -176.3508320 -0.203910E-03  0.156E-03    0.00       6.1  T
   5   -176.3508323 -0.222045E-06  0.853E-04    0.00      11.1  T
   6   -176.3508323 -0.435233E-07  0.727E-04    0.00      13.0  T
     SCC iter.                  ...        0 min,  0.105 sec
     gradient                   ...        0 min,  0.020 sec
 * total energy  :  -173.1756412 Eh     change       -0.7078091E-05 Eh
   gradient norm :     0.0004599 Eh/α   predicted    -0.3088300E-05 ( -56.37%)
   displ. norm   :     0.1405299 α      lambda       -0.4747435E-05
   maximum displ.:     0.0917425 α      in ANC's #7, #8, #4, ...

........................................................................
.............................. CYCLE   19 ..............................
........................................................................

 iter      E             dE          RMSdq      gap      omega  full diag
   1   -176.3507928 -0.176351E+03  0.166E-02    0.00       0.0  T
   2   -176.3507865  0.625207E-05  0.114E-02    0.00       1.0  T
   3   -176.3505931  0.193399E-03  0.315E-02    0.01       1.0  T
   4   -176.3507910 -0.197846E-03  0.353E-03    0.00       2.7  T
   5   -176.3507916 -0.642104E-06  0.284E-03    0.00       3.3  T
   6   -176.3507933 -0.163872E-05  0.336E-04    0.00      28.1  T
   7   -176.3507932  0.201859E-07  0.443E-04    0.00      21.3  T
   8   -176.3507933 -0.377559E-07  0.104E-04    0.00      90.5  T
     SCC iter.                  ...        0 min,  0.139 sec
     gradient                   ...        0 min,  0.019 sec
 * total energy  :  -173.1756466 Eh     change       -0.5393568E-05 Eh
   gradient norm :     0.0003893 Eh/α   predicted    -0.2396167E-05 ( -55.57%)
   displ. norm   :     0.0913617 α      lambda       -0.2647908E-05
   maximum displ.:     0.0600508 α      in ANC's #7, #4, #8, ...

........................................................................
.............................. CYCLE   20 ..............................
........................................................................

 iter      E             dE          RMSdq      gap      omega  full diag
   1   -176.3507511 -0.176351E+03  0.112E-02    0.00       0.0  T
   2   -176.3507383  0.128454E-04  0.105E-02    0.00       1.0  T
   3   -176.3506934  0.448383E-04  0.176E-02    0.00       1.0  T
   4   -176.3507480 -0.545732E-04  0.445E-03    0.00       2.1  T
   5   -176.3507508 -0.277591E-05  0.230E-03    0.00       4.1  T
   6   -176.3507518 -0.103220E-05  0.354E-04    0.00      26.7  T
   7   -176.3507518 -0.882852E-08  0.292E-04    0.00      32.3  T
   8   -176.3507518 -0.139375E-07  0.123E-04    0.00      77.0  T
     SCC iter.                  ...        0 min,  0.138 sec
     gradient                   ...        0 min,  0.019 sec
 * total energy  :  -173.1756497 Eh     change       -0.3044121E-05 Eh
   gradient norm :     0.0002351 Eh/α   predicted    -0.1329733E-05 ( -56.32%)
   displ. norm   :     0.0523315 α      lambda       -0.1599930E-05
   maximum displ.:     0.0339616 α      in ANC's #7, #4, #18, ...
 * RMSD in coord.:     0.2154815 α      energy gain  -0.3844816E-02 Eh

generating ANC from exact Hessian ...
Using Lindh-Hessian (1995)
 Shifting diagonal of input Hessian by   9.965683070942158E-003
 Lowest  eigenvalues of input Hessian
    0.000000    0.000000    0.000000    0.000000    0.000000    0.000000
    0.010000    0.010004    0.010050    0.010076    0.010097    0.010106
    0.010116    0.010194    0.010466    0.010734    0.010862    0.010960
 Highest eigenvalues
    2.180288    2.180687    2.183210    2.222540    2.237403    2.238619
 

........................................................................
.............................. CYCLE   21 ..............................
........................................................................

 iter      E             dE          RMSdq      gap      omega  full diag
   1   -176.3507249 -0.176351E+03  0.693E-03    0.00       0.0  T
   2   -176.3507220  0.283796E-05  0.566E-03    0.00       1.7  T
   3   -176.3506958  0.262952E-04  0.123E-02    0.00       1.0  T
   4   -176.3507238 -0.280113E-04  0.267E-03    0.00       3.5  T
   5   -176.3507244 -0.608553E-06  0.183E-03    0.00       5.2  T
   6   -176.3507251 -0.705332E-06  0.182E-04    0.00      51.8  T
   7   -176.3507251  0.394189E-08  0.220E-04    0.00      42.9  T
     SCC iter.                  ...        0 min,  0.120 sec
     gradient                   ...        0 min,  0.019 sec
 * total energy  :  -173.1756517 Eh     change       -0.1983122E-05 Eh
   gradient norm :     0.0001836 Eh/α   predicted     0.0000000E+00 (-100.00%)
   displ. norm   :     0.0109142 α      lambda       -0.6016515E-06
   maximum displ.:     0.0069640 α      in ANC's #8, #7, #4, ...

........................................................................
.............................. CYCLE   22 ..............................
........................................................................

 iter      E             dE          RMSdq      gap      omega  full diag
   1   -176.3506301 -0.176351E+03  0.144E-03    0.00       0.0  T
   2   -176.3506293  0.760644E-06  0.215E-03    0.00       4.4  T
   3   -176.3506298 -0.462566E-06  0.147E-03    0.00       6.4  T
   4   -176.3506297  0.633846E-07  0.142E-03    0.00       6.6  T
   5   -176.3506301 -0.397502E-06  0.134E-04    0.00      70.3  T
   6   -176.3506301 -0.286076E-08  0.433E-05    0.00     218.2  T
     SCC iter.                  ...        0 min,  0.104 sec
     gradient                   ...        0 min,  0.019 sec
 * total energy  :  -173.1756525 Eh     change       -0.8605003E-06 Eh
   gradient norm :     0.0001055 Eh/α   predicted    -0.3086328E-06 ( -64.13%)
   displ. norm   :     0.0409576 α      lambda       -0.1681825E-05
   maximum displ.:     0.0233748 α      in ANC's #8, #7, #4, ...

........................................................................
.............................. CYCLE   23 ..............................
........................................................................

 iter      E             dE          RMSdq      gap      omega  full diag
   1   -176.3505936 -0.176351E+03  0.508E-03    0.00       0.0  T
   2   -176.3505887  0.493522E-05  0.593E-03    0.00       1.6  T
   3   -176.3505851  0.360732E-05  0.710E-03    0.00       1.3  T
   4   -176.3505932 -0.807198E-05  0.192E-03    0.00       4.9  T
   5   -176.3505937 -0.570879E-06  0.829E-04    0.00      11.4  T
   6   -176.3505939 -0.133190E-06  0.227E-04    0.00      41.7  T
     SCC iter.                  ...        0 min,  0.103 sec
     gradient                   ...        0 min,  0.019 sec
 * total energy  :  -173.1756549 Eh     change       -0.2388902E-05 Eh
   gradient norm :     0.0002471 Eh/α   predicted    -0.9974261E-06 ( -58.25%)
   displ. norm   :     0.0627398 α      lambda       -0.2325047E-05
   maximum displ.:     0.0362423 α      in ANC's #8, #7, #4, ...

........................................................................
.............................. CYCLE   24 ..............................
........................................................................

 iter      E             dE          RMSdq      gap      omega  full diag
   1   -176.3507296 -0.176351E+03  0.721E-03    0.00       0.0  T
   2   -176.3507291  0.453347E-06  0.454E-03    0.00       2.1  T
   3   -176.3506944  0.347169E-04  0.131E-02    0.00       1.0  T
   4   -176.3507289 -0.345373E-04  0.197E-03    0.00       4.8  T
   5   -176.3507294 -0.458769E-06  0.104E-03    0.00       9.1  T
   6   -176.3507296 -0.215283E-06  0.221E-04    0.00      42.7  T
   7   -176.3507296 -0.817602E-08  0.887E-05    0.00     106.5  T
     SCC iter.                  ...        0 min,  0.120 sec
     gradient                   ...        0 min,  0.019 sec
 * total energy  :  -173.1756573 Eh     change       -0.2373698E-05 Eh
   gradient norm :     0.0003664 Eh/α   predicted    -0.1172157E-05 ( -50.62%)
   displ. norm   :     0.0569705 α      lambda       -0.1822197E-05
   maximum displ.:     0.0334521 α      in ANC's #8, #7, #4, ...

........................................................................
.............................. CYCLE   25 ..............................
........................................................................

 iter      E             dE          RMSdq      gap      omega  full diag
   1   -176.3507066 -0.176351E+03  0.620E-03    0.00       0.0  T
   2   -176.3507064  0.198460E-06  0.381E-03    0.00       2.5  T
   3   -176.3506877  0.186335E-04  0.985E-03    0.00       1.0  T
   4   -176.3507064 -0.186374E-04  0.106E-03    0.00       8.9  T
   5   -176.3507065 -0.967379E-07  0.772E-04    0.00      12.2  T
   6   -176.3507066 -0.120778E-06  0.125E-04    0.00      75.3  T
     SCC iter.                  ...        0 min,  0.104 sec
     gradient                   ...        0 min,  0.019 sec
 * total energy  :  -173.1756594 Eh     change       -0.2074725E-05 Eh
   gradient norm :     0.0002988 Eh/α   predicted    -0.9158470E-06 ( -55.86%)
   displ. norm   :     0.0582193 α      lambda       -0.1813388E-05
   maximum displ.:     0.0345602 α      in ANC's #8, #7, #4, ...

........................................................................
.............................. CYCLE   26 ..............................
........................................................................

 iter      E             dE          RMSdq      gap      omega  full diag
   1   -176.3506618 -0.176351E+03  0.605E-03    0.00       0.0  T
   2   -176.3506614  0.341835E-06  0.379E-03    0.00       2.5  T
   3   -176.3506338  0.275955E-04  0.119E-02    0.00       1.0  T
   4   -176.3506618 -0.279261E-04  0.467E-04    0.00      20.2  T
   5   -176.3506617  0.117717E-07  0.498E-04    0.00      19.0  T
   6   -176.3506618 -0.486577E-07  0.860E-05    0.00     109.8  T
     SCC iter.                  ...        0 min,  0.103 sec
     gradient                   ...        0 min,  0.019 sec
 * total energy  :  -173.1756618 Eh     change       -0.2421728E-05 Eh
   gradient norm :     0.0002289 Eh/α   predicted    -0.9095558E-06 ( -62.44%)
   displ. norm   :     0.0982299 α      lambda       -0.3250083E-05
   maximum displ.:     0.0580237 α      in ANC's #8, #7, #4, ...

........................................................................
.............................. CYCLE   27 ..............................
........................................................................

 iter      E             dE          RMSdq      gap      omega  full diag
   1   -176.3506789 -0.176351E+03  0.105E-02    0.00       0.0  T
   2   -176.3506676  0.112664E-04  0.981E-03    0.00       1.0  T
   3   -176.3506242  0.434310E-04  0.172E-02    0.00       1.0  T
   4   -176.3506770 -0.528771E-04  0.335E-03    0.00       2.8  T
   5   -176.3506791 -0.205395E-05  0.128E-03    0.00       7.4  T
   6   -176.3506794 -0.284587E-06  0.348E-04    0.00      27.2  T
   7   -176.3506794 -0.205056E-07  0.123E-04    0.00      76.5  T
     SCC iter.                  ...        0 min,  0.122 sec
     gradient                   ...        0 min,  0.019 sec
 * total energy  :  -173.1756657 Eh     change       -0.3961589E-05 Eh
   gradient norm :     0.0001642 Eh/α   predicted    -0.1637179E-05 ( -58.67%)
   displ. norm   :     0.1142255 α      lambda       -0.2792819E-05
   maximum displ.:     0.0676609 α      in ANC's #8, #7, #4, ...

........................................................................
.............................. CYCLE   28 ..............................
........................................................................

 iter      E             dE          RMSdq      gap      omega  full diag
   1   -176.3505899 -0.176351E+03  0.121E-02    0.00       0.0  T
   2   -176.3505802  0.973983E-05  0.101E-02    0.00       1.0  T
   3   -176.3504995  0.806551E-04  0.219E-02    0.00       1.0  T
   4   -176.3505894 -0.899434E-04  0.211E-03    0.00       4.5  T
   5   -176.3505899 -0.458968E-06  0.155E-03    0.00       6.1  T
   6   -176.3505903 -0.412676E-06  0.485E-04    0.00      19.5  T
   7   -176.3505904 -0.428557E-07  0.164E-04    0.00      57.7  T
     SCC iter.                  ...        0 min,  0.119 sec
     gradient                   ...        0 min,  0.019 sec
 * total energy  :  -173.1756688 Eh     change       -0.3059551E-05 Eh
   gradient norm :     0.0002209 Eh/α   predicted    -0.1408182E-05 ( -53.97%)
   displ. norm   :     0.0762314 α      lambda       -0.1329905E-05
   maximum displ.:     0.0454388 α      in ANC's #8, #7, #4, ...

........................................................................
.............................. CYCLE   29 ..............................
........................................................................

 iter      E             dE          RMSdq      gap      omega  full diag
   1   -176.3506186 -0.176351E+03  0.783E-03    0.00       0.0  T
   2   -176.3506170  0.161840E-05  0.546E-03    0.00       1.7  T
   3   -176.3505662  0.507414E-04  0.162E-02    0.00       1.0  T
   4   -176.3506183 -0.520801E-04  0.136E-03    0.00       7.0  T
   5   -176.3506186 -0.262993E-06  0.784E-04    0.00      12.1  T
   6   -176.3506187 -0.109065E-06  0.176E-04    0.00      53.6  T
     SCC iter.                  ...        0 min,  0.103 sec
     gradient                   ...        0 min,  0.019 sec
 * total energy  :  -173.1756704 Eh     change       -0.1580009E-05 Eh
   gradient norm :     0.0001904 Eh/α   predicted    -0.6672987E-06 ( -57.77%)
   displ. norm   :     0.0670078 α      lambda       -0.1238834E-05
   maximum displ.:     0.0396095 α      in ANC's #8, #7, #4, ...

........................................................................
.............................. CYCLE   30 ..............................
........................................................................

 iter      E             dE          RMSdq      gap      omega  full diag
   1   -176.3506508 -0.176351E+03  0.668E-03    0.00       0.0  T
   2   -176.3506506  0.226877E-06  0.410E-03    0.00       2.3  T
   3   -176.3506272  0.233622E-04  0.109E-02    0.00       1.0  T
   4   -176.3506507 -0.234792E-04  0.824E-04    0.00      11.5  T
   5   -176.3506507 -0.691920E-07  0.580E-04    0.00      16.3  T
   6   -176.3506508 -0.633565E-07  0.137E-04    0.00      69.2  T
     SCC iter.                  ...        0 min,  0.102 sec
     gradient                   ...        0 min,  0.019 sec
 * total energy  :  -173.1756720 Eh     change       -0.1620178E-05 Eh
   gradient norm :     0.0001340 Eh/α   predicted    -0.6252101E-06 ( -61.41%)
   displ. norm   :     0.0973035 α      lambda       -0.1953125E-05
   maximum displ.:     0.0560866 α      in ANC's #8, #7, #4, ...

........................................................................
.............................. CYCLE   31 ..............................
........................................................................

 iter      E             dE          RMSdq      gap      omega  full diag
   1   -176.3506442 -0.176351E+03  0.937E-03    0.00       0.0  T
   2   -176.3506435  0.621275E-06  0.581E-03    0.00       1.6  T
   3   -176.3505712  0.723493E-04  0.193E-02    0.00       1.0  T
   4   -176.3506438 -0.725886E-04  0.159E-03    0.00       5.9  T
   5   -176.3506441 -0.355065E-06  0.665E-04    0.00      14.2  T
   6   -176.3506442 -0.678316E-07  0.322E-04    0.00      29.3  T
     SCC iter.                  ...        0 min,  0.104 sec
     gradient                   ...        0 min,  0.019 sec
 * total energy  :  -173.1756744 Eh     change       -0.2349493E-05 Eh
   gradient norm :     0.0001777 Eh/α   predicted    -0.9820991E-06 ( -58.20%)
   displ. norm   :     0.1266052 α      lambda       -0.2175578E-05
   maximum displ.:     0.0717360 α      in ANC's #7, #8, #4, ...

........................................................................
.............................. CYCLE   32 ..............................
........................................................................

 iter      E             dE          RMSdq      gap      omega  full diag
   1   -176.3506412 -0.176351E+03  0.118E-02    0.00       0.0  T
   2   -176.3506395  0.174243E-05  0.760E-03    0.00       1.2  T
   3   -176.3505460  0.934913E-04  0.222E-02    0.00       1.0  T
   4   -176.3506406 -0.945872E-04  0.203E-03    0.00       4.7  T
   5   -176.3506412 -0.671757E-06  0.789E-04    0.00      12.0  T
   6   -176.3506413 -0.966209E-07  0.366E-04    0.00      25.8  T
     SCC iter.                  ...        0 min,  0.103 sec
     gradient                   ...        0 min,  0.019 sec
 * total energy  :  -173.1756769 Eh     change       -0.2497521E-05 Eh
   gradient norm :     0.0002523 Eh/α   predicted    -0.1096774E-05 ( -56.09%)
   displ. norm   :     0.1222386 α      lambda       -0.1862562E-05
   maximum displ.:     0.0687141 α      in ANC's #7, #8, #4, ...

........................................................................
.............................. CYCLE   33 ..............................
........................................................................

 iter      E             dE          RMSdq      gap      omega  full diag
   1   -176.3506829 -0.176351E+03  0.111E-02    0.00       0.0  T
   2   -176.3506813  0.157755E-05  0.713E-03    0.00       1.3  T
   3   -176.3505975  0.838470E-04  0.203E-02    0.01       1.0  T
   4   -176.3506827 -0.852432E-04  0.129E-03    0.00       7.3  T
   5   -176.3506829 -0.137165E-06  0.973E-04    0.00       9.7  T
   6   -176.3506831 -0.171475E-06  0.333E-04    0.00      28.4  T
     SCC iter.                  ...        0 min,  0.102 sec
     gradient                   ...        0 min,  0.019 sec
 * total energy  :  -173.1756791 Eh     change       -0.2231666E-05 Eh
   gradient norm :     0.0002458 Eh/α   predicted    -0.9417101E-06 ( -57.80%)
   displ. norm   :     0.1203125 α      lambda       -0.1973781E-05
   maximum displ.:     0.0661604 α      in ANC's #7, #8, #4, ...

........................................................................
.............................. CYCLE   34 ..............................
........................................................................

 iter      E             dE          RMSdq      gap      omega  full diag
   1   -176.3507431 -0.176351E+03  0.110E-02    0.00       0.0  T
   2   -176.3507424  0.723157E-06  0.678E-03    0.00       1.4  T
   3   -176.3506572  0.851960E-04  0.210E-02    0.00       1.0  T
   4   -176.3507422 -0.850129E-04  0.230E-03    0.00       4.1  T
   5   -176.3507428 -0.639951E-06  0.128E-03    0.00       7.4  T
   6   -176.3507432 -0.334881E-06  0.283E-04    0.00      33.3  T
   7   -176.3507432 -0.821657E-08  0.187E-04    0.00      50.6  T
     SCC iter.                  ...        0 min,  0.120 sec
     gradient                   ...        0 min,  0.019 sec
 * total energy  :  -173.1756814 Eh     change       -0.2293013E-05 Eh
   gradient norm :     0.0002430 Eh/α   predicted    -0.9963699E-06 ( -56.55%)
   displ. norm   :     0.1049009 α      lambda       -0.1761653E-05
   maximum displ.:     0.0552345 α      in ANC's #7, #8, #4, ...

........................................................................
.............................. CYCLE   35 ..............................
........................................................................

 iter      E             dE          RMSdq      gap      omega  full diag
   1   -176.3507831 -0.176351E+03  0.102E-02    0.00       0.0  T
   2   -176.3507723  0.107815E-04  0.965E-03    0.00       1.0  T
   3   -176.3507337  0.386456E-04  0.166E-02    0.00       1.0  T
   4   -176.3507823 -0.486700E-04  0.263E-03    0.00       3.6  T
   5   -176.3507830 -0.639776E-06  0.178E-03    0.00       5.3  T
   6   -176.3507836 -0.580147E-06  0.550E-04    0.00      17.2  T
   7   -176.3507836 -0.558469E-07  0.198E-04    0.00      47.8  T
     SCC iter.                  ...        0 min,  0.126 sec
     gradient                   ...        0 min,  0.021 sec
 * total energy  :  -173.1756832 Eh     change       -0.1864617E-05 Eh
   gradient norm :     0.0001397 Eh/α   predicted    -0.8895636E-06 ( -52.29%)
   displ. norm   :     0.0512452 α      lambda       -0.9133075E-06
   maximum displ.:     0.0232303 α      in ANC's #7, #9, #4, ...

........................................................................
.............................. CYCLE   36 ..............................
........................................................................

 iter      E             dE          RMSdq      gap      omega  full diag
   1   -176.3508370 -0.176351E+03  0.594E-03    0.00       0.0  T
   2   -176.3508348  0.221920E-05  0.484E-03    0.00       2.0  T
   3   -176.3508143  0.205326E-04  0.109E-02    0.00       1.0  T
   4   -176.3508364 -0.221759E-04  0.191E-03    0.00       4.9  T
   5   -176.3508370 -0.575328E-06  0.800E-04    0.00      11.8  T
   6   -176.3508372 -0.128137E-06  0.120E-04    0.00      78.4  T
     SCC iter.                  ...        0 min,  0.103 sec
     gradient                   ...        0 min,  0.020 sec
 * total energy  :  -173.1756843 Eh     change       -0.1010027E-05 Eh
   gradient norm :     0.0001126 Eh/α   predicted    -0.4594158E-06 ( -54.51%)
   displ. norm   :     0.0336751 α      lambda       -0.7695805E-06
   maximum displ.:     0.0175768 α      in ANC's #9, #11, #5, ...

........................................................................
.............................. CYCLE   37 ..............................
........................................................................

 iter      E             dE          RMSdq      gap      omega  full diag
   1   -176.3508452 -0.176351E+03  0.496E-03    0.00       0.0  T
   2   -176.3508445  0.601132E-06  0.339E-03    0.00       2.8  T
   3   -176.3508256  0.189530E-04  0.975E-03    0.00       1.0  T
   4   -176.3508449 -0.193313E-04  0.123E-03    0.00       7.7  T
   5   -176.3508451 -0.203126E-06  0.563E-04    0.00      16.8  T
   6   -176.3508452 -0.622132E-07  0.123E-04    0.00      77.1  T
     SCC iter.                  ...        0 min,  0.103 sec
     gradient                   ...        0 min,  0.020 sec
 * total energy  :  -173.1756852 Eh     change       -0.9116293E-06 Eh
   gradient norm :     0.0001538 Eh/α   predicted    -0.3883434E-06 ( -57.40%)
   displ. norm   :     0.0443039 α      lambda       -0.9568874E-06
   maximum displ.:     0.0227543 α      in ANC's #9, #11, #5, ...

........................................................................
.............................. CYCLE   38 ..............................
........................................................................

 iter      E             dE          RMSdq      gap      omega  full diag
   1   -176.3507267 -0.176351E+03  0.642E-03    0.00       0.0  T
   2   -176.3507264  0.327228E-06  0.399E-03    0.00       2.4  T
   3   -176.3507012  0.251961E-04  0.111E-02    0.00       1.0  T
   4   -176.3507266 -0.253729E-04  0.933E-04    0.00      10.1  T
   5   -176.3507267 -0.119177E-06  0.580E-04    0.00      16.3  T
   6   -176.3507268 -0.609521E-07  0.124E-04    0.00      76.2  T
     SCC iter.                  ...        0 min,  0.104 sec
     gradient                   ...        0 min,  0.020 sec
 * total energy  :  -173.1756863 Eh     change       -0.1161871E-05 Eh
   gradient norm :     0.0001854 Eh/α   predicted    -0.4834241E-06 ( -58.39%)
   displ. norm   :     0.0597290 α      lambda       -0.1235292E-05
   maximum displ.:     0.0298273 α      in ANC's #9, #11, #5, ...

........................................................................
.............................. CYCLE   39 ..............................
........................................................................

 iter      E             dE          RMSdq      gap      omega  full diag
   1   -176.3506582 -0.176351E+03  0.842E-03    0.00       0.0  T
   2   -176.3506579  0.322891E-06  0.512E-03    0.00       1.8  T
   3   -176.3506282  0.296805E-04  0.121E-02    0.00       1.0  T
   4   -176.3506581 -0.299380E-04  0.843E-04    0.00      11.2  T
   5   -176.3506580  0.691863E-07  0.951E-04    0.00       9.9  T
   6   -176.3506582 -0.175372E-06  0.182E-04    0.00      51.8  T
     SCC iter.                  ...        0 min,  0.105 sec
     gradient                   ...        0 min,  0.019 sec
 * total energy  :  -173.1756877 Eh     change       -0.1404070E-05 Eh
   gradient norm :     0.0001768 Eh/α   predicted    -0.6193586E-06 ( -55.89%)
   displ. norm   :     0.0587321 α      lambda       -0.1035646E-05
   maximum displ.:     0.0281717 α      in ANC's #9, #5, #11, ...

........................................................................
.............................. CYCLE   40 ..............................
........................................................................

 iter      E             dE          RMSdq      gap      omega  full diag
   1   -176.3506210 -0.176351E+03  0.810E-03    0.00       0.0  T
   2   -176.3506190  0.199673E-05  0.579E-03    0.00       1.6  T
   3   -176.3505638  0.551970E-04  0.169E-02    0.00       1.0  T
   4   -176.3506178 -0.540522E-04  0.414E-03    0.00       2.3  T
   5   -176.3506210 -0.317418E-05  0.728E-04    0.00      13.0  T
   6   -176.3506211 -0.106179E-06  0.141E-04    0.00      67.2  T
   7   -176.3506211 -0.152801E-08  0.795E-05    0.00     118.8  T
     SCC iter.                  ...        0 min,  0.120 sec
     gradient                   ...        0 min,  0.020 sec
 * total energy  :  -173.1756888 Eh     change       -0.1102705E-05 Eh
   gradient norm :     0.0001228 Eh/α   predicted    -0.5214081E-06 ( -52.72%)
   displ. norm   :     0.0357876 α      lambda       -0.5808059E-06
   maximum displ.:     0.0154078 α      in ANC's #9, #5, #2, ...

........................................................................
.............................. CYCLE   41 ..............................
........................................................................

 iter      E             dE          RMSdq      gap      omega  full diag
   1   -176.3506535 -0.176351E+03  0.482E-03    0.00       0.0  T
   2   -176.3506532  0.324529E-06  0.316E-03    0.00       3.0  T
   3   -176.3506391  0.141009E-04  0.835E-03    0.00       1.1  T
   4   -176.3506535 -0.143900E-04  0.616E-04    0.00      15.3  T
   5   -176.3506535 -0.512539E-07  0.333E-04    0.00      28.4  T
   6   -176.3506535 -0.146332E-07  0.191E-04    0.00      49.6  T
     SCC iter.                  ...        0 min,  0.102 sec
     gradient                   ...        0 min,  0.020 sec
 * total energy  :  -173.1756895 Eh     change       -0.6254289E-06 Eh
   gradient norm :     0.0000815 Eh/α   predicted    -0.2931151E-06 ( -53.13%)
   displ. norm   :     0.0273356 α      lambda       -0.4618446E-06
   maximum displ.:     0.0123716 α      in ANC's #5, #2, #9, ...

........................................................................
.............................. CYCLE   42 ..............................
........................................................................

 iter      E             dE          RMSdq      gap      omega  full diag
   1   -176.3507378 -0.176351E+03  0.374E-03    0.00       0.0  T
   2   -176.3507376  0.196212E-06  0.244E-03    0.00       3.9  T
   3   -176.3507291  0.846812E-05  0.646E-03    0.00       1.5  T
   4   -176.3507377 -0.859145E-05  0.731E-04    0.00      12.9  T
   5   -176.3507378 -0.680429E-07  0.393E-04    0.00      24.1  T
   6   -176.3507378 -0.192066E-07  0.205E-04    0.00      46.0  T
     SCC iter.                  ...        0 min,  0.102 sec
     gradient                   ...        0 min,  0.020 sec
 * total energy  :  -173.1756900 Eh     change       -0.5173079E-06 Eh
   gradient norm :     0.0001074 Eh/α   predicted    -0.2328765E-06 ( -54.98%)
   displ. norm   :     0.0319005 α      lambda       -0.4782659E-06
   maximum displ.:     0.0129902 α      in ANC's #7, #2, #5, ...
 * RMSD in coord.:     0.1171253 α      energy gain  -0.4029335E-04 Eh

generating ANC from exact Hessian ...
Using Lindh-Hessian (1995)
 Shifting diagonal of input Hessian by   9.965614963400163E-003
 Lowest  eigenvalues of input Hessian
    0.000000    0.000000    0.000000    0.000000    0.000000    0.000000
    0.010000    0.010004    0.010050    0.010075    0.010098    0.010106
    0.010116    0.010194    0.010471    0.010729    0.010870    0.010958
 Highest eigenvalues
    2.180302    2.180762    2.182940    2.222460    2.237364    2.238615
 

........................................................................
.............................. CYCLE   43 ..............................
........................................................................

 iter      E             dE          RMSdq      gap      omega  full diag
   1   -176.3507811 -0.176351E+03  0.423E-03    0.00       0.0  T
   2   -176.3507806  0.464491E-06  0.292E-03    0.00       3.2  T
   3   -176.3507675  0.131404E-04  0.817E-03    0.00       1.2  T
   4   -176.3507809 -0.134246E-04  0.102E-03    0.00       9.3  T
   5   -176.3507811 -0.159447E-06  0.546E-04    0.00      17.3  T
   6   -176.3507811 -0.551678E-07  0.773E-05    0.00     122.3  T
     SCC iter.                  ...        0 min,  0.104 sec
     gradient                   ...        0 min,  0.020 sec
 * total energy  :  -173.1756906 Eh     change       -0.5830056E-06 Eh
   gradient norm :     0.0001335 Eh/α   predicted     0.0000000E+00 (-100.00%)
   displ. norm   :     0.0058156 α      lambda       -0.2008327E-06
   maximum displ.:     0.0022336 α      in ANC's #5, #2, #12, ...

........................................................................
.............................. CYCLE   44 ..............................
........................................................................

 iter      E             dE          RMSdq      gap      omega  full diag
   1   -176.3507978 -0.176351E+03  0.123E-03    0.00       0.0  T
   2   -176.3507970  0.749580E-06  0.218E-03    0.00       4.3  T
   3   -176.3507977 -0.687108E-06  0.926E-04    0.00      10.2  T
   4   -176.3507975  0.248993E-06  0.129E-03    0.00       7.3  T
   5   -176.3507978 -0.340904E-06  0.231E-04    0.00      40.8  T
     SCC iter.                  ...        0 min,  0.085 sec
     gradient                   ...        0 min,  0.020 sec
 * total energy  :  -173.1756908 Eh     change       -0.2692410E-06 Eh
   gradient norm :     0.0000800 Eh/α   predicted    -0.1069009E-06 ( -60.30%)
   displ. norm   :     0.0259026 α      lambda       -0.5997528E-06
   maximum displ.:     0.0103899 α      in ANC's #5, #2, #12, ...

........................................................................
.............................. CYCLE   45 ..............................
........................................................................

 iter      E             dE          RMSdq      gap      omega  full diag
   1   -176.3507814 -0.176351E+03  0.510E-03    0.00       0.0  T
   2   -176.3507799  0.141982E-05  0.421E-03    0.00       2.2  T
   3   -176.3507634  0.165652E-04  0.986E-03    0.00       1.0  T
   4   -176.3507804 -0.170488E-04  0.221E-03    0.00       4.3  T
   5   -176.3507812 -0.793171E-06  0.107E-03    0.00       8.9  T
   6   -176.3507814 -0.230363E-06  0.225E-04    0.00      42.0  T
   7   -176.3507815 -0.802655E-08  0.656E-05    0.00     144.0  T
     SCC iter.                  ...        0 min,  0.119 sec
     gradient                   ...        0 min,  0.020 sec
 * total energy  :  -173.1756915 Eh     change       -0.6657160E-06 Eh
   gradient norm :     0.0001554 Eh/α   predicted    -0.3641432E-06 ( -45.30%)
   displ. norm   :     0.0256055 α      lambda        0.2950268E-06
   maximum displ.:     0.0102555 α      in ANC's #5, #2, #12, ...

........................................................................
.............................. CYCLE   46 ..............................
........................................................................

 iter      E             dE          RMSdq      gap      omega  full diag
   1   -176.3507564 -0.176351E+03  0.505E-03    0.00       0.0  T
   2   -176.3507550  0.139482E-05  0.418E-03    0.00       2.3  T
   3   -176.3507392  0.158229E-04  0.966E-03    0.00       1.0  T
   4   -176.3507554 -0.161827E-04  0.230E-03    0.00       4.1  T
   5   -176.3507562 -0.869907E-06  0.112E-03    0.00       8.4  T
   6   -176.3507565 -0.253058E-06  0.232E-04    0.00      40.7  T
   7   -176.3507565 -0.790880E-08  0.883E-05    0.00     107.0  T
     SCC iter.                  ...        0 min,  0.120 sec
     gradient                   ...        0 min,  0.020 sec
 * total energy  :  -173.1756913 Eh     change        0.1987171E-06 Eh
   gradient norm :     0.0003309 Eh/α   predicted     0.1475209E-06 ( -25.76%)
   displ. norm   :     0.0107289 α      lambda       -0.5380650E-06
   maximum displ.:     0.0034094 α      in ANC's #32, #29, #26, ...

........................................................................
.............................. CYCLE   47 ..............................
........................................................................

 iter      E             dE          RMSdq      gap      omega  full diag
   1   -176.3507695 -0.176351E+03  0.248E-03    0.00       0.0  T
   2   -176.3507660  0.348511E-05  0.462E-03    0.00       2.0  T
   3   -176.3507691 -0.310206E-05  0.204E-03    0.00       4.6  T
   4   -176.3507692 -0.960711E-07  0.152E-03    0.00       6.2  T
   5   -176.3507695 -0.306192E-06  0.859E-04    0.00      11.0  T
   6   -176.3507697 -0.148722E-06  0.151E-04    0.00      62.7  T
     SCC iter.                  ...        0 min,  0.103 sec
     gradient                   ...        0 min,  0.019 sec
 * total energy  :  -173.1756918 Eh     change       -0.5040001E-06 Eh
   gradient norm :     0.0001358 Eh/α   predicted    -0.2692372E-06 ( -46.58%)
   displ. norm   :     0.0103019 α      lambda        0.1226339E-06
   maximum displ.:     0.0032495 α      in ANC's #32, #29, #26, ...

........................................................................
.............................. CYCLE   48 ..............................
........................................................................

 iter      E             dE          RMSdq      gap      omega  full diag
   1   -176.3507799 -0.176351E+03  0.239E-03    0.00       0.0  T
   2   -176.3507767  0.316966E-05  0.441E-03    0.00       2.1  T
   3   -176.3507795 -0.279914E-05  0.198E-03    0.00       4.8  T
   4   -176.3507795  0.161189E-07  0.164E-03    0.00       5.7  T
   5   -176.3507799 -0.373346E-06  0.913E-04    0.00      10.3  T
   6   -176.3507801 -0.169691E-06  0.123E-04    0.00      76.8  T
     SCC iter.                  ...        0 min,  0.102 sec
     gradient                   ...        0 min,  0.019 sec
 * total energy  :  -173.1756917 Eh     change        0.8972737E-07 Eh
   gradient norm :     0.0002236 Eh/α   predicted     0.6106425E-07 ( -31.94%)
   displ. norm   :     0.0118604 α      lambda       -0.4347570E-06
   maximum displ.:     0.0054660 α      in ANC's #5, #2, #12, ...

........................................................................
.............................. CYCLE   49 ..............................
........................................................................

 iter      E             dE          RMSdq      gap      omega  full diag
   1   -176.3507891 -0.176351E+03  0.252E-03    0.00       0.0  T
   2   -176.3507882  0.895185E-06  0.271E-03    0.00       3.5  T
   3   -176.3507868  0.139564E-05  0.364E-03    0.00       2.6  T
   4   -176.3507890 -0.217487E-05  0.873E-04    0.00      10.8  T
   5   -176.3507891 -0.124629E-06  0.421E-04    0.00      22.5  T
   6   -176.3507892 -0.357808E-07  0.773E-05    0.00     122.2  T
     SCC iter.                  ...        0 min,  0.102 sec
     gradient                   ...        0 min,  0.021 sec
 * total energy  :  -173.1756921 Eh     change       -0.4265150E-06 Eh
   gradient norm :     0.0001033 Eh/α   predicted    -0.2223831E-06 ( -47.86%)
   displ. norm   :     0.0257168 α      lambda       -0.4190758E-06
   maximum displ.:     0.0119132 α      in ANC's #5, #2, #12, ...

........................................................................
.............................. CYCLE   50 ..............................
........................................................................

 iter      E             dE          RMSdq      gap      omega  full diag
   1   -176.3507868 -0.176351E+03  0.498E-03    0.00       0.0  T
   2   -176.3507845  0.230320E-05  0.466E-03    0.00       2.0  T
   3   -176.3507731  0.113812E-04  0.862E-03    0.00       1.1  T
   4   -176.3507865 -0.133978E-04  0.138E-03    0.00       6.8  T
   5   -176.3507868 -0.316703E-06  0.649E-04    0.00      14.6  T
   6   -176.3507869 -0.834043E-07  0.161E-04    0.00      58.8  T
     SCC iter.                  ...        0 min,  0.100 sec
     gradient                   ...        0 min,  0.019 sec
 * total energy  :  -173.1756926 Eh     change       -0.4371067E-06 Eh
   gradient norm :     0.0001697 Eh/α   predicted    -0.2105674E-06 ( -51.83%)
   displ. norm   :     0.0257168 α      lambda        0.0000000E+00
   maximum displ.:     0.0119132 α      in ANC's #5, #2, #12, ...

........................................................................
.............................. CYCLE   51 ..............................
........................................................................

 iter      E             dE          RMSdq      gap      omega  full diag
   1   -176.3507767 -0.176351E+03  0.498E-03    0.00       0.0  T
   2   -176.3507745  0.223632E-05  0.461E-03    0.00       2.0  T
   3   -176.3507626  0.118735E-04  0.872E-03    0.00       1.1  T
   4   -176.3507763 -0.136484E-04  0.166E-03    0.00       5.7  T
   5   -176.3507768 -0.503736E-06  0.592E-04    0.00      16.0  T
   6   -176.3507769 -0.687646E-07  0.157E-04    0.00      60.0  T
     SCC iter.                  ...        0 min,  0.099 sec
     gradient                   ...        0 min,  0.020 sec
 * total energy  :  -173.1756926 Eh     change       -0.5759321E-07 Eh
   gradient norm :     0.0003380 Eh/α   predicted    -0.4992336E-08 ( -91.33%)
   displ. norm   :     0.0225589 α      lambda       -0.5581807E-06
   maximum displ.:     0.0107590 α      in ANC's #5, #2, #12, ...

........................................................................
.............................. CYCLE   52 ..............................
........................................................................

 iter      E             dE          RMSdq      gap      omega  full diag
   1   -176.3507812 -0.176351E+03  0.419E-03    0.00       0.0  T
   2   -176.3507808  0.396352E-06  0.285E-03    0.00       3.3  T
   3   -176.3507670  0.137983E-04  0.877E-03    0.00       1.1  T
   4   -176.3507810 -0.140460E-04  0.912E-04    0.00      10.4  T
   5   -176.3507811 -0.131388E-06  0.457E-04    0.00      20.7  T
   6   -176.3507812 -0.412658E-07  0.931E-05    0.00     101.4  T
     SCC iter.                  ...        0 min,  0.099 sec
     gradient                   ...        0 min,  0.020 sec
 * total energy  :  -173.1756933 Eh     change       -0.6815032E-06 Eh
   gradient norm :     0.0002287 Eh/α   predicted    -0.2814893E-06 ( -58.70%)
   displ. norm   :     0.0426986 α      lambda       -0.8396860E-06
   maximum displ.:     0.0204895 α      in ANC's #5, #2, #12, ...

........................................................................
.............................. CYCLE   53 ..............................
........................................................................

 iter      E             dE          RMSdq      gap      omega  full diag
   1   -176.3508114 -0.176351E+03  0.780E-03    0.00       0.0  T
   2   -176.3508091  0.236159E-05  0.578E-03    0.00       1.6  T
   3   -176.3507667  0.423561E-04  0.155E-02    0.00       1.0  T
   4   -176.3508111 -0.444207E-04  0.149E-03    0.00       6.3  T
   5   -176.3508114 -0.294117E-06  0.820E-04    0.00      11.5  T
   6   -176.3508115 -0.113245E-06  0.331E-04    0.00      28.5  T
     SCC iter.                  ...        0 min,  0.098 sec
     gradient                   ...        0 min,  0.020 sec
 * total energy  :  -173.1756941 Eh     change       -0.7844056E-06 Eh
   gradient norm :     0.0000917 Eh/α   predicted    -0.4217057E-06 ( -46.24%)
   displ. norm   :     0.0384324 α      lambda       -0.3264173E-06
   maximum displ.:     0.0190891 α      in ANC's #5, #2, #12, ...

........................................................................
.............................. CYCLE   54 ..............................
........................................................................

 iter      E             dE          RMSdq      gap      omega  full diag
   1   -176.3507907 -0.176351E+03  0.697E-03    0.00       0.0  T
   2   -176.3507905  0.215425E-06  0.421E-03    0.00       2.2  T
   3   -176.3507672  0.232780E-04  0.111E-02    0.00       1.0  T
   4   -176.3507907 -0.234690E-04  0.469E-04    0.00      20.2  T
   5   -176.3507907 -0.169190E-07  0.355E-04    0.00      26.6  T
   6   -176.3507907 -0.246555E-07  0.896E-05    0.00     105.4  T
     SCC iter.                  ...        0 min,  0.099 sec
     gradient                   ...        0 min,  0.020 sec
 * total energy  :  -173.1756945 Eh     change       -0.4336002E-06 Eh
   gradient norm :     0.0001261 Eh/α   predicted    -0.1737381E-06 ( -59.93%)
   displ. norm   :     0.0370897 α      lambda       -0.3635880E-06
   maximum displ.:     0.0188825 α      in ANC's #5, #2, #12, ...

........................................................................
.............................. CYCLE   55 ..............................
[...]
eigval :     1399.96  1403.18  1412.37  1412.80  1414.51  1415.59
eigval :     1416.28  1419.31  1437.11  1439.82  1440.30  1449.04
eigval :     1449.12  1449.80  1452.05  1464.13  1464.41  1467.11
eigval :     1475.54  1477.14  1479.59  1484.32  1489.32  1491.47
eigval :     1529.89  1530.56  1534.39  1537.84  1541.67  1541.88
eigval :     1545.87  1549.79  1573.49  1574.56  1574.67  1576.33
eigval :     1577.05  1577.19  1596.50  1639.69  2881.75  2920.00
eigval :     3034.98  3059.48  3062.63  3069.80  3070.66  3070.89
eigval :     3070.95  3072.85  3076.61  3077.45  3077.49  3078.14
eigval :     3078.66  3081.13  3083.22  3083.95  3084.45  3084.97
eigval :     3085.23  3085.44  3085.57  3085.92  3087.14  3087.26
eigval :     3088.71  3092.07  3092.16  3092.39  3092.60  3093.33
eigval :     3093.93  3098.57  3098.96  3099.62  3099.97  3101.00
eigval :     3101.22  3101.60  3103.56  3105.63  3112.20  3124.95
 reduced masses (amu)
   1: 11.53   2: 11.54   3: 11.62   4: 11.58   5: 11.46   6: 11.55   7: 11.03   8: 11.03
   9: 11.15  10: 11.22  11: 10.98  12: 11.12  13: 10.69  14: 10.30  15: 10.61  16: 11.21
  17: 10.89  18: 10.93  19:  9.57  20: 11.02  21: 10.56  22: 11.19  23: 10.52  24: 10.16
  25: 10.44  26: 10.62  27: 10.56  28: 10.47  29: 10.82  30: 10.38  31:  9.73  32:  9.95
  33:  9.90  34: 10.14  35: 10.98  36: 11.13  37: 11.28  38: 11.02  39: 11.07  40: 11.17
  41: 10.13  42: 10.78  43: 11.05  44: 10.87  45: 11.22  46: 10.38  47: 10.39  48: 10.28
  49: 10.30  50: 10.88  51: 10.90  52: 10.85  53: 11.05  54: 10.06  55: 10.51  56:  9.62
  57: 11.65  58:  8.94  59: 10.20  60: 10.28  61:  9.62  62:  9.77  63: 10.49  64: 10.46
  65: 10.38  66:  9.97  67: 10.51  68: 10.42  69: 10.57  70: 10.33  71:  9.55  72:  9.91
  73:  9.76  74: 10.52  75: 10.72  76: 10.60  77: 10.88  78:  9.93  79:  9.82  80: 10.11
  81: 11.03  82: 10.98  83: 10.97  84: 11.22  85: 10.98  86: 10.08  87: 10.07  88: 10.39
  89: 11.07  90: 10.94  91: 11.11  92: 11.40  93: 11.33  94: 11.28  95: 11.70  96: 11.39
  97: 11.37  98: 11.37  99: 11.45 100: 11.05 101:  8.95 102: 10.93 103: 11.42 104: 11.42
 105: 11.33 106: 11.48 107: 11.47 108: 11.47 109: 11.42 110: 11.51 111: 11.56 112: 11.55
 113: 10.80 114:  9.29 115: 11.41 116: 11.54 117: 11.80 118: 11.27 119: 11.04 120: 10.26
 121: 10.85 122: 10.87 123: 10.99 124:  3.49 125:  3.46 126:  3.63 127:  3.78 128:  3.77
 129:  3.41 130:  6.61 131:  5.94 132:  4.62 133:  4.72 134:  8.95 135:  3.59 136:  3.63
 137:  4.38 138:  9.13 139:  3.75 140:  3.60 141:  3.69 142:  3.63 143:  3.58 144:  3.44
 145:  3.44 146:  3.48 147: 11.14 148: 10.98 149:  4.59 150:  6.29 151: 10.45 152:  9.64
 153:  4.03 154:  4.24 155:  3.88 156:  3.35 157:  2.87 158:  9.33 159:  3.30 160:  3.11
 161:  5.10 162:  3.31 163:  3.11 164:  2.77 165:  2.63 166:  4.40 167:  8.81 168:  5.12
 169:  7.81 170:  4.27 171:  5.28 172:  3.99 173:  9.79 174:  7.90 175:  8.66 176:  2.07
 177:  8.04 178:  8.38 179:  9.36 180: 10.98 181: 10.97 182:  9.95 183:  6.40 184:  7.12
 185:  6.15 186:  5.87 187:  6.41 188:  6.48 189: 10.56 190:  7.94 191:  7.89 192:  5.76
 193:  6.77 194:  3.22 195:  3.14 196:  3.30 197:  5.17 198:  4.43 199:  4.28 200:  4.14
 201:  3.88 202:  5.09 203:  3.09 204:  2.33 205:  2.29 206:  2.24 207:  2.15 208:  3.51
 209:  3.73 210:  3.39 211:  4.47 212:  4.85 213:  5.11 214:  4.58 215:  5.31 216:  6.16
 217:  6.20 218:  5.51 219:  6.04 220:  5.63 221:  5.57 222:  5.58 223:  5.91 224:  6.62
 225:  7.82 226:  5.47 227:  8.27 228:  7.87 229:  8.05 230:  7.59 231:  8.29 232:  8.98
 233:  8.29 234:  7.78 235:  7.82 236: 10.44 237:  3.59 238: 10.41 239: 10.46 240:  9.65
 241:  9.66 242:  9.99 243: 11.48 244: 11.33 245: 11.51 246: 10.73 247: 10.29 248: 10.19
 249: 10.64 250: 10.25 251: 10.89 252: 10.18 253:  7.19 254:  7.55 255:  8.81 256:  8.80
 257:  9.43 258:  7.75 259:  9.64 260:  9.80 261: 10.85 262: 10.51 263: 10.61 264:  7.78
 265:  6.28 266:  8.99 267: 10.56 268: 10.20 269: 10.24 270: 10.16 271:  9.52 272: 10.75
 273: 10.64 274: 10.66 275: 11.04 276: 10.79 277: 11.42 278: 11.43 279: 11.32 280: 11.25
 281: 11.42 282: 11.43 283: 11.45 284: 11.25 285: 11.65 286: 11.50 287: 11.51 288: 11.57
 289: 11.65 290: 11.65 291: 11.59 292: 11.04 293:  1.83 294:  1.59 295:  1.80 296:  1.80
 297:  1.78 298:  1.76 299:  1.75 300:  1.75 301:  1.75 302:  1.76 303:  1.87 304:  1.80
 305:  1.80 306:  1.80 307:  1.80 308:  1.82 309:  1.78 310:  1.80 311:  1.82 312:  1.84
 313:  1.80 314:  1.82 315:  1.84 316:  1.85 317:  1.79 318:  1.79 319:  1.78 320:  1.87
 321:  1.84 322:  1.90 323:  1.89 324:  1.90 325:  1.90 326:  1.87 327:  1.87 328:  1.87
 329:  1.87 330:  1.87 331:  1.87 332:  1.87 333:  1.85 334:  1.52 335:  1.85 336:  2.09
 IR intensities (km·mol⁻¹)
   1:  0.64   2:  3.25   3:  7.09   4:  7.46   5:  2.46   6:  0.30   7:  0.43   8: 36.16
   9:  2.78  10:  0.89  11: 10.24  12:  2.08  13:  5.62  14:  0.76  15: 14.76  16: 18.12
  17: 15.14  18: 11.51  19: 10.74  20:  3.44  21: 14.36  22:  1.99  23:  9.03  24:  3.63
  25: 11.90  26: 79.04  27:  0.28  28:  2.16  29: 19.25  30:  3.16  31: 14.03  32: 24.16
  33: 20.07  34:  4.72  35:  1.43  36:  3.01  37: 14.72  38: 11.34  39:  8.38  40:  8.05
  41: 20.81  42: 17.46  43:  6.03  44:  3.93  45: 22.68  46: 22.18  47: 29.28  48:111.74
  49:  5.67  50: 24.61  51:  2.09  52:  3.34  53: 48.52  54:  3.88  55:  4.98  56:  0.97
  57: 10.69  58:  4.20  59:  0.32  60: 15.99  61: 14.66  62:  3.85  63: 16.61  64:117.30
  65:  9.64  66: 12.25  67: 24.71  68: 38.23  69: 10.39  70: 46.24  71: 66.42  72: 13.24
  73:  2.69  74: 28.39  75: 11.85  76:  7.10  77: 21.65  78:  3.14  79: 17.23  80: 15.15
  81:  6.45  82: 11.25  83:  1.76  84: 36.46  85: 17.55  86:  0.35  87:  4.89  88: 42.35
  89:  2.68  90: 16.71  91: 26.50  92: 17.91  93:  1.60  94:  1.75  95: 15.30  96: 33.71
  97: 18.24  98: 13.15  99: 41.61 100: 26.29 101: 21.22 102:  4.46 103: 25.07 104: 45.74
 105: 62.31 106: 12.45 107: 15.88 108: 18.17 109: 77.09 110: 54.64 111:  0.87 112:  0.45
 113: 89.89 114:  7.05 115:  4.57 116: 42.04 117:  1.24 118:190.15 119:  4.63 120: 60.56
 121: 40.62 122: 58.86 123:  5.47 124: 48.00 125: 78.41 126: 42.68 127: 11.75 128: 48.38
 129:267.04 130: 19.57 131: 44.49 132: 50.06 133: 28.07 134:126.07 135: 11.27 136:  1.23
 137:  4.76 138: 91.03 139:  8.49 140: 14.56 141: 24.11 142: 70.96 143: 12.81 144:  0.74
 145: 36.22 146: 19.37 147:299.38 148: 90.25 149: 38.99 150:  6.86 151: 26.92 152: 36.99
 153:181.40 154:  2.00 155:118.06 156: 32.29 157:  3.16 158: 26.95 159: 30.98 160:  5.76
 161: 35.20 162: 35.84 163: 37.98 164: 14.47 165: 13.54 166: 18.27 167:277.92 168: 29.76
 169:121.45 170:  6.68 171: 13.52 172:  1.88 173: 59.35 174:113.86 175: 61.08 176: 10.48
 177: 85.31 178:197.84 179: 70.49 180: 27.89 181:  0.12 182:108.30 183: 15.08 184:123.95
 185:173.08 186: 15.79 187:181.79 188:  1.37 189:125.50 190: 21.35 191: 25.80 192:877.50
 193: 26.24 194:139.39 195:354.36 196: 51.25 197:****** 198:193.95 199:770.28 200: 30.44
 201:223.20 202:448.96 203:864.39 204:400.92 205: 56.43 206: 16.90 207:349.91 208:******
 209:****** 210: 18.10 211:394.85 212:699.39 213: 24.08 214: 29.55 215: 93.82 216: 24.50
 217: 85.78 218:714.38 219:775.97 220: 26.09 221:405.78 222:155.52 223:  6.14 224:******
 225:133.23 226:****** 227:472.61 228:655.15 229: 16.54 230:166.20 231:169.54 232:453.62
 233: 69.42 234:954.26 235:585.24 236:  8.82 237:148.94 238:  2.65 239: 16.91 240: 68.03
 241:122.22 242:117.21 243: 44.71 244: 21.28 245: 22.05 246: 94.62 247:  9.21 248: 18.76
 249:731.83 250:348.85 251: 81.87 252: 38.03 253:****** 254:****** 255: 28.41 256:  2.07
 257:****** 258:876.69 259:495.35 260: 28.03 261: 17.92 262:825.55 263:253.79 264:622.74
 265:902.18 266:773.97 267: 29.44 268:465.11 269: 32.23 270:139.67 271:****** 272:******
 273:222.51 274: 23.15 275: 78.99 276:359.93 277:****** 278:****** 279:****** 280:******
 281: 25.73 282:  9.29 283:****** 284:****** 285: 61.56 286: 15.88 287:  4.15 288:398.94
 289: 15.92 290: 16.16 291: 91.77 292:****** 293: 57.11 294:175.81 295: 95.93 296:340.94
 297:121.81 298:334.02 299:  1.72 300:303.36 301:316.79 302: 93.99 303:213.64 304: 75.71
 305:202.28 306:101.69 307:459.76 308:292.42 309:218.17 310: 12.34 311: 13.55 312: 16.08
 313:367.22 314: 58.78 315:815.58 316:****** 317: 38.74 318:104.56 319: 56.47 320:116.09
 321:191.91 322:616.62 323:307.61 324:257.03 325:668.48 326:106.65 327:165.38 328:115.98
 329: 74.11 330:384.99 331:274.36 332:221.92 333:  0.57 334:****** 335:216.67 336: 91.22
 Raman intensities (Ä⁴*amu⁻¹)
   1:  0.00   2:  0.00   3:  0.00   4:  0.00   5:  0.00   6:  0.00   7:  0.00   8:  0.00
   9:  0.00  10:  0.00  11:  0.00  12:  0.00  13:  0.00  14:  0.00  15:  0.00  16:  0.00
  17:  0.00  18:  0.00  19:  0.00  20:  0.00  21:  0.00  22:  0.00  23:  0.00  24:  0.00
  25:  0.00  26:  0.00  27:  0.00  28:  0.00  29:  0.00  30:  0.00  31:  0.00  32:  0.00
  33:  0.00  34:  0.00  35:  0.00  36:  0.00  37:  0.00  38:  0.00  39:  0.00  40:  0.00
  41:  0.00  42:  0.00  43:  0.00  44:  0.00  45:  0.00  46:  0.00  47:  0.00  48:  0.00
  49:  0.00  50:  0.00  51:  0.00  52:  0.00  53:  0.00  54:  0.00  55:  0.00  56:  0.00
  57:  0.00  58:  0.00  59:  0.00  60:  0.00  61:  0.00  62:  0.00  63:  0.00  64:  0.00
  65:  0.00  66:  0.00  67:  0.00  68:  0.00  69:  0.00  70:  0.00  71:  0.00  72:  0.00
  73:  0.00  74:  0.00  75:  0.00  76:  0.00  77:  0.00  78:  0.00  79:  0.00  80:  0.00
  81:  0.00  82:  0.00  83:  0.00  84:  0.00  85:  0.00  86:  0.00  87:  0.00  88:  0.00
  89:  0.00  90:  0.00  91:  0.00  92:  0.00  93:  0.00  94:  0.00  95:  0.00  96:  0.00
  97:  0.00  98:  0.00  99:  0.00 100:  0.00 101:  0.00 102:  0.00 103:  0.00 104:  0.00
 105:  0.00 106:  0.00 107:  0.00 108:  0.00 109:  0.00 110:  0.00 111:  0.00 112:  0.00
 113:  0.00 114:  0.00 115:  0.00 116:  0.00 117:  0.00 118:  0.00 119:  0.00 120:  0.00
 121:  0.00 122:  0.00 123:  0.00 124:  0.00 125:  0.00 126:  0.00 127:  0.00 128:  0.00
 129:  0.00 130:  0.00 131:  0.00 132:  0.00 133:  0.00 134:  0.00 135:  0.00 136:  0.00
 137:  0.00 138:  0.00 139:  0.00 140:  0.00 141:  0.00 142:  0.00 143:  0.00 144:  0.00
 145:  0.00 146:  0.00 147:  0.00 148:  0.00 149:  0.00 150:  0.00 151:  0.00 152:  0.00
 153:  0.00 154:  0.00 155:  0.00 156:  0.00 157:  0.00 158:  0.00 159:  0.00 160:  0.00
 161:  0.00 162:  0.00 163:  0.00 164:  0.00 165:  0.00 166:  0.00 167:  0.00 168:  0.00
 169:  0.00 170:  0.00 171:  0.00 172:  0.00 173:  0.00 174:  0.00 175:  0.00 176:  0.00
 177:  0.00 178:  0.00 179:  0.00 180:  0.00 181:  0.00 182:  0.00 183:  0.00 184:  0.00
 185:  0.00 186:  0.00 187:  0.00 188:  0.00 189:  0.00 190:  0.00 191:  0.00 192:  0.00
 193:  0.00 194:  0.00 195:  0.00 196:  0.00 197:  0.00 198:  0.00 199:  0.00 200:  0.00
 201:  0.00 202:  0.00 203:  0.00 204:  0.00 205:  0.00 206:  0.00 207:  0.00 208:  0.00
 209:  0.00 210:  0.00 211:  0.00 212:  0.00 213:  0.00 214:  0.00 215:  0.00 216:  0.00
 217:  0.00 218:  0.00 219:  0.00 220:  0.00 221:  0.00 222:  0.00 223:  0.00 224:  0.00
 225:  0.00 226:  0.00 227:  0.00 228:  0.00 229:  0.00 230:  0.00 231:  0.00 232:  0.00
 233:  0.00 234:  0.00 235:  0.00 236:  0.00 237:  0.00 238:  0.00 239:  0.00 240:  0.00
 241:  0.00 242:  0.00 243:  0.00 244:  0.00 245:  0.00 246:  0.00 247:  0.00 248:  0.00
 249:  0.00 250:  0.00 251:  0.00 252:  0.00 253:  0.00 254:  0.00 255:  0.00 256:  0.00
 257:  0.00 258:  0.00 259:  0.00 260:  0.00 261:  0.00 262:  0.00 263:  0.00 264:  0.00
 265:  0.00 266:  0.00 267:  0.00 268:  0.00 269:  0.00 270:  0.00 271:  0.00 272:  0.00
 273:  0.00 274:  0.00 275:  0.00 276:  0.00 277:  0.00 278:  0.00 279:  0.00 280:  0.00
 281:  0.00 282:  0.00 283:  0.00 284:  0.00 285:  0.00 286:  0.00 287:  0.00 288:  0.00
 289:  0.00 290:  0.00 291:  0.00 292:  0.00 293:  0.00 294:  0.00 295:  0.00 296:  0.00
 297:  0.00 298:  0.00 299:  0.00 300:  0.00 301:  0.00 302:  0.00 303:  0.00 304:  0.00
 305:  0.00 306:  0.00 307:  0.00 308:  0.00 309:  0.00 310:  0.00 311:  0.00 312:  0.00
 313:  0.00 314:  0.00 315:  0.00 316:  0.00 317:  0.00 318:  0.00 319:  0.00 320:  0.00
 321:  0.00 322:  0.00 323:  0.00 324:  0.00 325:  0.00 326:  0.00 327:  0.00 328:  0.00
 329:  0.00 330:  0.00 331:  0.00 332:  0.00 333:  0.00 334:  0.00 335:  0.00 336:  0.00
 output can be read by thermo (or use thermo option).
 writing <g98.out> molden fake output.
 recommended (thermochemical) frequency scaling factor: 1.0
           -------------------------------------------------
          |             Thermodynamic Functions             |
           -------------------------------------------------

Refinement of some symmetry elements was terminated before convergence was reached.
Some symmetry elements may remain unidentified.
Molecule has no symmetry elements
It seems to be the C1 point group
c1  symmetry found (for desy threshold:  0.10E+00) used in thermo

          ...................................................
          :                      SETUP                      :
          :.................................................:
          :  # frequencies                         330      :
          :  # imaginary freq.                       0      :
          :  linear?                             false      :
          :  only rotor calc.                    false      :
          :  symmetry                               c1      :
          :  rotational number                       1      :
          :  scaling factor                  1.0000000      :
          :  rotor cutoff                   50.0000000 cm⁻¹ :
          :  imag. cutoff                  -20.0000000 cm⁻¹ :
          :.................................................:

    mode    ω/cm⁻¹     T·S(HO)/kcal·mol⁻¹    T·S(FR)/kcal·mol⁻¹   T·S(vib)
   ------------------------------------------------------------------------
       1      3.03    -3.09541 (  0.00%)    -1.88677 (100.00%)    -1.88678
       2      5.51    -2.74125 (  0.01%)    -1.70970 ( 99.99%)    -1.70986
       3      7.67    -2.54574 (  0.06%)    -1.61195 ( 99.94%)    -1.61247
       4     10.25    -2.37401 (  0.18%)    -1.52608 ( 99.82%)    -1.52757
       5     12.43    -2.25967 (  0.38%)    -1.46889 ( 99.62%)    -1.47190
       6     14.56    -2.16580 (  0.71%)    -1.42195 ( 99.29%)    -1.42726
       7     17.44    -2.05915 (  1.46%)    -1.36860 ( 98.54%)    -1.37866
       8     20.81    -1.95459 (  2.91%)    -1.31628 ( 97.09%)    -1.33486
       9     23.39    -1.88523 (  4.57%)    -1.28157 ( 95.43%)    -1.30917
      10     34.06    -1.66295 ( 17.72%)    -1.17026 ( 82.28%)    -1.25757
      11     38.10    -1.59673 ( 25.22%)    -1.13706 ( 74.78%)    -1.25297
      12     41.05    -1.55271 ( 31.24%)    -1.11499 ( 68.76%)    -1.25172
      13     47.42    -1.46750 ( 44.73%)    -1.07222 ( 55.27%)    -1.24903
      14     55.88    -1.37077 ( 60.94%)    -1.02360 ( 39.06%)    -1.23517
      15     55.99    -1.36967 ( 61.12%)    -1.02305 ( 38.88%)    -1.23490
      16     65.39    -1.27834 ( 74.52%)    -0.97706 ( 25.48%)    -1.20158
      17     81.73    -1.14752 ( 87.72%)    -0.91096 ( 12.28%)    -1.11846
      18     87.26    -1.10928 ( 90.27%)    -0.89158 (  9.73%)    -1.08810
      19     91.70    -1.08036 ( 91.88%)    -0.87689 (  8.12%)    -1.06383
      20     94.42    -1.06333 ( 92.71%)    -0.86823 (  7.29%)    -1.04910
      21    104.37    -1.00507 ( 95.00%)    -0.83854 (  5.00%)    -0.99674
      22    105.39    -0.99941 ( 95.18%)    -0.83565 (  4.82%)    -0.99151
      23    106.88    -0.99131 ( 95.43%)    -0.83151 (  4.57%)    -0.98401
      24    116.64    -0.94073 ( 96.73%)    -0.80560 (  3.27%)    -0.93632
      25    119.64    -0.92610 ( 97.04%)    -0.79808 (  2.96%)    -0.92231
      26    130.01    -0.87832 ( 97.86%)    -0.77347 (  2.14%)    -0.87608
      27    143.48    -0.82198 ( 98.55%)    -0.74426 (  1.45%)    -0.82085
      28    152.74    -0.78646 ( 98.86%)    -0.72573 (  1.14%)    -0.78577
      29    163.98    -0.74637 ( 99.14%)    -0.70469 (  0.86%)    -0.74602
      30    166.82    -0.73674 ( 99.20%)    -0.69962 (  0.80%)    -0.73645
      31    173.93    -0.71335 ( 99.32%)    -0.68725 (  0.68%)    -0.71317
      32    177.43    -0.70224 ( 99.37%)    -0.68135 (  0.63%)    -0.70211
      33    178.33    -0.69939 ( 99.39%)    -0.67984 (  0.61%)    -0.69927
      34    179.74    -0.69502 ( 99.40%)    -0.67751 (  0.60%)    -0.69491
      35    209.11    -0.61164 ( 99.67%)    -0.63268 (  0.33%)    -0.61170
      36    233.42    -0.55231 ( 99.79%)    -0.60009 (  0.21%)    -0.55241
      37    234.04    -0.55089 ( 99.79%)    -0.59930 (  0.21%)    -0.55100
      38    234.57    -0.54970 ( 99.79%)    -0.59864 (  0.21%)    -0.54980
      39    245.79    -0.52492 ( 99.83%)    -0.58480 (  0.17%)    -0.52502
      40    254.22    -0.50719 ( 99.85%)    -0.57481 (  0.15%)    -0.50729
      41    263.55    -0.48842 ( 99.87%)    -0.56413 (  0.13%)    -0.48851
      42    268.09    -0.47958 ( 99.88%)    -0.55907 (  0.12%)    -0.47967
      43    270.06    -0.47580 ( 99.88%)    -0.55690 (  0.12%)    -0.47589
      44    285.44    -0.44747 ( 99.91%)    -0.54049 (  0.09%)    -0.44756
      45    297.64    -0.42640 ( 99.92%)    -0.52810 (  0.08%)    -0.42648
      46    299.64    -0.42304 ( 99.92%)    -0.52611 (  0.08%)    -0.42312
   ------------------------------------------------------------------------

   temp. (K)  partition function   enthalpy   heat capacity  entropy
                                   cal/mol     cal/K/mol   cal/K/mol   J/K/mol
 298.15  VIB  0.804E+28            32655.677    205.174    206.517
         ROT  0.397E+09              888.752      2.981     42.328
         INT  0.319E+37            33544.430    208.155    248.845
         TR   0.250E+29             1481.254      4.968     46.156
         TOT                       35025.6837   213.1231   295.0012  1234.2851

       T/K    H(0)-H(T)+PV         H(T)/Eh          T*S/Eh         G(T)/Eh
   ------------------------------------------------------------------------
    298.15    0.558170E-01    0.915588E+00    0.140165E+00    0.775423E+00
   ------------------------------------------------------------------------

         :::::::::::::::::::::::::::::::::::::::::::::::::::::
         ::                  THERMODYNAMIC                  ::
         :::::::::::::::::::::::::::::::::::::::::::::::::::::
         :: total free energy        -172.400289315058 Eh   ::
         ::.................................................::
         :: total energy             -173.175712401673 Eh   ::
         :: zero point energy           0.859770703058 Eh   ::
         :: G(RRHO) w/o ZPVE           -0.084347616443 Eh   ::
         :: G(RRHO) contrib.            0.775423086614 Eh   ::
         :::::::::::::::::::::::::::::::::::::::::::::::::::::

optimized geometry written to: xtbopt.xyz


           -------------------------------------------------
          | TOTAL ENERGY             -173.175712401673 Eh   |
          | TOTAL ENTHALPY           -172.260124718797 Eh   |
          | TOTAL FREE ENERGY        -172.400289315058 Eh   |
          | GRADIENT NORM               0.000029678793 Eh/α |
          | HOMO-LUMO GAP               0.001516109872 eV   |
           -------------------------------------------------

------------------------------------------------------------------------
 * finished run on 2025/09/14 at 05:00:18.632     
------------------------------------------------------------------------
 total:
 * wall-time:     0 d,  0 h,  0 min, 24.355 sec
 *  cpu-time:     0 d,  0 h, 15 min,  6.178 sec
 * ratio c/w:    37.207 speedup
 SCF:
 * wall-time:     0 d,  0 h,  0 min,  0.428 sec
 *  cpu-time:     0 d,  0 h,  0 min, 16.520 sec
 * ratio c/w:    38.638 speedup
 ANC optimizer:
 * wall-time:     0 d,  0 h,  0 min, 13.008 sec
 *  cpu-time:     0 d,  0 h,  8 min, 40.226 sec
 * ratio c/w:    39.994 speedup
 analytical hessian:
 * wall-time:     0 d,  0 h,  0 min, 10.588 sec
 *  cpu-time:     0 d,  0 h,  6 min,  0.220 sec
 * ratio c/w:    34.023 speedup

