      -----------------------------------------------------------      
     |                   =====================                   |     
     |                           x T B                           |     
     |                   =====================                   |     
     |                         S. Grimme                         |     
     |          Mulliken Center for Theoretical Chemistry        |     
     |                    University of Bonn                     |     
      -----------------------------------------------------------      

   * xtb version 6.7.1 (edcfbbe) compiled by 'albert@albert-system' on 2024-07-22

   xtb is free software: you can redistribute it and/or modify it under
   the terms of the GNU Lesser General Public License as published by
   the Free Software Foundation, either version 3 of the License, or
   (at your option) any later version.
   
   xtb is distributed in the hope that it will be useful,
   but WITHOUT ANY WARRANTY; without even the implied warranty of
   MERCHANTABILITY or FITNESS FOR A PARTICULAR PURPOSE.  See the
   GNU Lesser General Public License for more details.
   
   Cite this work as:
   * C. Bannwarth, E. Caldeweyher, S. Ehlert, A. Hansen, P. Pracht,
     J. Seibert, S. Spicher, S. Grimme, WIREs Comput. Mol. Sci., 2020, 11,
     e01493. DOI: 10.1002/wcms.1493
   
   for GFN2-xTB:
   * C. Bannwarth, S. Ehlert and S. Grimme., J. Chem. Theory Comput., 2019,
     15, 1652-1671. DOI: 10.1021/acs.jctc.8b01176
   for GFN1-xTB:
   * S. Grimme, C. Bannwarth, P. Shushkov, J. Chem. Theory Comput., 2017,
     13, 1989-2009. DOI: 10.1021/acs.jctc.7b00118
   for GFN0-xTB:
   * P. Pracht, E. Caldeweyher, S. Ehlert, S. Grimme, ChemRxiv, 2019, preprint.
     DOI: 10.26434/chemrxiv.8326202.v1
   for GFN-FF:
   * S. Spicher and S. Grimme, Angew. Chem. Int. Ed., 2020, 59, 15665-15673.
     DOI: 10.1002/anie.202004239
   
   for ALPB and GBSA implicit solvation:
   * S. Ehlert, M. Stahn, S. Spicher, S. Grimme, J. Chem. Theory Comput.,
     2021, 17, 4250-4261. DOI: 10.1021/acs.jctc.1c00471
   
   for ddCOSMO and CPCM-X implicit solvation:
   * M. Stahn, S. Ehlert, S. Grimme, J. Phys. Chem. A,
     2023, XX, XXXX-XXXX. DOI: 10.1021/acs.jpca.3c04382
   
   for DFT-D4:
   * E. Caldeweyher, C. Bannwarth and S. Grimme, J. Chem. Phys., 2017,
     147, 034112. DOI: 10.1063/1.4993215
   * E. Caldeweyher, S. Ehlert, A. Hansen, H. Neugebauer, S. Spicher,
     C. Bannwarth and S. Grimme, J. Chem. Phys., 2019, 150, 154122.
     DOI: 10.1063/1.5090222
   * E. Caldeweyher, J.-M. Mewes, S. Ehlert and S. Grimme, Phys. Chem. Chem. Phys.
     2020, 22, 8499-8512. DOI: 10.1039/D0CP00502A
   
   for sTDA-xTB:
   * S. Grimme and C. Bannwarth, J. Chem. Phys., 2016, 145, 054103.
     DOI: 10.1063/1.4959605
   
   in the mass-spec context:
   * V. Asgeirsson, C. Bauer and S. Grimme, Chem. Sci., 2017, 8, 4879.
     DOI: 10.1039/c7sc00601b
   * J. Koopman and S. Grimme, ACS Omega 2019, 4, 12, 15120-15133.
     DOI: 10.1021/acsomega.9b02011
   
   for metadynamics refer to:
   * S. Grimme, J. Chem. Theory Comput., 2019, 155, 2847-2862
     DOI: 10.1021/acs.jctc.9b00143
   
   for SPH calculations refer to:
   * S. Spicher and S. Grimme, J. Chem. Theory Comput., 2021, 17, 1701-1714
     DOI: 10.1021/acs.jctc.0c01306
   
   for ONIOM refer to:
   * C. Plett, A. Katbashev, S. Ehlert, S. Grimme, M. Bursch,
     Phys. Chem. Chem. Phys., 2023, 25, 17860-17868. DOI: 10.1039/D3CP02178E
   
   for DIPRO refer to:
   * J. Kohn, N. Gildemeister, S. Grimme, D. Fazzi, A. Hansen,
     J. Chem. Phys., 2023, just accepted.
   
   for PTB refer to:
   * S. Grimme, M. Mueller, A. Hansen, J. Chem. Phys., 2023, 158, 124111.
     DOI: 10.1063/5.0137838
   
   with help from (in alphabetical order)
   P. Atkinson, C. Bannwarth, F. Bohle, G. Brandenburg, E. Caldeweyher
   M. Checinski, S. Dohm, S. Ehlert, S. Ehrlich, I. Gerasimov, C. Hölzer
   A. Katbashev, J. Kohn, J. Koopman, C. Lavigne, S. Lehtola, F. März, M. Müller,
   F. Musil, H. Neugebauer, J. Pisarek, C. Plett, P. Pracht, F. Pultar,
   J. Seibert, P. Shushkov, S. Spicher, M. Stahn, M. Steiner, T. Strunk,
   J. Stückrath, T. Rose, and J. Unsleber
   
 * started run on 2025/09/08 at 07:08:29.030     
   ID    Z sym.   atoms
    1    8 O      1, 3, 15, 35
    2   16 S      2
    3    6 C      4-7, 9-14, 16-27, 29-34, 36-43
    4    7 N      8, 28
    5    1 H      44-67

           -------------------------------------------------
          |                Calculation Setup                |
           -------------------------------------------------

          program call               : xtb data2507/gas/DPS-PXZ/DPS-PXZ.xyz --gfn 2 --ohess vtight --parallel 40 --molden --ceasefiles --namespace data2507/gas/DPS-PXZ/DPS-PXZ_gas_S0_preOpt
          calculation namespace      : data2507/gas/DPS-PXZ/DPS-PXZ_gas_S0_preOpt
          coordinate file            : data2507/gas/DPS-PXZ/DPS-PXZ.xyz
          omp threads                :                    40


           -------------------------------------------------
          |                 G F N 2 - x T B                 |
           -------------------------------------------------

        Reference                      10.1021/acs.jctc.8b01176
      * Hamiltonian:
        H0-scaling (s, p, d)           1.850000    2.230000    2.230000
        zeta-weighting                 0.500000
      * Dispersion:
        s8                             2.700000
        a1                             0.520000
        a2                             5.000000
        s9                             5.000000
      * Repulsion:
        kExp                           1.500000    1.000000
        rExp                           1.000000
      * Coulomb:
        alpha                          2.000000
        third order                    shell-resolved
        anisotropic                    true
        a3                             3.000000
        a5                             4.000000
        cn-shift                       1.200000
        cn-exp                         4.000000
        max-rad                        5.000000


          ...................................................
          :                      SETUP                      :
          :.................................................:
          :  # basis functions                 202          :
          :  # atomic orbitals                 201          :
          :  # shells                          111          :
          :  # electrons                       208          :
          :  max. iterations                   250          :
          :  Hamiltonian                  GFN2-xTB          :
          :  restarted?                      false          :
          :  GBSA solvation                  false          :
          :  PC potential                    false          :
          :  electronic temp.          300.0000000     K    :
          :  accuracy                    1.0000000          :
          :  -> integral cutoff          0.2500000E+02      :
          :  -> integral neglect         0.1000000E-07      :
          :  -> SCF convergence          0.1000000E-05 Eh   :
          :  -> wf. convergence          0.1000000E-03 e    :
          :  Broyden damping             0.4000000          :
          :  net charge                          0          :
          :  unpaired electrons                  0          :
          ...................................................

 iter      E             dE          RMSdq      gap      omega  full diag
   1   -116.3238064 -0.116324E+03  0.495E+00    2.23       0.0  T
   2   -116.3988825 -0.750761E-01  0.308E+00    1.87       1.0  T
   3   -116.3632646  0.356179E-01  0.971E-01    1.79       1.0  T
   4   -116.4055648 -0.423002E-01  0.392E-01    1.73       1.0  T
   5   -116.4123978 -0.683307E-02  0.147E-01    1.71       1.0  T
   6   -116.4127717 -0.373855E-03  0.767E-02    1.74       1.0  T
   7   -116.4129767 -0.204983E-03  0.414E-02    1.73       1.0  T
   8   -116.4130017 -0.249980E-04  0.232E-02    1.74       1.0  T
   9   -116.4130087 -0.699857E-05  0.107E-02    1.74       1.1  T
  10   -116.4130143 -0.559294E-05  0.371E-03    1.74       3.3  T
  11   -116.4130143  0.103485E-08  0.205E-03    1.74       6.0  T
  12   -116.4130144 -0.170127E-06  0.482E-04    1.74      25.3  T
  13   -116.4130144 -0.106674E-08  0.179E-04    1.74      68.4  T

   *** convergence criteria satisfied after 13 iterations ***

         #    Occupation            Energy/Eh            Energy/eV
      -------------------------------------------------------------
         1        2.0000           -0.7763923             -21.1267
       ...           ...                  ...                  ...
        98        2.0000           -0.4146492             -11.2832
        99        2.0000           -0.4144658             -11.2782
       100        2.0000           -0.4143480             -11.2750
       101        2.0000           -0.3931580             -10.6984
       102        2.0000           -0.3931535             -10.6983
       103        2.0000           -0.3483278              -9.4785
       104        2.0000           -0.3483110              -9.4780 (HOMO)
       105                         -0.2843567              -7.7377 (LUMO)
       106                         -0.2695321              -7.3343
       107                         -0.2641313              -7.1874
       108                         -0.2638760              -7.1804
       109                         -0.2435636              -6.6277
       ...                                ...                  ...
       201                          1.1232735              30.5658
      -------------------------------------------------------------
                  HL-Gap            0.0639543 Eh            1.7403 eV
             Fermi-level           -0.3163338 Eh           -8.6079 eV

 SCC (total)                   0 d,  0 h,  0 min,  0.203 sec
 SCC setup                      ...        0 min,  0.001 sec (  0.334%)
 Dispersion                     ...        0 min,  0.004 sec (  1.763%)
 classical contributions        ...        0 min,  0.000 sec (  0.194%)
 integral evaluation            ...        0 min,  0.014 sec (  6.917%)
 iterations                     ...        0 min,  0.170 sec ( 83.685%)
 molecular gradient             ...        0 min,  0.013 sec (  6.257%)
 printout                       ...        0 min,  0.002 sec (  0.806%)

         :::::::::::::::::::::::::::::::::::::::::::::::::::::
         ::                     SUMMARY                     ::
         :::::::::::::::::::::::::::::::::::::::::::::::::::::
         :: total energy            -114.682907236595 Eh    ::
         :: gradient norm              0.071728446780 Eh/a0 ::
         :: HOMO-LUMO gap              1.740283827663 eV    ::
         ::.................................................::
         :: SCC energy              -116.412559097448 Eh    ::
         :: -> isotropic ES            0.099817674748 Eh    ::
         :: -> anisotropic ES          0.001263821608 Eh    ::
         :: -> anisotropic XC          0.049829868304 Eh    ::
         :: -> dispersion             -0.091491594679 Eh    ::
         :: repulsion energy           1.729651860853 Eh    ::
         :: add. restraining           0.000000000000 Eh    ::
         :: total charge               0.000000000000 e     ::
         :::::::::::::::::::::::::::::::::::::::::::::::::::::

      ----------------------------------------------------------- 
     |                   =====================                   |
     |                        A N C O P T                        |
     |                   =====================                   |
     |               Approximate Normal Coordinate               |
     |                Rational Function Optimizer                |
      ----------------------------------------------------------- 

Optimization log is written to '/dev/null'
      ----------------------------------------------------------- 
     |                   =====================                   |
     |                        A N C O P T                        |
     |                   =====================                   |
     |               Approximate Normal Coordinate               |
     |                Rational Function Optimizer                |
      ----------------------------------------------------------- 

          ...................................................
          :                      SETUP                      :
          :.................................................:
          :   optimization level         verytight          :
          :   max. optcycles                  1340          :
          :   ANC micro-cycles                  20          :
          :   degrees of freedom               195          :
          :.................................................:
          :   RF solver                   davidson          :
          :   write xtbopt.log                true          :
          :   linear?                        false          :
          :   energy convergence         0.1000000E-06 Eh   :
          :   grad. convergence          0.2000000E-03 Eh/α :
          :   maxmium RF displ.          1.0000000          :
          :   Hlow (freq-cutoff)         0.1000000E-01      :
          :   Hmax (freq-cutoff)         5.0000000          :
          :   S6 in model hess.         20.0000000          :
          ...................................................

generating ANC from exact Hessian ...
Using Lindh-Hessian (1995)
 Shifting diagonal of input Hessian by   9.925037370564023E-003
 Lowest  eigenvalues of input Hessian
    0.000000    0.000000    0.000000    0.000000    0.000000    0.000000
    0.010000    0.010051    0.010095    0.010256    0.010636    0.010957
    0.011111    0.011775    0.011851    0.012557    0.012602    0.013217
 Highest eigenvalues
    2.078955    2.081167    2.103594    2.103594    2.406295    3.342986
 

........................................................................
.............................. CYCLE    1 ..............................
........................................................................

 iter      E             dE          RMSdq      gap      omega  full diag
   1   -116.4130144 -0.116413E+03  0.762E-05    1.74       0.0  T
   2   -116.4130144 -0.515143E-10  0.470E-05    1.74     259.7  T
   3   -116.4130144 -0.350582E-10  0.320E-05    1.74     381.6  T
     SCC iter.                  ...        0 min,  0.037 sec
     gradient                   ...        0 min,  0.012 sec
 * total energy  :  -114.6829072 Eh     change       -0.9972325E-09 Eh
   gradient norm :     0.0717293 Eh/α   predicted     0.0000000E+00 (-100.00%)
   displ. norm   :     0.3801307 α      lambda       -0.1553248E-01
   maximum displ.:     0.2391669 α      in ANC's #43, #18, #101, ...

........................................................................
.............................. CYCLE    2 ..............................
........................................................................

 iter      E             dE          RMSdq      gap      omega  full diag
   1   -116.5139309 -0.116514E+03  0.166E-01    1.78       0.0  T
   2   -116.5140583 -0.127346E-03  0.105E-01    1.80       1.0  T
   3   -116.5139917  0.665581E-04  0.640E-02    1.78       1.0  T
   4   -116.5141974 -0.205672E-03  0.129E-02    1.79       1.0  T
   5   -116.5142057 -0.833877E-05  0.533E-03    1.79       2.3  T
   6   -116.5142068 -0.107985E-05  0.191E-03    1.79       6.4  T
   7   -116.5142069 -0.486544E-07  0.664E-04    1.79      18.4  T
   8   -116.5142069 -0.164366E-07  0.285E-04    1.79      42.8  T
     SCC iter.                  ...        0 min,  0.083 sec
     gradient                   ...        0 min,  0.010 sec
 * total energy  :  -114.6938919 Eh     change       -0.1098461E-01 Eh
   gradient norm :     0.0337486 Eh/α   predicted    -0.8892415E-02 ( -19.05%)
   displ. norm   :     0.3840295 α      lambda       -0.5634062E-02
   maximum displ.:     0.2021473 α      in ANC's #43, #15, #18, ...

........................................................................
.............................. CYCLE    3 ..............................
........................................................................

 iter      E             dE          RMSdq      gap      omega  full diag
   1   -116.5665604 -0.116567E+03  0.123E-01    1.79       0.0  T
   2   -116.5667189 -0.158556E-03  0.884E-02    1.81       1.0  T
   3   -116.5668369 -0.117998E-03  0.458E-02    1.80       1.0  T
   4   -116.5668797 -0.427882E-04  0.163E-02    1.80       1.0  T
   5   -116.5668912 -0.114920E-04  0.531E-03    1.80       2.3  T
   6   -116.5668921 -0.890129E-06  0.198E-03    1.80       6.2  T
   7   -116.5668922 -0.583007E-07  0.555E-04    1.80      22.0  T
   8   -116.5668922 -0.106721E-07  0.223E-04    1.80      54.8  T
     SCC iter.                  ...        0 min,  0.062 sec
     gradient                   ...        0 min,  0.009 sec
 * total energy  :  -114.6973895 Eh     change       -0.3497634E-02 Eh
   gradient norm :     0.0098283 Eh/α   predicted    -0.3233785E-02 (  -7.54%)
   displ. norm   :     0.2735041 α      lambda       -0.1182300E-02
   maximum displ.:     0.1827475 α      in ANC's #15, #18, #16, ...

........................................................................
.............................. CYCLE    4 ..............................
........................................................................

 iter      E             dE          RMSdq      gap      omega  full diag
   1   -116.5723283 -0.116572E+03  0.615E-02    1.79       0.0  T
   2   -116.5723587 -0.303453E-04  0.438E-02    1.80       1.0  T
   3   -116.5723738 -0.150883E-04  0.223E-02    1.79       1.0  T
   4   -116.5723886 -0.147916E-04  0.762E-03    1.79       1.6  T
   5   -116.5723911 -0.250522E-05  0.257E-03    1.79       4.8  T
   6   -116.5723913 -0.186862E-06  0.103E-03    1.79      11.9  T
   7   -116.5723913 -0.241171E-07  0.255E-04    1.79      48.0  T
   8   -116.5723913 -0.140732E-08  0.126E-04    1.79      96.7  T
     SCC iter.                  ...        0 min,  0.061 sec
     gradient                   ...        0 min,  0.009 sec
 * total energy  :  -114.6982296 Eh     change       -0.8401627E-03 Eh
   gradient norm :     0.0060431 Eh/α   predicted    -0.6353855E-03 ( -24.37%)
   displ. norm   :     0.2762859 α      lambda       -0.6431339E-03
   maximum displ.:     0.1963491 α      in ANC's #15, #18, #16, ...

........................................................................
.............................. CYCLE    5 ..............................
........................................................................

 iter      E             dE          RMSdq      gap      omega  full diag
   1   -116.5691094 -0.116569E+03  0.551E-02    1.79       0.0  T
   2   -116.5691178 -0.838869E-05  0.347E-02    1.79       1.0  T
   3   -116.5691026  0.152658E-04  0.189E-02    1.79       1.0  T
   4   -116.5691255 -0.229046E-04  0.387E-03    1.79       3.2  T
   5   -116.5691259 -0.443547E-06  0.181E-03    1.79       6.8  T
   6   -116.5691260 -0.137337E-06  0.633E-04    1.79      19.3  T
   7   -116.5691261 -0.141946E-07  0.210E-04    1.79      58.0  T
     SCC iter.                  ...        0 min,  0.055 sec
     gradient                   ...        0 min,  0.009 sec
 * total energy  :  -114.6986492 Eh     change       -0.4195248E-03 Eh
   gradient norm :     0.0055567 Eh/α   predicted    -0.3461153E-03 ( -17.50%)
   displ. norm   :     0.1658658 α      lambda       -0.1912182E-03
   maximum displ.:     0.1103849 α      in ANC's #15, #5, #16, ...

........................................................................
.............................. CYCLE    6 ..............................
........................................................................

 iter      E             dE          RMSdq      gap      omega  full diag
   1   -116.5675575 -0.116568E+03  0.304E-02    1.79       0.0  T
   2   -116.5675585 -0.101672E-05  0.180E-02    1.79       1.0  T
   3   -116.5675550  0.349839E-05  0.753E-03    1.79       1.6  T
   4   -116.5675592 -0.419071E-05  0.146E-03    1.79       8.3  T
   5   -116.5675592 -0.330214E-07  0.451E-04    1.79      27.1  T
   6   -116.5675592 -0.351302E-08  0.206E-04    1.79      59.3  T
     SCC iter.                  ...        0 min,  0.046 sec
     gradient                   ...        0 min,  0.009 sec
 * total energy  :  -114.6987804 Eh     change       -0.1312543E-03 Eh
   gradient norm :     0.0036080 Eh/α   predicted    -0.9823986E-04 ( -25.15%)
   displ. norm   :     0.1271561 α      lambda       -0.9507335E-04
   maximum displ.:     0.0814128 α      in ANC's #5, #15, #6, ...

........................................................................
.............................. CYCLE    7 ..............................
........................................................................

 iter      E             dE          RMSdq      gap      omega  full diag
   1   -116.5680799 -0.116568E+03  0.233E-02    1.79       0.0  T
   2   -116.5680805 -0.590331E-06  0.137E-02    1.79       1.0  T
   3   -116.5680788  0.169464E-05  0.481E-03    1.79       2.5  T
   4   -116.5680808 -0.191357E-05  0.118E-03    1.79      10.4  T
   5   -116.5680808 -0.683548E-07  0.450E-04    1.79      27.2  T
   6   -116.5680808 -0.358206E-08  0.192E-04    1.79      63.7  T
     SCC iter.                  ...        0 min,  0.046 sec
     gradient                   ...        0 min,  0.009 sec
 * total energy  :  -114.6988501 Eh     change       -0.6962991E-04 Eh
   gradient norm :     0.0018242 Eh/α   predicted    -0.4830549E-04 ( -30.63%)
   displ. norm   :     0.1900123 α      lambda       -0.7039745E-04
   maximum displ.:     0.1302461 α      in ANC's #5, #10, #6, ...

........................................................................
.............................. CYCLE    8 ..............................
........................................................................

 iter      E             dE          RMSdq      gap      omega  full diag
   1   -116.5700305 -0.116570E+03  0.363E-02    1.78       0.0  T
   2   -116.5700312 -0.707385E-06  0.213E-02    1.78       1.0  T
   3   -116.5700299  0.127933E-05  0.485E-03    1.79       2.5  T
   4   -116.5700314 -0.149613E-05  0.981E-04    1.79      12.4  T
   5   -116.5700314 -0.337997E-07  0.474E-04    1.79      25.8  T
   6   -116.5700314 -0.599869E-08  0.201E-04    1.79      60.7  T
     SCC iter.                  ...        0 min,  0.047 sec
     gradient                   ...        0 min,  0.009 sec
 * total energy  :  -114.6989258 Eh     change       -0.7577314E-04 Eh
   gradient norm :     0.0031280 Eh/α   predicted    -0.3576403E-04 ( -52.80%)
   displ. norm   :     0.1353887 α      lambda       -0.6800834E-04
   maximum displ.:     0.0874193 α      in ANC's #5, #10, #6, ...

........................................................................
.............................. CYCLE    9 ..............................
........................................................................

 iter      E             dE          RMSdq      gap      omega  full diag
   1   -116.5709032 -0.116571E+03  0.271E-02    1.78       0.0  T
   2   -116.5709035 -0.202103E-06  0.159E-02    1.78       1.0  T
   3   -116.5709023  0.113237E-05  0.379E-03    1.78       3.2  T
   4   -116.5709036 -0.127127E-05  0.478E-04    1.78      25.5  T
   5   -116.5709036 -0.120867E-07  0.233E-04    1.78      52.4  T
   6   -116.5709036 -0.192129E-08  0.104E-04    1.78     116.9  T
     SCC iter.                  ...        0 min,  0.046 sec
     gradient                   ...        0 min,  0.009 sec
 * total energy  :  -114.6989897 Eh     change       -0.6388105E-04 Eh
   gradient norm :     0.0034363 Eh/α   predicted    -0.3463015E-04 ( -45.79%)
   displ. norm   :     0.3822292 α      lambda       -0.1953252E-03
   maximum displ.:     0.2300731 α      in ANC's #5, #10, #6, ...

........................................................................
.............................. CYCLE   10 ..............................
........................................................................

 iter      E             dE          RMSdq      gap      omega  full diag
   1   -116.5714796 -0.116571E+03  0.795E-02    1.77       0.0  T
   2   -116.5714814 -0.179546E-05  0.467E-02    1.78       1.0  T
   3   -116.5714732  0.818734E-05  0.103E-02    1.78       1.2  T
   4   -116.5714824 -0.918407E-05  0.156E-03    1.78       7.8  T
   5   -116.5714825 -0.110547E-06  0.749E-04    1.78      16.3  T
   6   -116.5714825 -0.169417E-07  0.328E-04    1.78      37.3  T
     SCC iter.                  ...        0 min,  0.047 sec
     gradient                   ...        0 min,  0.009 sec
 * total energy  :  -114.6991646 Eh     change       -0.1748458E-03 Eh
   gradient norm :     0.0041567 Eh/α   predicted    -0.1119317E-03 ( -35.98%)
   displ. norm   :     0.6251198 α      lambda       -0.2804730E-03
   maximum displ.:     0.3706684 α      in ANC's #5, #10, #6, ...

........................................................................
.............................. CYCLE   11 ..............................
........................................................................

 iter      E             dE          RMSdq      gap      omega  full diag
   1   -116.5696350 -0.116570E+03  0.131E-01    1.76       0.0  T
   2   -116.5696402 -0.518428E-05  0.769E-02    1.77       1.0  T
   3   -116.5696225  0.176693E-04  0.160E-02    1.77       1.0  T
   4   -116.5696425 -0.199513E-04  0.275E-03    1.78       4.4  T
   5   -116.5696427 -0.266953E-06  0.142E-03    1.77       8.6  T
   6   -116.5696428 -0.711567E-07  0.575E-04    1.77      21.3  T
   7   -116.5696428 -0.142994E-07  0.203E-04    1.77      60.3  T
     SCC iter.                  ...        0 min,  0.054 sec
     gradient                   ...        0 min,  0.009 sec
 * total energy  :  -114.6994018 Eh     change       -0.2372782E-03 Eh
   gradient norm :     0.0062821 Eh/α   predicted    -0.1950420E-03 ( -17.80%)
   displ. norm   :     0.6010376 α      lambda       -0.2391592E-03
   maximum displ.:     0.3510665 α      in ANC's #5, #10, #6, ...

........................................................................
.............................. CYCLE   12 ..............................
........................................................................

 iter      E             dE          RMSdq      gap      omega  full diag
   1   -116.5673922 -0.116567E+03  0.126E-01    1.76       0.0  T
   2   -116.5673975 -0.528809E-05  0.740E-02    1.78       1.0  T
   3   -116.5673846  0.128472E-04  0.146E-02    1.78       1.0  T
   4   -116.5673994 -0.147275E-04  0.269E-03    1.78       4.5  T
   5   -116.5673995 -0.180484E-06  0.149E-03    1.78       8.2  T
   6   -116.5673996 -0.800438E-07  0.615E-04    1.78      19.9  T
   7   -116.5673996 -0.209151E-07  0.205E-04    1.78      59.6  T
     SCC iter.                  ...        0 min,  0.056 sec
     gradient                   ...        0 min,  0.009 sec
 * total energy  :  -114.6995938 Eh     change       -0.1920070E-03 Eh
   gradient norm :     0.0075812 Eh/α   predicted    -0.1627785E-03 ( -15.22%)
   displ. norm   :     0.4518047 α      lambda       -0.2077452E-03
   maximum displ.:     0.2621237 α      in ANC's #10, #5, #6, ...

........................................................................
.............................. CYCLE   13 ..............................
........................................................................

 iter      E             dE          RMSdq      gap      omega  full diag
   1   -116.5679567 -0.116568E+03  0.949E-02    1.78       0.0  T
   2   -116.5679597 -0.301223E-05  0.558E-02    1.79       1.0  T
   3   -116.5679551  0.467951E-05  0.939E-03    1.80       1.3  T
   4   -116.5679606 -0.558422E-05  0.190E-03    1.80       6.4  T
   5   -116.5679607 -0.612718E-07  0.102E-03    1.80      12.0  T
   6   -116.5679607 -0.208674E-07  0.432E-04    1.80      28.3  T
   7   -116.5679607 -0.123999E-07  0.156E-04    1.80      78.4  T
     SCC iter.                  ...        0 min,  0.055 sec
     gradient                   ...        0 min,  0.009 sec
 * total energy  :  -114.6997617 Eh     change       -0.1678633E-03 Eh
   gradient norm :     0.0058534 Eh/α   predicted    -0.1250765E-03 ( -25.49%)
   displ. norm   :     0.4325451 α      lambda       -0.2040413E-03
   maximum displ.:     0.2734345 α      in ANC's #10, #5, #13, ...

........................................................................
.............................. CYCLE   14 ..............................
........................................................................

 iter      E             dE          RMSdq      gap      omega  full diag
   1   -116.5694339 -0.116569E+03  0.940E-02    1.81       0.0  T
   2   -116.5694369 -0.292583E-05  0.553E-02    1.82       1.0  T
   3   -116.5694313  0.557480E-05  0.949E-03    1.82       1.3  T
   4   -116.5694379 -0.660308E-05  0.188E-03    1.82       6.5  T
   5   -116.5694379 -0.479358E-07  0.833E-04    1.82      14.7  T
   6   -116.5694380 -0.161060E-07  0.412E-04    1.82      29.6  T
     SCC iter.                  ...        0 min,  0.046 sec
     gradient                   ...        0 min,  0.009 sec
 * total energy  :  -114.6999251 Eh     change       -0.1634392E-03 Eh
   gradient norm :     0.0040524 Eh/α   predicted    -0.1211096E-03 ( -25.90%)
   displ. norm   :     0.4400330 α      lambda       -0.1940527E-03
   maximum displ.:     0.3037051 α      in ANC's #10, #5, #13, ...

........................................................................
.............................. CYCLE   15 ..............................
........................................................................

 iter      E             dE          RMSdq      gap      omega  full diag
   1   -116.5698504 -0.116570E+03  0.100E-01    1.82       0.0  T
   2   -116.5698543 -0.386486E-05  0.588E-02    1.84       1.0  T
   3   -116.5698479  0.642518E-05  0.106E-02    1.84       1.2  T
   4   -116.5698555 -0.767495E-05  0.200E-03    1.84       6.1  T
   5   -116.5698556 -0.446991E-07  0.842E-04    1.84      14.5  T
   6   -116.5698556 -0.249639E-07  0.436E-04    1.84      28.1  T
     SCC iter.                  ...        0 min,  0.047 sec
     gradient                   ...        0 min,  0.009 sec
 * total energy  :  -114.7000902 Eh     change       -0.1650570E-03 Eh
   gradient norm :     0.0043201 Eh/α   predicted    -0.1158145E-03 ( -29.83%)
   displ. norm   :     0.3468613 α      lambda       -0.2300532E-03
   maximum displ.:     0.2598379 α      in ANC's #10, #13, #2, ...

........................................................................
.............................. CYCLE   16 ..............................
........................................................................

 iter      E             dE          RMSdq      gap      omega  full diag
   1   -116.5738931 -0.116574E+03  0.826E-02    1.85       0.0  T
   2   -116.5738958 -0.268284E-05  0.485E-02    1.86       1.0  T
   3   -116.5738915  0.425642E-05  0.838E-03    1.87       1.5  T
   4   -116.5738966 -0.507249E-05  0.173E-03    1.87       7.1  T
   5   -116.5738967 -0.766745E-07  0.769E-04    1.87      15.9  T
   6   -116.5738967 -0.337170E-07  0.359E-04    1.87      34.0  T
     SCC iter.                  ...        0 min,  0.047 sec
     gradient                   ...        0 min,  0.009 sec
 * total energy  :  -114.7002784 Eh     change       -0.1881772E-03 Eh
   gradient norm :     0.0068442 Eh/α   predicted    -0.1288709E-03 ( -31.52%)
   displ. norm   :     0.6997207 α      lambda       -0.4067047E-03
   maximum displ.:     0.5367969 α      in ANC's #10, #13, #2, ...

........................................................................
.............................. CYCLE   17 ..............................
........................................................................

 iter      E             dE          RMSdq      gap      omega  full diag
   1   -116.5699910 -0.116570E+03  0.168E-01    1.86       0.0  T
   2   -116.5700084 -0.173414E-04  0.988E-02    1.89       1.0  T
   3   -116.5699805  0.278173E-04  0.238E-02    1.89       1.0  T
   4   -116.5700135 -0.329956E-04  0.344E-03    1.90       3.5  T
   5   -116.5700136 -0.941525E-07  0.183E-03    1.90       6.7  T
   6   -116.5700138 -0.160486E-06  0.829E-04    1.90      14.7  T
   7   -116.5700138 -0.334284E-07  0.374E-04    1.90      32.6  T
     SCC iter.                  ...        0 min,  0.054 sec
     gradient                   ...        0 min,  0.009 sec
 * total energy  :  -114.7006093 Eh     change       -0.3308753E-03 Eh
   gradient norm :     0.0080378 Eh/α   predicted    -0.3029327E-03 (  -8.45%)
   displ. norm   :     0.5816716 α      lambda       -0.3866059E-03
   maximum displ.:     0.4401524 α      in ANC's #10, #2, #13, ...

........................................................................
.............................. CYCLE   18 ..............................
........................................................................

 iter      E             dE          RMSdq      gap      omega  full diag
   1   -116.5673921 -0.116567E+03  0.137E-01    1.89       0.0  T
   2   -116.5674062 -0.141696E-04  0.803E-02    1.92       1.0  T
   3   -116.5673716  0.346696E-04  0.243E-02    1.92       1.0  T
   4   -116.5674112 -0.396408E-04  0.309E-03    1.93       4.0  T
   5   -116.5674115 -0.312233E-06  0.177E-03    1.92       6.9  T
   6   -116.5674117 -0.196473E-06  0.690E-04    1.92      17.7  T
   7   -116.5674117 -0.161408E-07  0.317E-04    1.92      38.5  T
     SCC iter.                  ...        0 min,  0.055 sec
     gradient                   ...        0 min,  0.009 sec
 * total energy  :  -114.7009171 Eh     change       -0.3077982E-03 Eh
   gradient norm :     0.0085711 Eh/α   predicted    -0.2587127E-03 ( -15.95%)
   displ. norm   :     0.4853644 α      lambda       -0.5557458E-03
   maximum displ.:     0.2822552 α      in ANC's #10, #6, #5, ...

........................................................................
.............................. CYCLE   19 ..............................
........................................................................

 iter      E             dE          RMSdq      gap      omega  full diag
   1   -116.5717110 -0.116572E+03  0.107E-01    1.93       0.0  T
   2   -116.5717200 -0.902006E-05  0.625E-02    1.95       1.0  T
   3   -116.5716793  0.406986E-04  0.236E-02    1.95       1.0  T
   4   -116.5717253 -0.459860E-04  0.287E-03    1.95       4.3  T
   5   -116.5717259 -0.624847E-06  0.117E-03    1.95      10.4  T
   6   -116.5717260 -0.572840E-07  0.590E-04    1.95      20.7  T
   7   -116.5717260 -0.368004E-08  0.248E-04    1.95      49.3  T
     SCC iter.                  ...        0 min,  0.054 sec
     gradient                   ...        0 min,  0.009 sec
 * total energy  :  -114.7013001 Eh     change       -0.3830773E-03 Eh
   gradient norm :     0.0054839 Eh/α   predicted    -0.3433356E-03 ( -10.37%)
   displ. norm   :     0.6025312 α      lambda       -0.3097836E-03
   maximum displ.:     0.4247890 α      in ANC's #10, #6, #2, ...

........................................................................
.............................. CYCLE   20 ..............................
........................................................................

 iter      E             dE          RMSdq      gap      omega  full diag
   1   -116.5684301 -0.116568E+03  0.136E-01    1.95       0.0  T
   2   -116.5684474 -0.172745E-04  0.800E-02    1.98       1.0  T
   3   -116.5683900  0.573865E-04  0.306E-02    1.97       1.0  T
   4   -116.5684554 -0.654513E-04  0.339E-03    1.98       3.6  T
   5   -116.5684559 -0.480828E-06  0.187E-03    1.98       6.5  T
   6   -116.5684561 -0.221103E-06  0.758E-04    1.98      16.1  T
   7   -116.5684561 -0.192092E-07  0.310E-04    1.98      39.4  T
     SCC iter.                  ...        0 min,  0.052 sec
     gradient                   ...        0 min,  0.008 sec
 * total energy  :  -114.7014932 Eh     change       -0.1930518E-03 Eh
   gradient norm :     0.0071803 Eh/α   predicted    -0.2111278E-03 (   9.36%)
   displ. norm   :     0.2656927 α      lambda       -0.1757369E-03
   maximum displ.:     0.1537696 α      in ANC's #5, #6, #10, ...
 * RMSD in coord.:     0.6906607 α      energy gain  -0.1858595E-01 Eh

generating ANC from exact Hessian ...
Using Lindh-Hessian (1995)
 Shifting diagonal of input Hessian by   9.932389081049932E-003
 Lowest  eigenvalues of input Hessian
    0.000000    0.000000    0.000000    0.000000    0.000000    0.000000
    0.010000    0.010064    0.010126    0.010273    0.010744    0.011059
    0.011311    0.012110    0.012181    0.012890    0.012995    0.013756
 Highest eigenvalues
    2.198173    2.200018    2.220416    2.220418    2.544957    3.435603
 

........................................................................
.............................. CYCLE   21 ..............................
........................................................................

 iter      E             dE          RMSdq      gap      omega  full diag
   1   -116.5732594 -0.116573E+03  0.531E-02    1.99       0.0  T
   2   -116.5732604 -0.989510E-06  0.311E-02    1.99       1.0  T
   3   -116.5732583  0.210274E-05  0.596E-03    1.99       2.1  T
   4   -116.5732608 -0.245381E-05  0.118E-03    1.99      10.3  T
   5   -116.5732608 -0.473708E-07  0.643E-04    1.99      19.0  T
   6   -116.5732608 -0.166339E-07  0.247E-04    1.99      49.5  T
     SCC iter.                  ...        0 min,  0.042 sec
     gradient                   ...        0 min,  0.008 sec
 * total energy  :  -114.7016048 Eh     change       -0.1116329E-03 Eh
   gradient norm :     0.0048263 Eh/α   predicted     0.0000000E+00 (-100.00%)
   displ. norm   :     0.0322384 α      lambda       -0.2374519E-04
   maximum displ.:     0.0198801 α      in ANC's #5, #18, #13, ...

........................................................................
.............................. CYCLE   22 ..............................
........................................................................

 iter      E             dE          RMSdq      gap      omega  full diag
   1   -116.5722758 -0.116572E+03  0.109E-02    2.00       0.0  T
   2   -116.5722760 -0.217214E-06  0.629E-03    2.00       1.9  T
   3   -116.5722752  0.834388E-06  0.381E-03    2.00       3.2  T
   4   -116.5722763 -0.108478E-05  0.618E-04    2.00      19.8  T
   5   -116.5722763 -0.129071E-07  0.246E-04    2.00      49.7  T
   6   -116.5722763 -0.113053E-08  0.116E-04    2.00     105.5  T
     SCC iter.                  ...        0 min,  0.041 sec
     gradient                   ...        0 min,  0.008 sec
 * total energy  :  -114.7016361 Eh     change       -0.3131890E-04 Eh
   gradient norm :     0.0024844 Eh/α   predicted    -0.1999604E-04 ( -36.15%)
   displ. norm   :     0.0694164 α      lambda       -0.4196068E-04
   maximum displ.:     0.0497241 α      in ANC's #5, #18, #13, ...

........................................................................
.............................. CYCLE   23 ..............................
........................................................................

 iter      E             dE          RMSdq      gap      omega  full diag
   1   -116.5714910 -0.116571E+03  0.184E-02    2.00       0.0  T
   2   -116.5714915 -0.423938E-06  0.105E-02    2.00       1.2  T
   3   -116.5714893  0.220485E-05  0.586E-03    2.00       2.1  T
   4   -116.5714920 -0.268668E-05  0.963E-04    2.00      12.7  T
   5   -116.5714920 -0.282883E-07  0.375E-04    2.00      32.5  T
   6   -116.5714920 -0.271355E-08  0.162E-04    2.00      75.2  T
     SCC iter.                  ...        0 min,  0.040 sec
     gradient                   ...        0 min,  0.008 sec
 * total energy  :  -114.7016617 Eh     change       -0.2552295E-04 Eh
   gradient norm :     0.0011727 Eh/α   predicted    -0.2108159E-04 ( -17.40%)
   displ. norm   :     0.0608771 α      lambda       -0.9551763E-05
   maximum displ.:     0.0485073 α      in ANC's #5, #6, #13, ...

........................................................................
.............................. CYCLE   24 ..............................
........................................................................

 iter      E             dE          RMSdq      gap      omega  full diag
   1   -116.5716394 -0.116572E+03  0.113E-02    2.00       0.0  T
   2   -116.5716394 -0.504390E-07  0.652E-03    2.00       1.9  T
   3   -116.5716392  0.233244E-06  0.187E-03    2.00       6.5  T
   4   -116.5716394 -0.253574E-06  0.531E-04    2.00      23.0  T
   5   -116.5716394 -0.156178E-07  0.169E-04    2.00      72.1  T
     SCC iter.                  ...        0 min,  0.034 sec
     gradient                   ...        0 min,  0.008 sec
 * total energy  :  -114.7016729 Eh     change       -0.1121812E-04 Eh
   gradient norm :     0.0017051 Eh/α   predicted    -0.4784019E-05 ( -57.35%)
   displ. norm   :     0.0580183 α      lambda       -0.9901141E-05
   maximum displ.:     0.0445309 α      in ANC's #5, #6, #1, ...

........................................................................
.............................. CYCLE   25 ..............................
........................................................................

 iter      E             dE          RMSdq      gap      omega  full diag
   1   -116.5720808 -0.116572E+03  0.101E-02    2.00       0.0  T
   2   -116.5720809 -0.834630E-07  0.593E-03    2.00       2.1  T
   3   -116.5720805  0.448574E-06  0.240E-03    2.00       5.1  T
   4   -116.5720810 -0.509784E-06  0.345E-04    2.00      35.4  T
   5   -116.5720810 -0.907333E-08  0.134E-04    2.00      91.1  T
     SCC iter.                  ...        0 min,  0.033 sec
     gradient                   ...        0 min,  0.008 sec
 * total energy  :  -114.7016853 Eh     change       -0.1240010E-04 Eh
   gradient norm :     0.0009741 Eh/α   predicted    -0.4958519E-05 ( -60.01%)
   displ. norm   :     0.0809326 α      lambda       -0.1038208E-04
   maximum displ.:     0.0590184 α      in ANC's #5, #1, #6, ...

........................................................................
.............................. CYCLE   26 ..............................
........................................................................

 iter      E             dE          RMSdq      gap      omega  full diag
   1   -116.5720131 -0.116572E+03  0.140E-02    2.00       0.0  T
   2   -116.5720132 -0.716065E-07  0.822E-03    2.00       1.5  T
   3   -116.5720127  0.510857E-06  0.245E-03    2.00       5.0  T
   4   -116.5720133 -0.571042E-06  0.294E-04    2.00      41.6  T
   5   -116.5720133 -0.441462E-08  0.146E-04    2.00      83.6  T
     SCC iter.                  ...        0 min,  0.034 sec
     gradient                   ...        0 min,  0.008 sec
 * total energy  :  -114.7016983 Eh     change       -0.1301970E-04 Eh
   gradient norm :     0.0006714 Eh/α   predicted    -0.5206233E-05 ( -60.01%)
   displ. norm   :     0.0963285 α      lambda       -0.9339528E-05
   maximum displ.:     0.0675024 α      in ANC's #5, #1, #6, ...

........................................................................
.............................. CYCLE   27 ..............................
........................................................................

 iter      E             dE          RMSdq      gap      omega  full diag
   1   -116.5718522 -0.116572E+03  0.162E-02    2.00       0.0  T
   2   -116.5718523 -0.558667E-07  0.949E-03    2.00       1.3  T
   3   -116.5718521  0.179442E-06  0.164E-03    2.00       7.5  T
   4   -116.5718523 -0.211197E-06  0.296E-04    2.00      41.2  T
   5   -116.5718523 -0.170485E-08  0.174E-04    2.00      70.1  T
     SCC iter.                  ...        0 min,  0.034 sec
     gradient                   ...        0 min,  0.008 sec
 * total energy  :  -114.7017100 Eh     change       -0.1171344E-04 Eh
   gradient norm :     0.0007698 Eh/α   predicted    -0.4690891E-05 ( -59.95%)
   displ. norm   :     0.1106421 α      lambda       -0.8426385E-05
   maximum displ.:     0.0750019 α      in ANC's #5, #1, #6, ...

........................................................................
.............................. CYCLE   28 ..............................
........................................................................

 iter      E             dE          RMSdq      gap      omega  full diag
   1   -116.5716405 -0.116572E+03  0.178E-02    2.01       0.0  T
   2   -116.5716406 -0.667557E-07  0.105E-02    2.01       1.2  T
   3   -116.5716405  0.101492E-06  0.147E-03    2.01       8.3  T
   4   -116.5716406 -0.133076E-06  0.303E-04    2.01      40.4  T
   5   -116.5716406 -0.265018E-09  0.155E-04    2.01      78.6  T
     SCC iter.                  ...        0 min,  0.039 sec
     gradient                   ...        0 min,  0.009 sec
 * total energy  :  -114.7017204 Eh     change       -0.1034514E-04 Eh
   gradient norm :     0.0006957 Eh/α   predicted    -0.4238168E-05 ( -59.03%)
   displ. norm   :     0.1290327 α      lambda       -0.7475916E-05
   maximum displ.:     0.0848696 α      in ANC's #5, #1, #6, ...

........................................................................
.............................. CYCLE   29 ..............................
........................................................................

 iter      E             dE          RMSdq      gap      omega  full diag
   1   -116.5714509 -0.116571E+03  0.201E-02    2.01       0.0  T
   2   -116.5714510 -0.855846E-07  0.118E-02    2.01       1.0  T
   3   -116.5714509  0.114915E-06  0.159E-03    2.01       7.7  T
   4   -116.5714510 -0.153881E-06  0.339E-04    2.01      36.0  T
   5   -116.5714510 -0.595378E-09  0.155E-04    2.01      78.6  T
     SCC iter.                  ...        0 min,  0.034 sec
     gradient                   ...        0 min,  0.008 sec
 * total energy  :  -114.7017288 Eh     change       -0.8425292E-05 Eh
   gradient norm :     0.0004825 Eh/α   predicted    -0.3768115E-05 ( -55.28%)
   displ. norm   :     0.1093570 α      lambda       -0.4158656E-05
   maximum displ.:     0.0687992 α      in ANC's #5, #1, #6, ...

........................................................................
.............................. CYCLE   30 ..............................
........................................................................

 iter      E             dE          RMSdq      gap      omega  full diag
   1   -116.5713557 -0.116571E+03  0.165E-02    2.01       0.0  T
   2   -116.5713558 -0.571989E-07  0.972E-03    2.01       1.3  T
   3   -116.5713557  0.692943E-07  0.124E-03    2.01       9.8  T
   4   -116.5713558 -0.943465E-07  0.274E-04    2.01      44.6  T
   5   -116.5713558 -0.501302E-09  0.126E-04    2.01      96.6  T
     SCC iter.                  ...        0 min,  0.033 sec
     gradient                   ...        0 min,  0.008 sec
 * total energy  :  -114.7017331 Eh     change       -0.4274192E-05 Eh
   gradient norm :     0.0002749 Eh/α   predicted    -0.2092184E-05 ( -51.05%)
   displ. norm   :     0.0409824 α      lambda       -0.1395358E-05
   maximum displ.:     0.0267089 α      in ANC's #1, #5, #13, ...

........................................................................
.............................. CYCLE   31 ..............................
........................................................................

 iter      E             dE          RMSdq      gap      omega  full diag
   1   -116.5714163 -0.116571E+03  0.623E-03    2.01       0.0  T
   2   -116.5714163 -0.794329E-08  0.366E-03    2.01       3.3  T
   3   -116.5714162  0.906094E-08  0.432E-04    2.01      28.3  T
   4   -116.5714163 -0.123038E-07  0.107E-04    2.01     114.4  T
     SCC iter.                  ...        0 min,  0.031 sec
     gradient                   ...        0 min,  0.008 sec
 * total energy  :  -114.7017348 Eh     change       -0.1705841E-05 Eh
   gradient norm :     0.0001653 Eh/α   predicted    -0.7011172E-06 ( -58.90%)
   displ. norm   :     0.0267717 α      lambda       -0.1344866E-05
   maximum displ.:     0.0176157 α      in ANC's #1, #13, #2, ...

........................................................................
.............................. CYCLE   32 ..............................
........................................................................

 iter      E             dE          RMSdq      gap      omega  full diag
   1   -116.5714595 -0.116571E+03  0.543E-03    2.02       0.0  T
   2   -116.5714596 -0.405969E-08  0.317E-03    2.02       3.8  T
   3   -116.5714595  0.168936E-07  0.446E-04    2.02      27.4  T
   4   -116.5714596 -0.197826E-07  0.879E-05    2.02     139.0  T
     SCC iter.                  ...        0 min,  0.027 sec
     gradient                   ...        0 min,  0.008 sec
 * total energy  :  -114.7017364 Eh     change       -0.1666758E-05 Eh
   gradient norm :     0.0001513 Eh/α   predicted    -0.6771799E-06 ( -59.37%)
   displ. norm   :     0.0346638 α      lambda       -0.1399769E-05
   maximum displ.:     0.0196056 α      in ANC's #1, #13, #2, ...

........................................................................
.............................. CYCLE   33 ..............................
........................................................................

 iter      E             dE          RMSdq      gap      omega  full diag
   1   -116.5714342 -0.116571E+03  0.708E-03    2.02       0.0  T
   2   -116.5714342 -0.527348E-08  0.414E-03    2.02       2.9  T
   3   -116.5714342  0.212563E-07  0.506E-04    2.02      24.1  T
   4   -116.5714342 -0.252493E-07  0.931E-05    2.02     131.3  T
     SCC iter.                  ...        0 min,  0.026 sec
     gradient                   ...        0 min,  0.008 sec
 * total energy  :  -114.7017381 Eh     change       -0.1631532E-05 Eh
   gradient norm :     0.0002181 Eh/α   predicted    -0.7006612E-06 ( -57.06%)
   displ. norm   :     0.0310688 α      lambda       -0.1020204E-05
   maximum displ.:     0.0182907 α      in ANC's #1, #2, #5, ...

........................................................................
.............................. CYCLE   34 ..............................
........................................................................

 iter      E             dE          RMSdq      gap      omega  full diag
   1   -116.5714131 -0.116571E+03  0.534E-03    2.01       0.0  T
   2   -116.5714131 -0.375177E-08  0.313E-03    2.01       3.9  T
   3   -116.5714131  0.141262E-07  0.426E-04    2.01      28.7  T
   4   -116.5714132 -0.164833E-07  0.698E-05    2.01     175.0  T
     SCC iter.                  ...        0 min,  0.028 sec
     gradient                   ...        0 min,  0.008 sec
 * total energy  :  -114.7017394 Eh     change       -0.1323056E-05 Eh
   gradient norm :     0.0002213 Eh/α   predicted    -0.5120938E-06 ( -61.29%)
   displ. norm   :     0.0340986 α      lambda       -0.1216807E-05
   maximum displ.:     0.0200682 α      in ANC's #1, #2, #5, ...

........................................................................
.............................. CYCLE   35 ..............................
........................................................................

 iter      E             dE          RMSdq      gap      omega  full diag
   1   -116.5713989 -0.116571E+03  0.492E-03    2.01       0.0  T
   2   -116.5713989 -0.442409E-08  0.288E-03    2.01       4.2  T
   3   -116.5713989  0.731330E-08  0.361E-04    2.01      33.8  T
   4   -116.5713989 -0.882521E-08  0.700E-05    2.01     174.6  T
     SCC iter.                  ...        0 min,  0.027 sec
     gradient                   ...        0 min,  0.008 sec
 * total energy  :  -114.7017411 Eh     change       -0.1694129E-05 Eh
   gradient norm :     0.0001688 Eh/α   predicted    -0.6114529E-06 ( -63.91%)
   displ. norm   :     0.0495700 α      lambda       -0.1945019E-05
   maximum displ.:     0.0293942 α      in ANC's #1, #2, #6, ...

........................................................................
.............................. CYCLE   36 ..............................
........................................................................

 iter      E             dE          RMSdq      gap      omega  full diag
   1   -116.5714199 -0.116571E+03  0.642E-03    2.01       0.0  T
   2   -116.5714199 -0.121320E-07  0.376E-03    2.01       3.2  T
   3   -116.5714199  0.160709E-07  0.606E-04    2.01      20.2  T
   4   -116.5714199 -0.194907E-07  0.999E-05    2.01     122.3  T
     SCC iter.                  ...        0 min,  0.027 sec
     gradient                   ...        0 min,  0.008 sec
 * total energy  :  -114.7017437 Eh     change       -0.2593083E-05 Eh
   gradient norm :     0.0001402 Eh/α   predicted    -0.9761255E-06 ( -62.36%)
   displ. norm   :     0.0704305 α      lambda       -0.2505988E-05
   maximum displ.:     0.0436994 α      in ANC's #1, #2, #6, ...

........................................................................
.............................. CYCLE   37 ..............................
........................................................................

 iter      E             dE          RMSdq      gap      omega  full diag
   1   -116.5714637 -0.116571E+03  0.868E-03    2.01       0.0  T
   2   -116.5714637 -0.235153E-07  0.509E-03    2.01       2.4  T
   3   -116.5714637  0.356118E-07  0.901E-04    2.01      13.6  T
   4   -116.5714637 -0.431678E-07  0.130E-04    2.01      93.8  T
     SCC iter.                  ...        0 min,  0.027 sec
     gradient                   ...        0 min,  0.008 sec
 * total energy  :  -114.7017469 Eh     change       -0.3230988E-05 Eh
   gradient norm :     0.0002112 Eh/α   predicted    -0.1259445E-05 ( -61.02%)
   displ. norm   :     0.0720376 α      lambda       -0.2246607E-05
   maximum displ.:     0.0481843 α      in ANC's #1, #2, #6, ...

........................................................................
.............................. CYCLE   38 ..............................
........................................................................

 iter      E             dE          RMSdq      gap      omega  full diag
   1   -116.5715342 -0.116572E+03  0.821E-03    2.01       0.0  T
   2   -116.5715342 -0.213715E-07  0.481E-03    2.01       2.5  T
   3   -116.5715342  0.382179E-07  0.918E-04    2.01      13.3  T
   4   -116.5715342 -0.457118E-07  0.130E-04    2.01      93.7  T
     SCC iter.                  ...        0 min,  0.027 sec
     gradient                   ...        0 min,  0.008 sec
 * total energy  :  -114.7017499 Eh     change       -0.2985938E-05 Eh
   gradient norm :     0.0002602 Eh/α   predicted    -0.1127244E-05 ( -62.25%)
   displ. norm   :     0.0656676 α      lambda       -0.2097963E-05
   maximum displ.:     0.0466915 α      in ANC's #1, #2, #6, ...

........................................................................
.............................. CYCLE   39 ..............................
........................................................................

 iter      E             dE          RMSdq      gap      omega  full diag
   1   -116.5715899 -0.116572E+03  0.699E-03    2.01       0.0  T
   2   -116.5715899 -0.104875E-07  0.410E-03    2.01       3.0  T
   3   -116.5715899  0.191245E-07  0.649E-04    2.01      18.8  T
   4   -116.5715899 -0.235045E-07  0.108E-04    2.01     112.9  T
     SCC iter.                  ...        0 min,  0.026 sec
     gradient                   ...        0 min,  0.008 sec
 * total energy  :  -114.7017529 Eh     change       -0.2966151E-05 Eh
   gradient norm :     0.0002409 Eh/α   predicted    -0.1052274E-05 ( -64.52%)
   displ. norm   :     0.0761899 α      lambda       -0.2685533E-05
   maximum displ.:     0.0548267 α      in ANC's #1, #2, #10, ...

........................................................................
.............................. CYCLE   40 ..............................
........................................................................

 iter      E             dE          RMSdq      gap      omega  full diag
   1   -116.5716410 -0.116572E+03  0.834E-03    2.01       0.0  T
   2   -116.5716410 -0.924069E-08  0.490E-03    2.01       2.5  T
   3   -116.5716410  0.120377E-07  0.532E-04    2.01      23.0  T
   4   -116.5716410 -0.166112E-07  0.128E-04    2.01      95.7  T
     SCC iter.                  ...        0 min,  0.027 sec
     gradient                   ...        0 min,  0.008 sec
 * total energy  :  -114.7017568 Eh     change       -0.3907711E-05 Eh
   gradient norm :     0.0001856 Eh/α   predicted    -0.1349988E-05 ( -65.45%)
   displ. norm   :     0.1199900 α      lambda       -0.4425671E-05
   maximum displ.:     0.0855757 α      in ANC's #1, #2, #10, ...

........................................................................
.............................. CYCLE   41 ..............................
........................................................................

 iter      E             dE          RMSdq      gap      omega  full diag
   1   -116.5716394 -0.116572E+03  0.137E-02    2.01       0.0  T
   2   -116.5716394 -0.189518E-07  0.805E-03    2.01       1.5  T
   3   -116.5716394  0.847214E-08  0.544E-04    2.01      22.5  T
   4   -116.5716394 -0.179255E-07  0.197E-04    2.01      62.1  T
     SCC iter.                  ...        0 min,  0.026 sec
     gradient                   ...        0 min,  0.008 sec
 * total energy  :  -114.7017631 Eh     change       -0.6367706E-05 Eh
   gradient norm :     0.0001572 Eh/α   predicted    -0.2229048E-05 ( -64.99%)
   displ. norm   :     0.1938183 α      lambda       -0.6964998E-05
   maximum displ.:     0.1371292 α      in ANC's #1, #2, #10, ...

........................................................................
.............................. CYCLE   42 ..............................
........................................................................

 iter      E             dE          RMSdq      gap      omega  full diag
   1   -116.5715744 -0.116572E+03  0.227E-02    2.01       0.0  T
   2   -116.5715745 -0.515081E-07  0.133E-02    2.01       1.0  T
   3   -116.5715745  0.216943E-07  0.844E-04    2.01      14.5  T
   4   -116.5715745 -0.476527E-07  0.319E-04    2.01      38.2  T
     SCC iter.                  ...        0 min,  0.027 sec
     gradient                   ...        0 min,  0.008 sec
 * total energy  :  -114.7017731 Eh     change       -0.9932617E-05 Eh
   gradient norm :     0.0002685 Eh/α   predicted    -0.3542985E-05 ( -64.33%)
   displ. norm   :     0.2983141 α      lambda       -0.1023636E-04
   maximum displ.:     0.2104979 α      in ANC's #1, #2, #10, ...
 * RMSD in coord.:     0.1775855 α      energy gain  -0.2798763E-03 Eh

generating ANC from exact Hessian ...
Using Lindh-Hessian (1995)
 Shifting diagonal of input Hessian by   9.932616805539645E-003
 Lowest  eigenvalues of input Hessian
    0.000000    0.000000    0.000000    0.000000    0.000000    0.000000
    0.010000    0.010063    0.010124    0.010266    0.010755    0.011052
    0.011317    0.012100    0.012173    0.012872    0.012979    0.013754
 Highest eigenvalues
    2.196320    2.198062    2.217874    2.217880    2.538539    3.430257
 

........................................................................
.............................. CYCLE   43 ..............................
........................................................................

 iter      E             dE          RMSdq      gap      omega  full diag
   1   -116.5713401 -0.116571E+03  0.352E-02    2.01       0.0  T
   2   -116.5713402 -0.127266E-06  0.207E-02    2.01       1.0  T
   3   -116.5713402  0.644041E-07  0.133E-03    2.01       9.2  T
   4   -116.5713403 -0.127936E-06  0.470E-04    2.01      26.0  T
   5   -116.5713403 -0.225039E-08  0.232E-04    2.01      52.6  T
     SCC iter.                  ...        0 min,  0.033 sec
     gradient                   ...        0 min,  0.008 sec
 * total energy  :  -114.7017876 Eh     change       -0.1452534E-04 Eh
   gradient norm :     0.0004603 Eh/α   predicted     0.0000000E+00 (-100.00%)
   displ. norm   :     0.0134289 α      lambda       -0.1133676E-05
   maximum displ.:     0.0083612 α      in ANC's #13, #1, #16, ...

........................................................................
.............................. CYCLE   44 ..............................
........................................................................

 iter      E             dE          RMSdq      gap      omega  full diag
   1   -116.5716940 -0.116572E+03  0.316E-03    2.01       0.0  T
   2   -116.5716940 -0.717810E-08  0.185E-03    2.01       6.6  T
   3   -116.5716940  0.344914E-07  0.702E-04    2.01      17.4  T
   4   -116.5716940 -0.395946E-07  0.959E-05    2.01     127.3  T
     SCC iter.                  ...        0 min,  0.028 sec
     gradient                   ...        0 min,  0.008 sec
 * total energy  :  -114.7017894 Eh     change       -0.1818975E-05 Eh
   gradient norm :     0.0002986 Eh/α   predicted    -0.6998580E-06 ( -61.52%)
   displ. norm   :     0.0488277 α      lambda       -0.3770052E-05
   maximum displ.:     0.0308693 α      in ANC's #13, #1, #16, ...

........................................................................
.............................. CYCLE   45 ..............................
........................................................................

 iter      E             dE          RMSdq      gap      omega  full diag
   1   -116.5717640 -0.116572E+03  0.110E-02    2.01       0.0  T
   2   -116.5717641 -0.639149E-07  0.642E-03    2.01       1.9  T
   3   -116.5717639  0.175026E-06  0.174E-03    2.01       7.0  T
   4   -116.5717641 -0.203953E-06  0.305E-04    2.01      40.0  T
   5   -116.5717641 -0.338375E-09  0.190E-04    2.01      64.4  T
     SCC iter.                  ...        0 min,  0.033 sec
     gradient                   ...        0 min,  0.008 sec
 * total energy  :  -114.7017929 Eh     change       -0.3469822E-05 Eh
   gradient norm :     0.0002433 Eh/α   predicted    -0.1887862E-05 ( -45.59%)
   displ. norm   :     0.0219542 α      lambda       -0.6086875E-06
   maximum displ.:     0.0154172 α      in ANC's #1, #13, #2, ...

........................................................................
.............................. CYCLE   46 ..............................
........................................................................

 iter      E             dE          RMSdq      gap      omega  full diag
   1   -116.5717086 -0.116572E+03  0.424E-03    2.01       0.0  T
   2   -116.5717086 -0.591554E-08  0.248E-03    2.01       4.9  T
   3   -116.5717086  0.171941E-07  0.497E-04    2.01      24.6  T
   4   -116.5717086 -0.198989E-07  0.107E-04    2.01     114.3  T
     SCC iter.                  ...        0 min,  0.027 sec
     gradient                   ...        0 min,  0.008 sec
 * total energy  :  -114.7017937 Eh     change       -0.8585232E-06 Eh
   gradient norm :     0.0002604 Eh/α   predicted    -0.3597228E-06 ( -58.10%)
   displ. norm   :     0.0180896 α      lambda       -0.6528341E-06
   maximum displ.:     0.0134092 α      in ANC's #1, #2, #13, ...

........................................................................
.............................. CYCLE   47 ..............................
........................................................................

 iter      E             dE          RMSdq      gap      omega  full diag
   1   -116.5716411 -0.116572E+03  0.291E-03    2.01       0.0  T
   2   -116.5716411 -0.293436E-08  0.170E-03    2.01       7.2  T
   3   -116.5716410  0.189674E-07  0.470E-04    2.01      26.0  T
   4   -116.5716411 -0.212249E-07  0.686E-05    2.01     178.1  T
     SCC iter.                  ...        0 min,  0.027 sec
     gradient                   ...        0 min,  0.008 sec
 * total energy  :  -114.7017947 Eh     change       -0.9226773E-06 Eh
   gradient norm :     0.0001828 Eh/α   predicted    -0.3313319E-06 ( -64.09%)
   displ. norm   :     0.0279441 α      lambda       -0.1101904E-05
   maximum displ.:     0.0199468 α      in ANC's #1, #2, #10, ...

........................................................................
.............................. CYCLE   48 ..............................
........................................................................

 iter      E             dE          RMSdq      gap      omega  full diag
   1   -116.5715400 -0.116572E+03  0.421E-03    2.01       0.0  T
   2   -116.5715400 -0.530554E-08  0.246E-03    2.01       5.0  T
   3   -116.5715400  0.956342E-08  0.396E-04    2.01      30.9  T
   4   -116.5715400 -0.105644E-07  0.127E-04    2.01      96.1  T
     SCC iter.                  ...        0 min,  0.026 sec
     gradient                   ...        0 min,  0.008 sec
 * total energy  :  -114.7017962 Eh     change       -0.1515713E-05 Eh
   gradient norm :     0.0001718 Eh/α   predicted    -0.5525303E-06 ( -63.55%)
   displ. norm   :     0.0439609 α      lambda       -0.1566806E-05
   maximum displ.:     0.0307367 α      in ANC's #1, #2, #10, ...

........................................................................
.............................. CYCLE   49 ..............................
........................................................................

 iter      E             dE          RMSdq      gap      omega  full diag
   1   -116.5715074 -0.116572E+03  0.661E-03    2.01       0.0  T
   2   -116.5715074 -0.103422E-07  0.386E-03    2.01       3.2  T
   3   -116.5715074  0.364160E-08  0.354E-04    2.01      34.5  T
   4   -116.5715074 -0.507633E-08  0.171E-04    2.01      71.3  T
     SCC iter.                  ...        0 min,  0.027 sec
     gradient                   ...        0 min,  0.008 sec
 * total energy  :  -114.7017983 Eh     change       -0.2133786E-05 Eh
   gradient norm :     0.0003131 Eh/α   predicted    -0.7871672E-06 ( -63.11%)
   displ. norm   :     0.0589752 α      lambda       -0.1903033E-05
   maximum displ.:     0.0409777 α      in ANC's #1, #2, #10, ...

........................................................................
.............................. CYCLE   50 ..............................
........................................................................

 iter      E             dE          RMSdq      gap      omega  full diag
   1   -116.5714722 -0.116571E+03  0.882E-03    2.01       0.0  T
   2   -116.5714722 -0.162144E-07  0.516E-03    2.01       2.4  T
   3   -116.5714722  0.189581E-07  0.582E-04    2.01      21.0  T
   4   -116.5714722 -0.217478E-07  0.227E-04    2.01      53.8  T
     SCC iter.                  ...        0 min,  0.028 sec
     gradient                   ...        0 min,  0.008 sec
 * total energy  :  -114.7018010 Eh     change       -0.2661037E-05 Eh
   gradient norm :     0.0004201 Eh/α   predicted    -0.9549843E-06 ( -64.11%)
   displ. norm   :     0.0739371 α      lambda       -0.2340037E-05
   maximum displ.:     0.0513116 α      in ANC's #1, #2, #10, ...

........................................................................
.............................. CYCLE   51 ..............................
........................................................................

 iter      E             dE          RMSdq      gap      omega  full diag
   1   -116.5714901 -0.116571E+03  0.110E-02    2.01       0.0  T
   2   -116.5714902 -0.224064E-07  0.646E-03    2.01       1.9  T
   3   -116.5714901  0.515604E-07  0.855E-04    2.01      14.3  T
   4   -116.5714902 -0.596674E-07  0.207E-04    2.01      58.9  T
     SCC iter.                  ...        0 min,  0.027 sec
     gradient                   ...        0 min,  0.008 sec
 * total energy  :  -114.7018043 Eh     change       -0.3358643E-05 Eh
   gradient norm :     0.0004337 Eh/α   predicted    -0.1176067E-05 ( -64.98%)
   displ. norm   :     0.0968211 α      lambda       -0.3124172E-05
   maximum displ.:     0.0672180 α      in ANC's #1, #2, #10, ...

........................................................................
.............................. CYCLE   52 ..............................
........................................................................

 iter      E             dE          RMSdq      gap      omega  full diag
   1   -116.5715294 -0.116572E+03  0.142E-02    2.01       0.0  T
   2   -116.5715295 -0.364725E-07  0.832E-03    2.01       1.5  T
   3   -116.5715293  0.112780E-06  0.122E-03    2.01      10.0  T
   4   -116.5715295 -0.130226E-06  0.209E-04    2.01      58.4  T
   5   -116.5715295 -0.210619E-08  0.107E-04    2.01     114.1  T
     SCC iter.                  ...        0 min,  0.035 sec
     gradient                   ...        0 min,  0.009 sec
 * total energy  :  -114.7018088 Eh     change       -0.4500096E-05 Eh
   gradient norm :     0.0003736 Eh/α   predicted    -0.1572897E-05 ( -65.05%)
   displ. norm   :     0.1322496 α      lambda       -0.4262420E-05
   maximum displ.:     0.0919770 α      in ANC's #1, #2, #10, ...

........................................................................
.............................. CYCLE   53 ..............................
........................................................................

 iter      E             dE          RMSdq      gap      omega  full diag
   1   -116.5715652 -0.116572E+03  0.189E-02    2.01       0.0  T
   2   -116.5715653 -0.608769E-07  0.111E-02    2.01       1.1  T
   3   -116.5715651  0.149756E-06  0.146E-03    2.01       8.4  T
   4   -116.5715653 -0.179454E-06  0.240E-04    2.01      50.9  T
   5   -116.5715653 -0.140817E-08  0.146E-04    2.01      83.8  T
     SCC iter.                  ...        0 min,  0.034 sec
     gradient                   ...        0 min,  0.008 sec
 * total energy  :  -114.7018149 Eh     change       -0.6085652E-05 Eh
   gradient norm :     0.0002686 Eh/α   predicted    -0.2152823E-05 ( -64.62%)
   displ. norm   :     0.1718734 α      lambda       -0.5376679E-05
   maximum displ.:     0.1199782 α      in ANC's #1, #2, #10, ...

........................................................................
.............................. CYCLE   54 ..............................
........................................................................

 iter      E             dE          RMSdq      gap      omega  full diag
   1   -116.5716007 -0.116572E+03  0.237E-02    2.01       0.0  T
   2   -116.5716008 -0.873434E-07  0.140E-02    2.02       1.0  T
   3   -116.5716007  0.168442E-06  0.159E-03    2.02       7.7  T
   4   -116.5716009 -0.210206E-06  0.290E-04    2.02      42.2  T
   5   -116.5716009 -0.114076E-08  0.182E-04    2.02      67.1  T
     SCC iter.                  ...        0 min,  0.033 sec
     gradient                   ...        0 min,  0.008 sec
 * total energy  :  -114.7018226 Eh     change       -0.7642100E-05 Eh
   gradient norm :     0.0002279 Eh/α   predicted    -0.2728161E-05 ( -64.30%)
   displ. norm   :     0.2029785 α      lambda       -0.6143805E-05
   maximum displ.:     0.1420784 α      in ANC's #1, #2, #10, ...

........................................................................
.............................. CYCLE   55 ..............................
........................................................................

 iter      E             dE          RMSdq      gap      omega  full diag
   1   -116.5715739 -0.116572E+03  0.272E-02    2.02       0.0  T
   2   -116.5715739 -0.983883E-07  0.160E-02    2.02       1.0  T
   3   -116.5715738  0.133436E-06  0.149E-03    2.02       8.2  T
   4   -116.5715740 -0.181345E-06  0.324E-04    2.02      37.8  T
   5   -116.5715740 -0.354802E-09  0.187E-04    2.02      65.2  T
     SCC iter.                  ...        0 min,  0.033 sec
     gradient                   ...        0 min,  0.008 sec
 * total energy  :  -114.7018314 Eh     change       -0.8799790E-05 Eh
   gradient norm :     0.0002984 Eh/α   predicted    -0.3131175E-05 ( -64.42%)
   displ. norm   :     0.2252757 α      lambda       -0.6808832E-05
   maximum displ.:     0.1581698 α      in ANC's #1, #2, #10, ...

........................................................................
.............................. CYCLE   56 ..............................
........................................................................

 iter      E             dE          RMSdq      gap      omega  full diag
   1   -116.5715670 -0.116572E+03  0.289E-02    2.02       0.0  T
   2   -116.5715671 -0.104228E-06  0.170E-02    2.02       1.0  T
   3   -116.5715670  0.116430E-06  0.144E-03    2.02       8.5  T
   4   -116.5715672 -0.168089E-06  0.341E-04    2.02      35.9  T
   5   -116.5715672 -0.303089E-09  0.176E-04    2.02      69.3  T
     SCC iter.                  ...        0 min,  0.034 sec
     gradient                   ...        0 min,  0.008 sec
 * total energy  :  -114.7018412 Eh     change       -0.9896202E-05 Eh
   gradient norm :     0.0003856 Eh/α   predicted    -0.3482637E-05 ( -64.81%)
   displ. norm   :     0.2576093 α      lambda       -0.8062460E-05
   maximum displ.:     0.1811740 α      in ANC's #1, #2, #10, ...

........................................................................
.............................. CYCLE   57 ..............................
........................................................................

 iter      E             dE          RMSdq      gap      omega  full diag
   1   -116.5715173 -0.116572E+03  0.319E-02    2.02       0.0  T
   2   -116.5715174 -0.114581E-06  0.188E-02    2.02       1.0  T
   3   -116.5715173  0.967006E-07  0.141E-03    2.02       8.7  T
   4   -116.5715175 -0.155134E-06  0.380E-04    2.02      32.2  T
   5   -116.5715175 -0.433459E-09  0.175E-04    2.02      69.7  T
     SCC iter.                  ...        0 min,  0.033 sec
     gradient                   ...        0 min,  0.008 sec
 * total energy  :  -114.7018531 Eh     change       -0.1185352E-04 Eh
   gradient norm :     0.0004466 Eh/α   predicted    -0.4153087E-05 ( -64.96%)
   displ. norm   :     0.3151821 α      lambda       -0.1037946E-04
   maximum displ.:     0.2219717 α      in ANC's #1, #2, #10, ...

........................................................................
.............................. CYCLE   58 ..............................
........................................................................

 iter      E             dE          RMSdq      gap      omega  full diag
   1   -116.5714009 -0.116571E+03  0.378E-02    2.02       0.0  T
   2   -116.5714011 -0.153205E-06  0.222E-02    2.02       1.0  T
   3   -116.5714009  0.111907E-06  0.159E-03    2.02       7.7  T
   4   -116.5714011 -0.191045E-06  0.453E-04    2.02      27.0  T
   5   -116.5714011 -0.516948E-09  0.208E-04    2.02      58.8  T
     SCC iter.                  ...        0 min,  0.033 sec
     gradient                   ...        0 min,  0.008 sec
 * total energy  :  -114.7018684 Eh     change       -0.1534246E-04 Eh
   gradient norm :     0.0004926 Eh/α   predicted    -0.5419280E-05 ( -64.68%)
   displ. norm   :     0.4180669 α      lambda       -0.1441642E-04
   maximum displ.:     0.2948024 α      in ANC's #1, #2, #10, ...

........................................................................
.............................. CYCLE   59 ..............................
........................................................................

 iter      E             dE          RMSdq      gap      omega  full diag
   1   -116.5711019 -0.116571E+03  0.488E-02    2.02       0.0  T
   2   -116.5711021 -0.248460E-06  0.287E-02    2.02       1.0  T
   3   -116.5711020  0.169074E-06  0.202E-03    2.02       6.0  T
   4   -116.5711023 -0.296721E-06  0.607E-04    2.02      20.1  T
   5   -116.5711023 -0.678284E-09  0.328E-04    2.02      37.2  T
     SCC iter.                  ...        0 min,  0.034 sec
     gradient                   ...        0 min,  0.008 sec
 * total energy  :  -114.7018896 Eh     change       -0.2118205E-04 Eh
   gradient norm :     0.0005582 Eh/α   predicted    -0.7769210E-05 ( -63.32%)
   displ. norm   :     0.5978266 α      lambda       -0.2111335E-04
   maximum displ.:     0.4220974 α      in ANC's #1, #2, #10, ...

........................................................................
.............................. CYCLE   60 ..............................
........................................................................

 iter      E             dE          RMSdq      gap      omega  full diag
   1   -116.5703246 -0.116570E+03  0.684E-02    2.02       0.0  T
   2   -116.5703251 -0.491657E-06  0.402E-02    2.02       1.0  T
   3   -116.5703246  0.448183E-06  0.307E-03    2.02       4.0  T
   4   -116.5703253 -0.700706E-06  0.895E-04    2.02      13.7  T
   5   -116.5703253 -0.409258E-08  0.534E-04    2.02      22.9  T
     SCC iter.                  ...        0 min,  0.033 sec
     gradient                   ...        0 min,  0.008 sec
 * total energy  :  -114.7019198 Eh     change       -0.3018639E-04 Eh
   gradient norm :     0.0008503 Eh/α   predicted    -0.1223270E-04 ( -59.48%)
   displ. norm   :     1.0081231 α      lambda       -0.3483869E-04
   maximum displ.:     0.7121653 α      in ANC's #1, #2, #10, ...

........................................................................
.............................. CYCLE   61 ..............................
........................................................................

 iter      E             dE          RMSdq      gap      omega  full diag
   1   -116.5676457 -0.116568E+03  0.114E-01    2.02       0.0  T
   2   -116.5676471 -0.146815E-05  0.668E-02    2.02       1.0  T
   3   -116.5676441  0.299438E-05  0.679E-03    2.02       1.8  T
   4   -116.5676479 -0.381235E-05  0.159E-03    2.02       7.7  T
   5   -116.5676480 -0.421915E-07  0.968E-04    2.02      12.6  T
   6   -116.5676480 -0.286334E-07  0.395E-04    2.02      30.9  T
     SCC iter.                  ...        0 min,  0.039 sec
     gradient                   ...        0 min,  0.008 sec
 * total energy  :  -114.7019620 Eh     change       -0.4222103E-04 Eh
   gradient norm :     0.0021117 Eh/α   predicted    -0.2528489E-04 ( -40.11%)
   displ. norm   :     0.5485326 α      lambda       -0.2870521E-04
   maximum displ.:     0.3888417 α      in ANC's #1, #2, #13, ...

........................................................................
.............................. CYCLE   62 ..............................
........................................................................

 iter      E             dE          RMSdq      gap      omega  full diag
   1   -116.5671778 -0.116567E+03  0.596E-02    2.02       0.0  T
   2   -116.5671782 -0.418847E-06  0.350E-02    2.02       1.0  T
   3   -116.5671774  0.801589E-06  0.361E-03    2.02       3.4  T
   4   -116.5671784 -0.102906E-05  0.856E-04    2.02      14.3  T
   5   -116.5671784 -0.100326E-07  0.525E-04    2.02      23.3  T
   6   -116.5671785 -0.885986E-08  0.219E-04    2.02      55.7  T
     SCC iter.                  ...        0 min,  0.040 sec
     gradient                   ...        0 min,  0.008 sec
[...]
     7   6 C       22   6 C                                       1.3955192
     4   6 C       23   6 C                                       1.3828840
    22   6 C       23   6 C                                       1.3811335
     2  16 S       24   6 C                                       1.7950638
    24   6 C       25   6 C                                       1.3828845
    25   6 C       26   6 C                                       1.3811334
    26   6 C       27   6 C                                       1.3955194
    27   6 C       28   7 N                                       1.4066206
    28   7 N       29   6 C                                       1.3996697
    29   6 C       30   6 C                                       1.3887817
    30   6 C       31   6 C                                       1.3866773
    31   6 C       32   6 C                                       1.3801314
    32   6 C       33   6 C                                       1.3867763
    29   6 C       34   6 C                                       1.4006264
    33   6 C       34   6 C                                       1.3827029
    34   6 C       35   8 O                                       1.3726084
    35   8 O       36   6 C                                       1.3713539
    36   6 C       37   6 C                                       1.3828514
    37   6 C       38   6 C                                       1.3868244
    38   6 C       39   6 C                                       1.3799118
    39   6 C       40   6 C                                       1.3869498
    28   7 N       41   6 C                                       1.3993860
    36   6 C       41   6 C                                       1.4013476
    40   6 C       41   6 C                                       1.3892962
    27   6 C       42   6 C                                       1.3944848
    24   6 C       43   6 C                                       1.3816906
    42   6 C       43   6 C                                       1.3824248
     5   6 C       44   1 H                                       1.0787308
     6   6 C       45   1 H                                       1.0796882
    10   6 C       46   1 H                                       1.0786701
    11   6 C       47   1 H                                       1.0789053
    12   6 C       48   1 H                                       1.0783677
    13   6 C       49   1 H                                       1.0781705
    17   6 C       50   1 H                                       1.0781437
    18   6 C       51   1 H                                       1.0783808
    19   6 C       52   1 H                                       1.0792813
    20   6 C       53   1 H                                       1.0789946
    22   6 C       54   1 H                                       1.0796351
    23   6 C       55   1 H                                       1.0785553
    25   6 C       56   1 H                                       1.0785549
    26   6 C       57   1 H                                       1.0796349
    30   6 C       58   1 H                                       1.0786698
    31   6 C       59   1 H                                       1.0789050
    32   6 C       60   1 H                                       1.0783674
    33   6 C       61   1 H                                       1.0781703
    37   6 C       62   1 H                                       1.0781437 (min)
    38   6 C       63   1 H                                       1.0783807
    39   6 C       64   1 H                                       1.0792812
    40   6 C       65   1 H                                       1.0789946
    42   6 C       66   1 H                                       1.0796882
    43   6 C       67   1 H                                       1.0787306

 * 6 distinct bonds (by element types)

   Z      Z             #   av. dist./Å        max./Å        min./Å
   1 H    6 C          24     1.0787935     1.0796882     1.0781437
   6 C    6 C          36     1.3872786     1.4013477     1.3799118
   6 C    7 N           6     1.4018921     1.4066207     1.3993858
   6 C    8 O           4     1.3719811     1.3726084     1.3713539
   6 C   16 S           2     1.7950640     1.7950642     1.7950638
   8 O   16 S           2     1.4376242     1.4376243     1.4376241

           -------------------------------------------------
          |               Frequency Printout                |
           -------------------------------------------------
 projected vibrational frequencies (cm⁻¹)
eigval :       -0.00    -0.00     0.00     0.00     0.00     0.00
eigval :        4.32    10.45    19.09    24.79    30.31    32.94
eigval :       44.48    51.37    56.69    61.37    66.53   105.28
eigval :      116.33   117.14   120.26   126.83   152.49   153.94
eigval :      194.01   196.91   196.91   246.53   249.25   256.94
eigval :      263.20   269.92   272.70   279.42   300.55   356.54
eigval :      361.84   361.96   368.74   373.49   373.84   387.30
eigval :      403.70   409.12   413.13   421.04   424.55   431.10
eigval :      431.30   446.55   447.91   472.42   491.88   509.93
eigval :      510.78   515.90   522.00   523.39   530.39   553.14
eigval :      553.76   586.40   587.92   596.49   603.22   604.76
eigval :      604.92   655.94   658.11   661.44   661.51   662.21
eigval :      663.00   683.52   687.81   714.47   726.97   779.57
eigval :      780.04   780.09   782.99   803.16   803.58   812.34
eigval :      818.15   855.60   856.13   864.90   865.13   867.39
eigval :      867.43   880.21   882.37   898.19   899.26   899.79
eigval :      900.20   911.16   913.16   914.48   915.84   916.07
eigval :      917.36   917.57   919.75   922.90   926.31   931.33
eigval :      932.68  1003.50  1006.43  1086.49  1090.19  1090.52
eigval :     1091.36  1092.20  1107.90  1108.25  1108.71  1112.73
eigval :     1117.40  1120.67  1124.41  1135.41  1166.52  1169.04
eigval :     1171.82  1174.75  1175.61  1177.69  1186.46  1190.30
eigval :     1200.62  1203.55  1223.53  1224.30  1239.84  1240.74
eigval :     1244.71  1247.51  1254.12  1261.69  1262.66  1307.26
eigval :     1309.39  1309.97  1311.94  1317.86  1318.42  1336.75
eigval :     1337.59  1354.07  1354.33  1395.24  1396.45  1423.74
eigval :     1423.86  1441.45  1441.73  1459.26  1459.57  1486.61
eigval :     1489.41  1503.66  1504.78  1567.71  1567.78  1571.18
eigval :     1572.27  1573.32  1574.69  1580.75  1580.91  1590.62
eigval :     1590.86  1602.61  1602.87  3087.38  3088.16  3091.72
eigval :     3091.80  3092.22  3092.31  3092.65  3093.03  3097.61
eigval :     3098.38  3100.68  3100.69  3104.29  3104.71  3105.23
eigval :     3105.66  3106.61  3106.77  3107.58  3107.60  3114.57
eigval :     3114.58  3115.11  3115.11
 reduced masses (amu)
   1: 15.73   2: 12.26   3: 12.90   4: 12.15   5: 13.41   6: 12.50   7: 11.97   8: 12.13
   9: 11.59  10: 11.42  11: 12.66  12: 11.35  13: 11.42  14: 12.34  15: 11.85  16: 10.04
  17:  9.98  18: 13.48  19: 12.25  20: 10.20  21: 10.64  22: 11.91  23: 14.43  24: 15.38
  25: 12.70  26: 12.23  27: 12.29  28: 11.00  29: 10.95  30: 11.49  31: 12.18  32: 12.27
  33: 11.80  34: 12.58  35: 12.85  36: 14.09  37: 11.13  38: 12.41  39: 12.50  40:  9.27
  41:  9.12  42: 11.08  43: 11.49  44: 11.54  45: 13.47  46: 11.73  47: 10.86  48:  9.83
  49:  9.86  50: 10.72  51: 11.12  52: 12.65  53: 12.57  54: 10.26  55: 10.59  56: 18.05
  57: 10.98  58: 10.79  59: 16.76  60: 11.29  61: 12.80  62: 11.34  63: 11.20  64: 12.89
  65: 11.45  66: 12.46  67: 12.94  68: 11.92  69: 12.01  70: 11.76  71: 11.77  72: 11.76
  73: 11.95  74: 11.45  75: 11.35  76: 11.92  77: 13.55  78:  3.26  79:  3.26  80:  3.25
  81:  3.26  82: 12.41  83: 12.25  84:  5.07  85:  4.75  86: 12.44  87: 12.43  88:  3.32
  89:  3.33  90:  3.29  91:  3.30  92:  3.26  93:  3.24  94:  3.86  95:  3.82  96:  3.86
  97:  3.85  98: 11.45  99:  5.65 100:  9.98 101:  3.41 102:  3.36 103: 10.09 104: 11.09
 105:  3.25 106:  3.51 107:  3.30 108:  3.72 109:  3.82 110:  9.94 111:  9.57 112: 11.92
 113:  5.48 114:  5.53 115:  5.91 116:  5.97 117:  7.14 118:  8.48 119:  8.40 120:  2.90
 121:  2.95 122:  9.77 123:  8.97 124: 13.53 125:  2.72 126:  3.29 127:  2.00 128:  2.51
 129:  2.24 130:  2.92 131:  5.31 132:  4.80 133:  7.14 134:  6.78 135:  8.92 136:  8.82
 137:  8.26 138:  3.89 139: 10.45 140:  4.02 141: 12.26 142:  4.77 143:  4.73 144: 11.27
 145: 11.67 146: 11.79 147: 11.25 148: 11.58 149: 11.58 150: 10.30 151: 10.20 152: 11.02
 153: 10.99 154: 10.07 155: 10.05 156:  9.37 157:  9.34 158:  9.46 159:  9.45 160:  9.62
 161:  9.62 162: 10.71 163: 10.76 164: 10.53 165: 10.54 166: 11.48 167: 11.48 168: 11.49
 169: 11.49 170: 11.74 171: 11.75 172: 11.60 173: 11.59 174: 11.62 175: 11.61 176: 11.73
 177: 11.73 178:  1.77 179:  1.77 180:  1.79 181:  1.78 182:  1.78 183:  1.79 184:  1.79
 185:  1.80 186:  1.82 187:  1.82 188:  1.81 189:  1.81 190:  1.86 191:  1.86 192:  1.87
 193:  1.88 194:  1.87 195:  1.87 196:  1.87 197:  1.87 198:  1.89 199:  1.89 200:  1.89
 201:  1.89
 IR intensities (km·mol⁻¹)
   1:  0.10   2:  0.06   3:  0.05   4:  0.02   5:  0.01   6:  0.02   7:  0.00   8:  0.09
   9:  0.00  10:  0.40  11:  1.04  12:  0.01  13:  0.01  14:  0.46  15:  0.27  16:  1.62
  17:  3.97  18:  6.41  19:  0.08  20:  1.35  21:  1.17  22:  5.06  23:  0.02  24:  1.28
  25:  0.00  26:  0.17  27:  0.03  28:  0.72  29:  1.79  30:  5.45  31:  0.05  32:  0.06
  33:  3.61  34: 10.44  35:  0.32  36:  0.65  37:  0.07  38: 25.70  39: 11.37  40:  1.90
  41:  6.28  42:  0.06  43: 18.17  44: 11.94  45:  2.99  46:  2.18  47:  0.03  48:  1.32
  49:  0.54  50:  0.18  51:  9.56  52: 11.67  53:  3.38  54:  6.56  55: 10.22  56: 84.73
  57:  4.04  58:  1.33  59:117.51  60: 20.93  61: 83.88  62:  1.76  63:  5.96  64: 26.80
  65:  0.00  66: 63.48  67: 54.94  68:  4.42  69: 14.70  70:  0.27  71:  1.12  72:  9.30
  73: 42.19  74:  7.32  75:  0.73  76:  7.88  77: 86.11  78: 73.44  79: 84.44  80:  2.18
  81:  0.03  82: 11.10  83:  2.08  84:  1.69  85:  1.32  86: 15.08  87:  8.94  88:  0.29
  89:  0.37  90:  0.13  91:  2.82  92:  2.89  93:  2.34  94:  2.18  95:  0.00  96:  5.12
  97:  0.07  98:  4.50  99:  0.56 100: 21.96 101:  1.69 102:  0.07 103: 34.41 104: 23.11
 105:  0.51 106:  5.22 107:  0.26 108:  0.30 109:  0.47 110:  4.39 111:  0.96 112:140.12
 113:  0.12 114:  1.66 115: 11.95 116: 19.81 117: 93.51 118:  0.62 119:  2.85 120:  0.18
 121: 15.45 122:205.58 123:  1.36 124:258.27 125:  7.60 126:  0.58 127:  0.63 128:  4.98
 129:  0.72 130:  0.07 131: 11.69 132:  4.58 133: 11.16 134:  7.13 135: 65.34 136: 46.67
 137:111.17 138:  0.96 139:119.71 140: 11.55 141:145.25 142:  0.90 143:  0.67 144: 78.91
 145:457.05 146:147.94 147:244.81 148:  6.71 149: 94.18 150:229.42 151:135.49 152: 25.23
 153: 24.97 154:  1.59 155:  2.02 156:  0.13 157:  0.09 158: 11.74 159:  8.09 160: 66.92
 161: 49.08 162:745.54 163:437.98 164: 45.87 165: 33.00 166:  2.74 167:  5.71 168:154.08
 169:130.83 170:  4.34 171: 18.98 172: 11.34 173:  7.74 174: 29.97 175: 27.19 176: 11.83
 177:  9.29 178:  4.86 179:  3.64 180:  0.96 181: 17.96 182:  0.53 183: 11.88 184: 12.19
 185: 14.19 186: 11.50 187: 35.26 188: 50.90 189:  1.32 190:  5.34 191: 88.91 192:  0.06
 193:  0.02 194:  0.00 195: 23.93 196: 74.69 197:  0.93 198: 14.46 199: 29.59 200: 29.54
 201: 29.61
 Raman intensities (Ä⁴*amu⁻¹)
   1:  0.00   2:  0.00   3:  0.00   4:  0.00   5:  0.00   6:  0.00   7:  0.00   8:  0.00
   9:  0.00  10:  0.00  11:  0.00  12:  0.00  13:  0.00  14:  0.00  15:  0.00  16:  0.00
  17:  0.00  18:  0.00  19:  0.00  20:  0.00  21:  0.00  22:  0.00  23:  0.00  24:  0.00
  25:  0.00  26:  0.00  27:  0.00  28:  0.00  29:  0.00  30:  0.00  31:  0.00  32:  0.00
  33:  0.00  34:  0.00  35:  0.00  36:  0.00  37:  0.00  38:  0.00  39:  0.00  40:  0.00
  41:  0.00  42:  0.00  43:  0.00  44:  0.00  45:  0.00  46:  0.00  47:  0.00  48:  0.00
  49:  0.00  50:  0.00  51:  0.00  52:  0.00  53:  0.00  54:  0.00  55:  0.00  56:  0.00
  57:  0.00  58:  0.00  59:  0.00  60:  0.00  61:  0.00  62:  0.00  63:  0.00  64:  0.00
  65:  0.00  66:  0.00  67:  0.00  68:  0.00  69:  0.00  70:  0.00  71:  0.00  72:  0.00
  73:  0.00  74:  0.00  75:  0.00  76:  0.00  77:  0.00  78:  0.00  79:  0.00  80:  0.00
  81:  0.00  82:  0.00  83:  0.00  84:  0.00  85:  0.00  86:  0.00  87:  0.00  88:  0.00
  89:  0.00  90:  0.00  91:  0.00  92:  0.00  93:  0.00  94:  0.00  95:  0.00  96:  0.00
  97:  0.00  98:  0.00  99:  0.00 100:  0.00 101:  0.00 102:  0.00 103:  0.00 104:  0.00
 105:  0.00 106:  0.00 107:  0.00 108:  0.00 109:  0.00 110:  0.00 111:  0.00 112:  0.00
 113:  0.00 114:  0.00 115:  0.00 116:  0.00 117:  0.00 118:  0.00 119:  0.00 120:  0.00
 121:  0.00 122:  0.00 123:  0.00 124:  0.00 125:  0.00 126:  0.00 127:  0.00 128:  0.00
 129:  0.00 130:  0.00 131:  0.00 132:  0.00 133:  0.00 134:  0.00 135:  0.00 136:  0.00
 137:  0.00 138:  0.00 139:  0.00 140:  0.00 141:  0.00 142:  0.00 143:  0.00 144:  0.00
 145:  0.00 146:  0.00 147:  0.00 148:  0.00 149:  0.00 150:  0.00 151:  0.00 152:  0.00
 153:  0.00 154:  0.00 155:  0.00 156:  0.00 157:  0.00 158:  0.00 159:  0.00 160:  0.00
 161:  0.00 162:  0.00 163:  0.00 164:  0.00 165:  0.00 166:  0.00 167:  0.00 168:  0.00
 169:  0.00 170:  0.00 171:  0.00 172:  0.00 173:  0.00 174:  0.00 175:  0.00 176:  0.00
 177:  0.00 178:  0.00 179:  0.00 180:  0.00 181:  0.00 182:  0.00 183:  0.00 184:  0.00
 185:  0.00 186:  0.00 187:  0.00 188:  0.00 189:  0.00 190:  0.00 191:  0.00 192:  0.00
 193:  0.00 194:  0.00 195:  0.00 196:  0.00 197:  0.00 198:  0.00 199:  0.00 200:  0.00
 201:  0.00
 output can be read by thermo (or use thermo option).
 writing <g98.out> molden fake output.
 recommended (thermochemical) frequency scaling factor: 1.0
           -------------------------------------------------
          |             Thermodynamic Functions             |
           -------------------------------------------------

Molecule has the following symmetry elements: (C2) 
It seems to be the C2 point group
c2  symmetry found (for desy threshold:  0.10E+00) used in thermo

          ...................................................
          :                      SETUP                      :
          :.................................................:
          :  # frequencies                         195      :
          :  # imaginary freq.                       0      :
          :  linear?                             false      :
          :  only rotor calc.                    false      :
          :  symmetry                               c2      :
          :  rotational number                       2      :
          :  scaling factor                  1.0000000      :
          :  rotor cutoff                   50.0000000 cm⁻¹ :
          :  imag. cutoff                  -20.0000000 cm⁻¹ :
          :.................................................:

    mode    ω/cm⁻¹     T·S(HO)/kcal·mol⁻¹    T·S(FR)/kcal·mol⁻¹   T·S(vib)
   ------------------------------------------------------------------------
       1      4.32    -2.88569 (  0.01%)    -1.78185 ( 99.99%)    -1.78191
       2     10.45    -2.36250 (  0.19%)    -1.52029 ( 99.81%)    -1.52189
       3     19.09    -2.00563 (  2.08%)    -1.34180 ( 97.92%)    -1.35561
       4     24.79    -1.85089 (  5.70%)    -1.26437 ( 94.30%)    -1.29779
       5     30.31    -1.73196 ( 11.90%)    -1.20482 ( 88.10%)    -1.26753
       6     32.94    -1.68274 ( 15.85%)    -1.18016 ( 84.15%)    -1.25983
       7     44.48    -1.50529 ( 38.51%)    -1.09119 ( 61.49%)    -1.25067
       8     51.37    -1.42032 ( 52.71%)    -1.04851 ( 47.29%)    -1.24448
       9     56.69    -1.36229 ( 62.30%)    -1.01933 ( 37.70%)    -1.23301
      10     61.37    -1.31563 ( 69.41%)    -0.99585 ( 30.59%)    -1.21782
      11     66.53    -1.26813 ( 75.82%)    -0.97191 ( 24.18%)    -1.19650
      12    105.28    -1.00002 ( 95.16%)    -0.83596 (  4.84%)    -0.99208
      13    116.33    -0.94226 ( 96.70%)    -0.80639 (  3.30%)    -0.93778
      14    117.14    -0.93826 ( 96.79%)    -0.80433 (  3.21%)    -0.93396
      15    120.26    -0.92312 ( 97.10%)    -0.79655 (  2.90%)    -0.91945
      16    126.83    -0.89253 ( 97.64%)    -0.78080 (  2.36%)    -0.88989
      17    152.49    -0.78738 ( 98.86%)    -0.72621 (  1.14%)    -0.78668
      18    153.94    -0.78202 ( 98.90%)    -0.72341 (  1.10%)    -0.78138
      19    194.01    -0.65270 ( 99.56%)    -0.65488 (  0.44%)    -0.65271
      20    196.91    -0.64453 ( 99.59%)    -0.65048 (  0.41%)    -0.64455
      21    196.91    -0.64452 ( 99.59%)    -0.65048 (  0.41%)    -0.64455
      22    246.53    -0.52333 ( 99.83%)    -0.58391 (  0.17%)    -0.52343
      23    249.25    -0.51755 ( 99.84%)    -0.58066 (  0.16%)    -0.51766
      24    256.94    -0.50162 ( 99.86%)    -0.57165 (  0.14%)    -0.50172
      25    263.20    -0.48911 ( 99.87%)    -0.56453 (  0.13%)    -0.48921
      26    269.92    -0.47606 ( 99.88%)    -0.55705 (  0.12%)    -0.47615
      27    272.70    -0.47079 ( 99.89%)    -0.55402 (  0.11%)    -0.47089
      28    279.42    -0.45833 ( 99.90%)    -0.54681 (  0.10%)    -0.45842
   ------------------------------------------------------------------------

   temp. (K)  partition function   enthalpy   heat capacity  entropy
                                   cal/mol     cal/K/mol   cal/K/mol   J/K/mol
 298.15  VIB  0.120E+17            19967.767    125.955    124.492
         ROT  0.326E+08              888.752      2.981     37.362
         INT  0.391E+24            20856.520    128.936    161.853
         TR   0.135E+29             1481.254      4.968     44.941
         TOT                       22337.7737   133.9039   206.7940   865.2263

       T/K    H(0)-H(T)+PV         H(T)/Eh          T*S/Eh         G(T)/Eh
   ------------------------------------------------------------------------
    298.15    0.355975E-01    0.530906E+00    0.982545E-01    0.432652E+00
   ------------------------------------------------------------------------

         :::::::::::::::::::::::::::::::::::::::::::::::::::::
         ::                  THERMODYNAMIC                  ::
         :::::::::::::::::::::::::::::::::::::::::::::::::::::
         :: total free energy        -114.270134221106 Eh   ::
         ::.................................................::
         :: total energy             -114.702785949365 Eh   ::
         :: zero point energy           0.495308745378 Eh   ::
         :: G(RRHO) w/o ZPVE           -0.062657017119 Eh   ::
         :: G(RRHO) contrib.            0.432651728259 Eh   ::
         :::::::::::::::::::::::::::::::::::::::::::::::::::::

optimized geometry written to: xtbopt.xyz


           -------------------------------------------------
          | TOTAL ENERGY             -114.702785949365 Eh   |
          | TOTAL ENTHALPY           -114.171879695779 Eh   |
          | TOTAL FREE ENERGY        -114.270134221106 Eh   |
          | GRADIENT NORM               0.000069201753 Eh/α |
          | HOMO-LUMO GAP               1.997577385181 eV   |
           -------------------------------------------------

------------------------------------------------------------------------
 * finished run on 2025/09/08 at 07:08:39.019     
------------------------------------------------------------------------
 total:
 * wall-time:     0 d,  0 h,  0 min,  9.988 sec
 *  cpu-time:     0 d,  0 h,  6 min, 30.149 sec
 * ratio c/w:    39.063 speedup
 SCF:
 * wall-time:     0 d,  0 h,  0 min,  0.203 sec
 *  cpu-time:     0 d,  0 h,  0 min,  6.918 sec
 * ratio c/w:    34.075 speedup
 ANC optimizer:
 * wall-time:     0 d,  0 h,  0 min,  7.209 sec
 *  cpu-time:     0 d,  0 h,  4 min, 47.894 sec
 * ratio c/w:    39.933 speedup
 analytical hessian:
 * wall-time:     0 d,  0 h,  0 min,  2.393 sec
 *  cpu-time:     0 d,  0 h,  1 min, 28.633 sec
 * ratio c/w:    37.046 speedup

