      -----------------------------------------------------------      
     |                   =====================                   |     
     |                           x T B                           |     
     |                   =====================                   |     
     |                         S. Grimme                         |     
     |          Mulliken Center for Theoretical Chemistry        |     
     |                    University of Bonn                     |     
      -----------------------------------------------------------      

   * xtb version 6.7.1 (edcfbbe) compiled by 'albert@albert-system' on 2024-07-22

   xtb is free software: you can redistribute it and/or modify it under
   the terms of the GNU Lesser General Public License as published by
   the Free Software Foundation, either version 3 of the License, or
   (at your option) any later version.
   
   xtb is distributed in the hope that it will be useful,
   but WITHOUT ANY WARRANTY; without even the implied warranty of
   MERCHANTABILITY or FITNESS FOR A PARTICULAR PURPOSE.  See the
   GNU Lesser General Public License for more details.
   
   Cite this work as:
   * C. Bannwarth, E. Caldeweyher, S. Ehlert, A. Hansen, P. Pracht,
     J. Seibert, S. Spicher, S. Grimme, WIREs Comput. Mol. Sci., 2020, 11,
     e01493. DOI: 10.1002/wcms.1493
   
   for GFN2-xTB:
   * C. Bannwarth, S. Ehlert and S. Grimme., J. Chem. Theory Comput., 2019,
     15, 1652-1671. DOI: 10.1021/acs.jctc.8b01176
   for GFN1-xTB:
   * S. Grimme, C. Bannwarth, P. Shushkov, J. Chem. Theory Comput., 2017,
     13, 1989-2009. DOI: 10.1021/acs.jctc.7b00118
   for GFN0-xTB:
   * P. Pracht, E. Caldeweyher, S. Ehlert, S. Grimme, ChemRxiv, 2019, preprint.
     DOI: 10.26434/chemrxiv.8326202.v1
   for GFN-FF:
   * S. Spicher and S. Grimme, Angew. Chem. Int. Ed., 2020, 59, 15665-15673.
     DOI: 10.1002/anie.202004239
   
   for ALPB and GBSA implicit solvation:
   * S. Ehlert, M. Stahn, S. Spicher, S. Grimme, J. Chem. Theory Comput.,
     2021, 17, 4250-4261. DOI: 10.1021/acs.jctc.1c00471
   
   for ddCOSMO and CPCM-X implicit solvation:
   * M. Stahn, S. Ehlert, S. Grimme, J. Phys. Chem. A,
     2023, XX, XXXX-XXXX. DOI: 10.1021/acs.jpca.3c04382
   
   for DFT-D4:
   * E. Caldeweyher, C. Bannwarth and S. Grimme, J. Chem. Phys., 2017,
     147, 034112. DOI: 10.1063/1.4993215
   * E. Caldeweyher, S. Ehlert, A. Hansen, H. Neugebauer, S. Spicher,
     C. Bannwarth and S. Grimme, J. Chem. Phys., 2019, 150, 154122.
     DOI: 10.1063/1.5090222
   * E. Caldeweyher, J.-M. Mewes, S. Ehlert and S. Grimme, Phys. Chem. Chem. Phys.
     2020, 22, 8499-8512. DOI: 10.1039/D0CP00502A
   
   for sTDA-xTB:
   * S. Grimme and C. Bannwarth, J. Chem. Phys., 2016, 145, 054103.
     DOI: 10.1063/1.4959605
   
   in the mass-spec context:
   * V. Asgeirsson, C. Bauer and S. Grimme, Chem. Sci., 2017, 8, 4879.
     DOI: 10.1039/c7sc00601b
   * J. Koopman and S. Grimme, ACS Omega 2019, 4, 12, 15120-15133.
     DOI: 10.1021/acsomega.9b02011
   
   for metadynamics refer to:
   * S. Grimme, J. Chem. Theory Comput., 2019, 155, 2847-2862
     DOI: 10.1021/acs.jctc.9b00143
   
   for SPH calculations refer to:
   * S. Spicher and S. Grimme, J. Chem. Theory Comput., 2021, 17, 1701-1714
     DOI: 10.1021/acs.jctc.0c01306
   
   for ONIOM refer to:
   * C. Plett, A. Katbashev, S. Ehlert, S. Grimme, M. Bursch,
     Phys. Chem. Chem. Phys., 2023, 25, 17860-17868. DOI: 10.1039/D3CP02178E
   
   for DIPRO refer to:
   * J. Kohn, N. Gildemeister, S. Grimme, D. Fazzi, A. Hansen,
     J. Chem. Phys., 2023, just accepted.
   
   for PTB refer to:
   * S. Grimme, M. Mueller, A. Hansen, J. Chem. Phys., 2023, 158, 124111.
     DOI: 10.1063/5.0137838
   
   with help from (in alphabetical order)
   P. Atkinson, C. Bannwarth, F. Bohle, G. Brandenburg, E. Caldeweyher
   M. Checinski, S. Dohm, S. Ehlert, S. Ehrlich, I. Gerasimov, C. Hölzer
   A. Katbashev, J. Kohn, J. Koopman, C. Lavigne, S. Lehtola, F. März, M. Müller,
   F. Musil, H. Neugebauer, J. Pisarek, C. Plett, P. Pracht, F. Pultar,
   J. Seibert, P. Shushkov, S. Spicher, M. Stahn, M. Steiner, T. Strunk,
   J. Stückrath, T. Rose, and J. Unsleber
   
 * started run on 2025/09/08 at 07:15:08.119     
   ID    Z sym.   atoms
    1    8 O      1, 3, 15, 35
    2   16 S      2
    3    6 C      4-7, 9-14, 16-27, 29-34, 36-43
    4    7 N      8, 28
    5    1 H      44-67

           -------------------------------------------------
          |                Calculation Setup                |
           -------------------------------------------------

          program call               : xtb data2507/gas/DPS-PXZ/DPS-PXZ_gas_S0_finalOpt.xtbopt.xyz --gfn 2 --spinpol --tblite --uhf 2 --ohess vtight --parallel 40 --molden --ceasefiles --namespace data2507/gas/DPS-PXZ/DPS-PXZ_gas_T1_preOpt
          calculation namespace      : data2507/gas/DPS-PXZ/DPS-PXZ_gas_T1_preOpt
          coordinate file            : data2507/gas/DPS-PXZ/DPS-PXZ_gas_S0_finalOpt.xtbopt.xyz
          omp threads                :                    40

repulsion energy          1.8685189858647E+00 Eh
dispersion energy         5.3982616437282E-03 Eh
interaction energy        0.0000000000000E+00 Eh
number of electrons       2.0800000000000E+02 e
integral cutoff           1.8403572253217E+01 bohr

------------------------------------------------------------
  cycle        total energy    energy error   density error
------------------------------------------------------------
      1     -114.3406265869  -1.1621454E+02   1.2368606E-01
      2     -114.4421359410  -1.0150935E-01   7.2986601E-02
      3     -114.3101007575   1.3203518E-01   4.9008355E-02
      4     -114.3780488653  -6.7948108E-02   3.3257376E-02
      5     -114.4856756978  -1.0762683E-01   2.3224047E-02
      6     -114.5888883696  -1.0321267E-01   1.6249384E-02
      7     -114.5788206420   1.0067728E-02   1.5334798E-02
      8     -114.6047245972  -2.5903955E-02   1.2043133E-02
      9     -114.5761791758   2.8545421E-02   1.3364759E-02
     10     -114.6121421027  -3.5962927E-02   6.5993494E-03
     11     -114.6155411520  -3.3990493E-03   3.5050357E-03
     12     -114.6076468209   7.8943311E-03   6.7804523E-03
     13     -114.6157955468  -8.1487259E-03   2.2700795E-03
     14     -114.6153283216   4.6722513E-04   1.9654607E-03
     15     -114.6159425281  -6.1420642E-04   1.1688978E-03
     16     -114.6162233274  -2.8079932E-04   4.8544788E-04
     17     -114.6162610619  -3.7734555E-05   1.8072407E-04
     18     -114.6162652890  -4.2270625E-06   8.3905852E-05
     19     -114.6162660275  -7.3855020E-07   2.5002291E-05
     20     -114.6162660875  -5.9928837E-08   1.3670386E-05
------------------------------------------------------------

electronic energy        -1.1649018333499E+02 Eh
total energy             -1.1461626608748E+02 Eh

 total:                                   0.292 sec
 - repulsion                              0.000 sec (  0%)
 - dispersion                             0.015 sec (  4%)
 - coulomb                                0.005 sec (  1%)
 - hamiltonian                            0.013 sec (  4%)
 - scc                                    0.260 sec ( 88%)

      ----------------------------------------------------------- 
     |                   =====================                   |
     |                        A N C O P T                        |
     |                   =====================                   |
     |               Approximate Normal Coordinate               |
     |                Rational Function Optimizer                |
      ----------------------------------------------------------- 

Optimization log is written to '/dev/null'
      ----------------------------------------------------------- 
     |                   =====================                   |
     |                        A N C O P T                        |
     |                   =====================                   |
     |               Approximate Normal Coordinate               |
     |                Rational Function Optimizer                |
      ----------------------------------------------------------- 

          ...................................................
          :                      SETUP                      :
          :.................................................:
          :   optimization level         verytight          :
          :   max. optcycles                  1340          :
          :   ANC micro-cycles                  20          :
          :   degrees of freedom               195          :
          :.................................................:
          :   RF solver                   davidson          :
          :   write xtbopt.log                true          :
          :   linear?                        false          :
          :   energy convergence         0.1000000E-06 Eh   :
          :   grad. convergence          0.2000000E-03 Eh/α :
          :   maxmium RF displ.          1.0000000          :
          :   Hlow (freq-cutoff)         0.1000000E-01      :
          :   Hmax (freq-cutoff)         5.0000000          :
          :   S6 in model hess.         20.0000000          :
          ...................................................

generating ANC from exact Hessian ...
Using Lindh-Hessian (1995)
 Shifting diagonal of input Hessian by   9.798769185792797E-003
 Lowest  eigenvalues of input Hessian
    0.000000    0.000000    0.000000    0.000000    0.000000    0.000000
    0.010000    0.010148    0.010495    0.010536    0.011250    0.011359
    0.011775    0.012110    0.012603    0.012836    0.013539    0.013836
 Highest eigenvalues
    2.192102    2.193302    2.216894    2.217154    2.621487    3.465856
 

........................................................................
.............................. CYCLE    1 ..............................
........................................................................
------------------------------------------------------------
  cycle        total energy    energy error   density error
------------------------------------------------------------
      1     -114.6162392083  -1.1649016E+02   3.2641368E-04
      2     -114.6112471026   4.9921058E-03   4.3345269E-03
      3     -114.6162540788  -5.0069762E-03   2.3863973E-04
      4     -114.6162646177  -1.0538891E-05   9.6688724E-05
      5     -114.6162655379  -9.2018252E-07   4.5338018E-05
      6     -114.6162660751  -5.3724868E-07   1.3006899E-05
------------------------------------------------------------

 total:                                   0.092 sec
 * total energy  :  -114.6162661 Eh     change        0.1234547E-07 Eh
   gradient norm :     0.0779356 Eh/α   predicted     0.0000000E+00 (-100.00%)
   displ. norm   :     0.1384500 α      lambda       -0.4736764E-02
   maximum displ.:     0.0423228 α      in ANC's #41, #26, #7, ...

........................................................................
.............................. CYCLE    2 ..............................
........................................................................
------------------------------------------------------------
  cycle        total energy    energy error   density error
------------------------------------------------------------
      1     -114.6175748734  -1.1647259E+02   3.9202624E-03
      2     -114.5537007292   6.3874144E-02   1.9395808E-02
      3     -114.6035727501  -4.9872021E-02   7.6408242E-03
      4     -114.6188038843  -1.5231134E-02   2.1972097E-03
      5     -114.6191947528  -3.9086849E-04   1.2742632E-03
      6     -114.6194357582  -2.4100545E-04   5.8691513E-04
      7     -114.6194830511  -4.7292846E-05   2.0768775E-04
      8     -114.6194871493  -4.0982465E-06   1.7466537E-04
      9     -114.6194901513  -3.0019696E-06   9.9917697E-05
     10     -114.6194907915  -6.4023425E-07   5.7125807E-05
     11     -114.6194911777  -3.8617277E-07   2.8533801E-05
     12     -114.6194912318  -5.4118331E-08   1.6600028E-05
------------------------------------------------------------

 total:                                   0.162 sec
 * total energy  :  -114.6194912 Eh     change       -0.3225157E-02 Eh
   gradient norm :     0.0336143 Eh/α   predicted    -0.2413956E-02 ( -25.15%)
   displ. norm   :     0.1338243 α      lambda       -0.1383280E-02
   maximum displ.:     0.0693135 α      in ANC's #7, #13, #10, ...

........................................................................
.............................. CYCLE    3 ..............................
........................................................................
------------------------------------------------------------
  cycle        total energy    energy error   density error
------------------------------------------------------------
      1     -114.6190433775  -1.1646936E+02   3.0331030E-03
      2     -114.5594545314   5.9588846E-02   1.8610637E-02
      3     -114.6083834550  -4.8928924E-02   6.5985280E-03
      4     -114.6201260549  -1.1742600E-02   1.2501764E-03
      5     -114.6201842376  -5.8182792E-05   8.6296652E-04
      6     -114.6202158264  -3.1588730E-05   6.3478832E-04
      7     -114.6202949282  -7.9101824E-05   1.4087650E-04
      8     -114.6202947126   2.1559690E-07   1.3788881E-04
      9     -114.6202962932  -1.5806329E-06   8.9564778E-05
     10     -114.6202965912  -2.9800773E-07   6.4764103E-05
     11     -114.6202970561  -4.6484740E-07   3.3797619E-05
     12     -114.6202971676  -1.1147921E-07   1.5764895E-05
------------------------------------------------------------

 total:                                   0.160 sec
 * total energy  :  -114.6202972 Eh     change       -0.8059358E-03 Eh
   gradient norm :     0.0069073 Eh/α   predicted    -0.7041245E-03 ( -12.63%)
   displ. norm   :     0.1034365 α      lambda       -0.1862964E-03
   maximum displ.:     0.0606806 α      in ANC's #7, #10, #13, ...

........................................................................
.............................. CYCLE    4 ..............................
........................................................................
------------------------------------------------------------
  cycle        total energy    energy error   density error
------------------------------------------------------------
      1     -114.6203277733  -1.1647166E+02   9.9671632E-04
      2     -114.6107778172   9.5499561E-03   6.8554252E-03
      3     -114.6186679893  -7.8901721E-03   2.5941683E-03
      4     -114.6203590511  -1.6910617E-03   7.3969728E-04
      5     -114.6204076310  -4.8579917E-05   3.7112375E-04
      6     -114.6204276411  -2.0010120E-05   2.1720330E-04
      7     -114.6204371696  -9.5285331E-06   7.4546807E-05
      8     -114.6204376277  -4.5806208E-07   5.1242096E-05
      9     -114.6204378834  -2.5569886E-07   2.7682668E-05
     10     -114.6204378859  -2.4771225E-09   2.3642827E-05
     11     -114.6204379571  -7.1263614E-08   1.1815369E-05
------------------------------------------------------------

 total:                                   0.150 sec
 * total energy  :  -114.6204380 Eh     change       -0.1407896E-03 Eh
   gradient norm :     0.0044277 Eh/α   predicted    -0.9414723E-04 ( -33.13%)
   displ. norm   :     0.1839017 α      lambda       -0.1880943E-03
   maximum displ.:     0.1070061 α      in ANC's #7, #10, #5, ...

........................................................................
.............................. CYCLE    5 ..............................
........................................................................
------------------------------------------------------------
  cycle        total energy    energy error   density error
------------------------------------------------------------
      1     -114.6204928053  -1.1647360E+02   1.0845177E-03
      2     -114.6158556556   4.6371497E-03   5.0222079E-03
      3     -114.6192901744  -3.4345188E-03   2.2578687E-03
      4     -114.6198957768  -6.0560246E-04   1.8134077E-03
      5     -114.6205574385  -6.6166166E-04   1.7275728E-04
      6     -114.6205579896  -5.5108933E-07   1.6477202E-04
      7     -114.6205599233  -1.9337165E-06   1.3533243E-04
      8     -114.6205619864  -2.0631019E-06   8.0273061E-05
      9     -114.6205625116  -5.2522650E-07   4.3527679E-05
     10     -114.6205626552  -1.4354197E-07   2.9539424E-05
     11     -114.6205627975  -1.4236085E-07   1.0093515E-05
------------------------------------------------------------

 total:                                   0.158 sec
 * total energy  :  -114.6205628 Eh     change       -0.1248404E-03 Eh
   gradient norm :     0.0050752 Eh/α   predicted    -0.9732168E-04 ( -22.04%)
   displ. norm   :     0.1384095 α      lambda       -0.7868536E-04
   maximum displ.:     0.0753679 α      in ANC's #10, #7, #5, ...

........................................................................
.............................. CYCLE    6 ..............................
........................................................................
------------------------------------------------------------
  cycle        total energy    energy error   density error
------------------------------------------------------------
      1     -114.6205988885  -1.1647433E+02   6.6531570E-04
      2     -114.6177792677   2.8196209E-03   3.4129798E-03
      3     -114.6202771470  -2.4978793E-03   1.2000027E-03
      4     -114.6203506242  -7.3477228E-05   1.2728595E-03
      5     -114.6206206021  -2.6997785E-04   8.4385250E-05
      6     -114.6206203410   2.6104976E-07   9.9405966E-05
      7     -114.6206209845  -6.4345136E-07   7.4348317E-05
      8     -114.6206215744  -5.8992248E-07   4.1147456E-05
      9     -114.6206217246  -1.5020333E-07   2.1963395E-05
     10     -114.6206217832  -5.8568318E-08   1.0592263E-05
------------------------------------------------------------

 total:                                   0.139 sec
 * total energy  :  -114.6206218 Eh     change       -0.5898566E-04 Eh
   gradient norm :     0.0042831 Eh/α   predicted    -0.4010211E-04 ( -32.01%)
   displ. norm   :     0.1412786 α      lambda       -0.6686914E-04
   maximum displ.:     0.0847997 α      in ANC's #10, #5, #7, ...

........................................................................
.............................. CYCLE    7 ..............................
........................................................................
------------------------------------------------------------
  cycle        total energy    energy error   density error
------------------------------------------------------------
      1     -114.6206547382  -1.1647437E+02   6.5031368E-04
      2     -114.6185796065   2.0751317E-03   2.8764775E-03
      3     -114.6205981861  -2.0185796E-03   6.2238160E-04
      4     -114.6205482674   4.9918695E-05   8.8278039E-04
      5     -114.6206588194  -1.1055202E-04   1.9055570E-04
      6     -114.6206669372  -8.1177606E-06   1.0717299E-04
      7     -114.6206680202  -1.0830143E-06   6.1383650E-05
      8     -114.6206686277  -6.0754327E-07   2.6026467E-05
      9     -114.6206687027  -7.4975802E-08   1.1454218E-05
------------------------------------------------------------

 total:                                   0.124 sec
 * total energy  :  -114.6206687 Eh     change       -0.4691953E-04 Eh
   gradient norm :     0.0025531 Eh/α   predicted    -0.3410464E-04 ( -27.31%)
   displ. norm   :     0.0811403 α      lambda       -0.2879606E-04
   maximum displ.:     0.0533962 α      in ANC's #10, #5, #7, ...

........................................................................
.............................. CYCLE    8 ..............................
........................................................................
------------------------------------------------------------
  cycle        total energy    energy error   density error
------------------------------------------------------------
      1     -114.6206868810  -1.1647409E+02   4.0512613E-04
      2     -114.6205122576   1.7462349E-04   9.0978042E-04
      3     -114.6205304824  -1.8224889E-05   8.2012791E-04
      4     -114.6204429421   8.7540325E-05   1.1273183E-03
      5     -114.6206855528  -2.4261068E-04   1.5070825E-04
      6     -114.6206880188  -2.4660442E-06   7.8423507E-05
      7     -114.6206885846  -5.6577653E-07   4.3698763E-05
      8     -114.6206888334  -2.4876648E-07   2.2992224E-05
      9     -114.6206888777  -4.4349747E-08   1.2315383E-05
------------------------------------------------------------

 total:                                   0.124 sec
 * total energy  :  -114.6206889 Eh     change       -0.2017503E-04 Eh
   gradient norm :     0.0014542 Eh/α   predicted    -0.1449332E-04 ( -28.16%)
   displ. norm   :     0.0759886 α      lambda       -0.1300767E-04
   maximum displ.:     0.0515690 α      in ANC's #10, #5, #3, ...

........................................................................
.............................. CYCLE    9 ..............................
........................................................................
------------------------------------------------------------
  cycle        total energy    energy error   density error
------------------------------------------------------------
      1     -114.6206948831  -1.1647373E+02   4.3012696E-04
      2     -114.6198929595   8.0192353E-04   1.7933448E-03
      3     -114.6206392193  -7.4625975E-04   5.3989157E-04
      4     -114.6206325256   6.6936681E-06   6.5443457E-04
      5     -114.6206995296  -6.7003927E-05   6.2992706E-05
      6     -114.6206996897  -1.6011622E-07   6.6057020E-05
      7     -114.6207002535  -5.6379582E-07   2.6797503E-05
      8     -114.6207003010  -4.7496314E-08   1.6530348E-05
------------------------------------------------------------

 total:                                   0.111 sec
 * total energy  :  -114.6207003 Eh     change       -0.1142322E-04 Eh
   gradient norm :     0.0012329 Eh/α   predicted    -0.6522532E-05 ( -42.90%)
   displ. norm   :     0.0770848 α      lambda        0.7455547E-05
   maximum displ.:     0.0523065 α      in ANC's #10, #5, #3, ...

........................................................................
.............................. CYCLE   10 ..............................
........................................................................
------------------------------------------------------------
  cycle        total energy    energy error   density error
------------------------------------------------------------
      1     -114.6206948701  -1.1647330E+02   4.0793000E-04
      2     -114.6206706781   2.4192038E-05   4.6020366E-04
      3     -114.6205124076   1.5827044E-04   9.1993530E-04
      4     -114.6198431594   6.6924819E-04   1.8550043E-03
      5     -114.6206939666  -8.5080712E-04   1.0835883E-04
      6     -114.6206950521  -1.0855612E-06   6.6454715E-05
      7     -114.6206955756  -5.2351639E-07   3.1349374E-05
      8     -114.6206956728  -9.7196406E-08   1.5027889E-05
------------------------------------------------------------

 total:                                   0.111 sec
 * total energy  :  -114.6206957 Eh     change        0.4628135E-05 Eh
   gradient norm :     0.0027412 Eh/α   predicted     0.3736413E-05 ( -19.27%)
   displ. norm   :     0.0281445 α      lambda       -0.1124788E-04
   maximum displ.:     0.0169426 α      in ANC's #10, #5, #7, ...

........................................................................
.............................. CYCLE   11 ..............................
........................................................................
------------------------------------------------------------
  cycle        total energy    energy error   density error
------------------------------------------------------------
      1     -114.6206961515  -1.1647360E+02   2.8193524E-04
      2     -114.6203694605   3.2669100E-04   1.3386844E-03
      3     -114.6206058601  -2.3639960E-04   6.3060760E-04
      4     -114.6206940943  -8.8234254E-05   2.3732551E-04
      5     -114.6207036260  -9.5316783E-06   6.5472920E-05
      6     -114.6207040492  -4.2322445E-07   3.2020781E-05
      7     -114.6207042054  -1.5617204E-07   7.7920660E-06
------------------------------------------------------------

 total:                                   0.099 sec
 * total energy  :  -114.6207042 Eh     change       -0.8532573E-05 Eh
   gradient norm :     0.0015018 Eh/α   predicted    -0.5630400E-05 ( -34.01%)
   displ. norm   :     0.0359369 α      lambda       -0.7941053E-05
   maximum displ.:     0.0227635 α      in ANC's #7, #13, #5, ...

........................................................................
.............................. CYCLE   12 ..............................
........................................................................
------------------------------------------------------------
  cycle        total energy    energy error   density error
------------------------------------------------------------
      1     -114.6207039457  -1.1647406E+02   2.9037198E-04
      2     -114.6201667941   5.3715157E-04   1.5209320E-03
      3     -114.6206642836  -4.9748949E-04   4.5826959E-04
      4     -114.6206670977  -2.8141165E-06   4.7011069E-04
      5     -114.6207080621  -4.0964437E-05   8.0364093E-05
      6     -114.6207088447  -7.8259647E-07   3.9588605E-05
      7     -114.6207090251  -1.8041345E-07   2.0196165E-05
      8     -114.6207091109  -8.5721481E-08   6.7383716E-06
------------------------------------------------------------

 total:                                   0.112 sec
 * total energy  :  -114.6207091 Eh     change       -0.4905459E-05 Eh
   gradient norm :     0.0005947 Eh/α   predicted    -0.3973062E-05 ( -19.01%)
   displ. norm   :     0.0262424 α      lambda       -0.1661039E-05
   maximum displ.:     0.0167502 α      in ANC's #10, #5, #3, ...

........................................................................
.............................. CYCLE   13 ..............................
........................................................................
------------------------------------------------------------
  cycle        total energy    energy error   density error
------------------------------------------------------------
      1     -114.6207066563  -1.1647396E+02   1.9256141E-04
      2     -114.6200975566   6.0909974E-04   1.5617306E-03
      3     -114.6207007075  -6.0315097E-04   2.2172324E-04
      4     -114.6206977064   3.0011320E-06   2.9564118E-04
      5     -114.6207105990  -1.2892559E-05   5.4862304E-05
      6     -114.6207109547  -3.5578883E-07   2.5585368E-05
      7     -114.6207110014  -4.6682388E-08   1.6376975E-05
------------------------------------------------------------

 total:                                   0.104 sec
 * total energy  :  -114.6207110 Eh     change       -0.1890565E-05 Eh
   gradient norm :     0.0003101 Eh/α   predicted    -0.8315151E-06 ( -56.02%)
   displ. norm   :     0.0347413 α      lambda       -0.1346288E-05
   maximum displ.:     0.0201382 α      in ANC's #10, #3, #5, ...

........................................................................
.............................. CYCLE   14 ..............................
........................................................................
------------------------------------------------------------
  cycle        total energy    energy error   density error
------------------------------------------------------------
      1     -114.6207086151  -1.1647389E+02   1.9567369E-04
      2     -114.6202827674   4.2584770E-04   1.3374578E-03
      3     -114.6207040246  -4.2125721E-04   2.5430405E-04
      4     -114.6207030102   1.0143684E-06   2.1121468E-04
      5     -114.6207094721  -6.4618791E-06   1.1358013E-04
      6     -114.6207121682  -2.6960835E-06   2.9536784E-05
      7     -114.6207122572  -8.9029285E-08   2.2325767E-05
      8     -114.6207123003  -4.3109239E-08   1.5445375E-05
------------------------------------------------------------

 total:                                   0.112 sec
 * total energy  :  -114.6207123 Eh     change       -0.1298893E-05 Eh
   gradient norm :     0.0001294 Eh/α   predicted    -0.6764278E-06 ( -47.92%)
   displ. norm   :     0.0171887 α      lambda       -0.3532159E-06
   maximum displ.:     0.0112823 α      in ANC's #3, #10, #5, ...

........................................................................
.............................. CYCLE   15 ..............................
........................................................................
------------------------------------------------------------
  cycle        total energy    energy error   density error
------------------------------------------------------------
      1     -114.6206876917  -1.1647388E+02   3.1700956E-04
      2     -114.6173284590   3.3592326E-03   3.6769033E-03
      3     -114.6206910485  -3.3625894E-03   3.7271562E-04
      4     -114.6207093495  -1.8301091E-05   1.2146840E-04
      5     -114.6207117247  -2.3751733E-06   7.2891909E-05
      6     -114.6207125967  -8.7194577E-07   3.0623866E-05
      7     -114.6207125350   6.1623737E-08   2.8306843E-05
      8     -114.6207127300  -1.9496130E-07   6.2512699E-06
------------------------------------------------------------

 total:                                   0.111 sec
 * total energy  :  -114.6207127 Eh     change       -0.4296841E-06 Eh
   gradient norm :     0.0000971 Eh/α   predicted    -0.1769350E-06 ( -58.82%)
   displ. norm   :     0.0127634 α      lambda       -0.2641250E-06
   maximum displ.:     0.0086468 α      in ANC's #3, #1, #10, ...

........................................................................
.............................. CYCLE   16 ..............................
........................................................................
------------------------------------------------------------
  cycle        total energy    energy error   density error
------------------------------------------------------------
      1     -114.6207082964  -1.1647391E+02   1.4039481E-04
      2     -114.6200156109   6.9268551E-04   1.6642556E-03
      3     -114.6207096914  -6.9408053E-04   1.4322779E-04
      4     -114.6207109855  -1.2941083E-06   9.7276340E-05
      5     -114.6207128915  -1.9059804E-06   2.9340910E-05
      6     -114.6207130373  -1.4573764E-07   1.6316024E-05
------------------------------------------------------------

 total:                                   0.087 sec
 * total energy  :  -114.6207130 Eh     change       -0.3072638E-06 Eh
   gradient norm :     0.0001015 Eh/α   predicted    -0.1362214E-06 ( -55.67%)
   displ. norm   :     0.0226990 α      lambda       -0.4583515E-06
   maximum displ.:     0.0144232 α      in ANC's #3, #1, #13, ...

........................................................................
.............................. CYCLE   17 ..............................
........................................................................
------------------------------------------------------------
  cycle        total energy    energy error   density error
------------------------------------------------------------
      1     -114.6206757681  -1.1647390E+02   3.8471533E-04
      2     -114.6155050739   5.1706942E-03   4.5278105E-03
      3     -114.6206917059  -5.1866320E-03   3.5361089E-04
      4     -114.6207032310  -1.1525185E-05   2.1862708E-04
      5     -114.6207130958  -9.8647875E-06   6.9262808E-05
      6     -114.6207135278  -4.3197754E-07   2.8143347E-05
      7     -114.6207132198   3.0804229E-07   4.1146528E-05
      8     -114.6207136270  -4.0718710E-07   1.1296421E-05
------------------------------------------------------------

 total:                                   0.111 sec
 * total energy  :  -114.6207136 Eh     change       -0.5896937E-06 Eh
   gradient norm :     0.0001191 Eh/α   predicted    -0.2320216E-06 ( -60.65%)
   displ. norm   :     0.0272132 α      lambda       -0.4319823E-06
   maximum displ.:     0.0166362 α      in ANC's #3, #1, #13, ...

........................................................................
.............................. CYCLE   18 ..............................
........................................................................
------------------------------------------------------------
  cycle        total energy    energy error   density error
------------------------------------------------------------
      1     -114.6206890773  -1.1647392E+02   3.1834295E-04
      2     -114.6170285124   3.6605648E-03   3.7935119E-03
      3     -114.6207046831  -3.6761707E-03   2.1034028E-04
      4     -114.6206996875   4.9956678E-06   2.9855845E-04
      5     -114.6207136635  -1.3976087E-05   5.5853452E-05
      6     -114.6207137942  -1.3064827E-07   3.9435443E-05
      7     -114.6207140302  -2.3596584E-07   2.4279014E-05
      8     -114.6207141581  -1.2799330E-07   8.1825519E-06
------------------------------------------------------------

 total:                                   0.112 sec
 * total energy  :  -114.6207142 Eh     change       -0.5311881E-06 Eh
   gradient norm :     0.0001172 Eh/α   predicted    -0.2179675E-06 ( -58.97%)
   displ. norm   :     0.0239904 α      lambda       -0.3149792E-06
   maximum displ.:     0.0143652 α      in ANC's #3, #1, #5, ...

........................................................................
.............................. CYCLE   19 ..............................
........................................................................
------------------------------------------------------------
  cycle        total energy    energy error   density error
------------------------------------------------------------
      1     -114.6207019140  -1.1647392E+02   2.3377454E-04
      2     -114.6188206499   1.8812641E-03   2.7224298E-03
      3     -114.6207109145  -1.8902646E-03   1.3563005E-04
      4     -114.6207091632   1.7513598E-06   1.7868801E-04
      5     -114.6207140927  -4.9295640E-06   5.1266064E-05
      6     -114.6207144258  -3.3303336E-07   2.4037134E-05
      7     -114.6207144817  -5.5976983E-08   1.8082519E-05
------------------------------------------------------------

 total:                                   0.099 sec
 * total energy  :  -114.6207145 Eh     change       -0.3235828E-06 Eh
   gradient norm :     0.0000963 Eh/α   predicted    -0.1577177E-06 ( -51.26%)
   displ. norm   :     0.0258493 α      lambda       -0.3276728E-06
   maximum displ.:     0.0152690 α      in ANC's #3, #1, #5, ...

........................................................................
.............................. CYCLE   20 ..............................
........................................................................
------------------------------------------------------------
  cycle        total energy    energy error   density error
------------------------------------------------------------
      1     -114.6206408039  -1.1647385E+02   5.3676580E-04
      2     -114.6107333149   9.9074890E-03   6.2035523E-03
      3     -114.6207087191  -9.9754042E-03   1.9407255E-04
      4     -114.6207061927   2.5264350E-06   2.3021283E-04
      5     -114.6207137403  -7.5476617E-06   8.5425742E-05
      6     -114.6207147320  -9.9160954E-07   3.9759713E-05
      7     -114.6207149591  -2.2719834E-07   6.4971482E-06
------------------------------------------------------------

 total:                                   0.100 sec
 * total energy  :  -114.6207150 Eh     change       -0.4774221E-06 Eh
   gradient norm :     0.0001070 Eh/α   predicted    -0.1674825E-06 ( -64.92%)
   displ. norm   :     0.0339477 α      lambda       -0.4114712E-06
   maximum displ.:     0.0196551 α      in ANC's #3, #1, #5, ...
 * RMSD in coord.:     0.1142138 α      energy gain  -0.4448872E-02 Eh

generating ANC from exact Hessian ...
Using Lindh-Hessian (1995)
 Shifting diagonal of input Hessian by   9.784168607206887E-003
 Lowest  eigenvalues of input Hessian
    0.000000    0.000000    0.000000    0.000000    0.000000    0.000000
    0.010000    0.010153    0.010499    0.010576    0.011267    0.011334
    0.011897    0.012121    0.012660    0.012953    0.013556    0.013863
 Highest eigenvalues
    2.187903    2.188959    2.229139    2.229162    2.628762    3.440208
 

........................................................................
.............................. CYCLE   21 ..............................
........................................................................
------------------------------------------------------------
  cycle        total energy    energy error   density error
------------------------------------------------------------
      1     -114.6207118554  -1.1647390E+02   1.8233040E-04
      2     -114.6203457357   3.6611968E-04   1.2491348E-03
      3     -114.6206921770  -3.4644129E-04   3.2537592E-04
      4     -114.6207064602  -1.4283245E-05   2.2098419E-04
      5     -114.6207152023  -8.7420480E-06   4.0383922E-05
      6     -114.6207153406  -1.3837406E-07   2.1240935E-05
      7     -114.6207154419  -1.0127610E-07   6.5171080E-06
------------------------------------------------------------

 total:                                   0.099 sec
 * total energy  :  -114.6207154 Eh     change       -0.4827560E-06 Eh
   gradient norm :     0.0001127 Eh/α   predicted     0.0000000E+00 (-100.00%)
   displ. norm   :     0.0001691 α      lambda        0.0000000E+00
   maximum displ.:     0.0000966 α      in ANC's #190, #177, #194, ...

........................................................................
.............................. CYCLE   22 ..............................
........................................................................
------------------------------------------------------------
  cycle        total energy    energy error   density error
------------------------------------------------------------
      1     -114.6207131314  -1.1647389E+02   1.0489805E-04
      2     -114.6204264445   2.8668685E-04   1.0824699E-03
      3     -114.6207072385  -2.8079397E-04   1.9761627E-04
      4     -114.6207148787  -7.6402526E-06   4.8360302E-05
      5     -114.6207153741  -4.9538316E-07   2.2422421E-05
      6     -114.6207154254  -5.1289376E-08   1.3947793E-05
------------------------------------------------------------

 total:                                   0.089 sec
 * total energy  :  -114.6207154 Eh     change        0.1649819E-07 Eh
   gradient norm :     0.0000852 Eh/α   predicted    -0.2413540E-08 (-114.63%)
   displ. norm   :     0.0001691 α      lambda        0.0000000E+00
   maximum displ.:     0.0000966 α      in ANC's #190, #177, #194, ...

........................................................................
.............................. CYCLE   23 ..............................
........................................................................
------------------------------------------------------------
  cycle        total energy    energy error   density error
------------------------------------------------------------
      1     -114.6206912167  -1.1647387E+02   3.0896956E-04
      2     -114.6174533547   3.2378621E-03   3.6019724E-03
      3     -114.6206975320  -3.2441773E-03   3.3069687E-04
      4     -114.6207140642  -1.6532227E-05   7.4605756E-05
      5     -114.6207154001  -1.3358909E-06   1.9042633E-05
      6     -114.6207154045  -4.3773554E-09   1.6983396E-05
------------------------------------------------------------

 total:                                   0.088 sec
 * total energy  :  -114.6207154 Eh     change        0.2093074E-07 Eh
   gradient norm :     0.0001404 Eh/α   predicted     0.1286664E-08 ( -93.85%)
   displ. norm   :     0.0039951 α      lambda       -0.9252381E-07
   maximum displ.:     0.0023928 α      in ANC's #13, #7, #1, ...

........................................................................
.............................. CYCLE   24 ..............................
........................................................................
------------------------------------------------------------
  cycle        total energy    energy error   density error
------------------------------------------------------------
      1     -114.6206889754  -1.1647388E+02   3.4337145E-04
      2     -114.6177586180   2.9303574E-03   3.4947786E-03
      3     -114.6206361321  -2.8775142E-03   6.5165393E-04
      4     -114.6207136399  -7.7507730E-05   8.7025296E-05
      5     -114.6207152692  -1.6293879E-06   3.5462261E-05
      6     -114.6207155738  -3.0455253E-07   9.2339506E-06
------------------------------------------------------------

 total:                                   0.091 sec
 * total energy  :  -114.6207156 Eh     change       -0.1693231E-06 Eh
   gradient norm :     0.0000671 Eh/α   predicted    -0.5233983E-07 ( -69.09%)
   displ. norm   :     0.0150482 α      lambda       -0.2988729E-06
   maximum displ.:     0.0088755 α      in ANC's #13, #7, #1, ...

........................................................................
.............................. CYCLE   25 ..............................
........................................................................
------------------------------------------------------------
  cycle        total energy    energy error   density error
------------------------------------------------------------
      1     -114.6207090472  -1.1647392E+02   1.9642527E-04
      2     -114.6200057244   7.0332274E-04   1.7227316E-03
      3     -114.6206728217  -6.6709725E-04   4.4699105E-04
      4     -114.6207152910  -4.2469352E-05   6.8803496E-05
      5     -114.6207154956  -2.0455758E-07   4.5927914E-05
      6     -114.6207157206  -2.2503554E-07   2.3562588E-05
      7     -114.6207158470  -1.2632637E-07   1.8996933E-06
------------------------------------------------------------

 total:                                   0.102 sec
 * total energy  :  -114.6207158 Eh     change       -0.2731520E-06 Eh
   gradient norm :     0.0001862 Eh/α   predicted    -0.1499270E-06 ( -45.11%)
   displ. norm   :     0.0131406 α      lambda        0.1800246E-06
   maximum displ.:     0.0079689 α      in ANC's #13, #7, #1, ...

........................................................................
.............................. CYCLE   26 ..............................
........................................................................
------------------------------------------------------------
  cycle        total energy    energy error   density error
------------------------------------------------------------
      1     -114.6207154539  -1.1647394E+02   7.1299253E-05
      2     -114.6206851951   3.0258758E-05   3.5858473E-04
      3     -114.6207137713  -2.8576154E-05   9.6462353E-05
      4     -114.6207120779   1.6934127E-06   1.4138170E-04
      5     -114.6207156583  -3.5804524E-06   2.0743655E-05
      6     -114.6207157249  -6.6541205E-08   6.9118593E-06
------------------------------------------------------------

 total:                                   0.087 sec
 * total energy  :  -114.6207157 Eh     change        0.1220776E-06 Eh
   gradient norm :     0.0004353 Eh/α   predicted     0.8770994E-07 ( -28.15%)
   displ. norm   :     0.0060242 α      lambda       -0.2394750E-06
   maximum displ.:     0.0043914 α      in ANC's #13, #7, #1, ...

........................................................................
.............................. CYCLE   27 ..............................
........................................................................
------------------------------------------------------------
  cycle        total energy    energy error   density error
------------------------------------------------------------
      1     -114.6207130958  -1.1647392E+02   1.1353690E-04
      2     -114.6203070990   4.0599678E-04   1.2649451E-03
      3     -114.6207147395  -4.0764047E-04   8.4081711E-05
      4     -114.6207146988   4.0682593E-08   8.9279053E-05
      5     -114.6207157514  -1.0526241E-06   3.2427112E-05
      6     -114.6207158417  -9.0282185E-08   2.0123289E-05
      7     -114.6207159239  -8.2173571E-08   8.5297914E-06
------------------------------------------------------------

 total:                                   0.101 sec
 * total energy  :  -114.6207159 Eh     change       -0.1989759E-06 Eh
   gradient norm :     0.0000885 Eh/α   predicted    -0.1202325E-06 ( -39.57%)
   displ. norm   :     0.0027164 α      lambda       -0.4420145E-07
   maximum displ.:     0.0022679 α      in ANC's #1, #8, #13, ...

........................................................................
.............................. CYCLE   28 ..............................
........................................................................
------------------------------------------------------------
  cycle        total energy    energy error   density error
------------------------------------------------------------
      1     -114.6207024224  -1.1647390E+02   2.2909961E-04
      2     -114.6187419461   1.9604764E-03   2.7818580E-03
      3     -114.6207135917  -1.9716456E-03   1.2083177E-04
      4     -114.6207156748  -2.0831865E-06   3.9291792E-05
      5     -114.6207159163  -2.4149730E-07   1.8151245E-05
------------------------------------------------------------

 total:                                   0.075 sec
 * total energy  :  -114.6207159 Eh     change        0.7512725E-08 Eh
   gradient norm :     0.0000943 Eh/α   predicted    -0.2266887E-07 (-401.74%)
   displ. norm   :     0.0040759 α      lambda       -0.4983771E-07
   maximum displ.:     0.0033275 α      in ANC's #1, #8, #13, ...

........................................................................
.............................. CYCLE   29 ..............................
........................................................................
------------------------------------------------------------
  cycle        total energy    energy error   density error
------------------------------------------------------------
      1     -114.6206521983  -1.1647384E+02   5.0003491E-04
      2     -114.6124567864   8.1954119E-03   5.6905169E-03
      3     -114.6206870976  -8.2303112E-03   4.2081764E-04
      4     -114.6207142177  -2.7120143E-05   9.2641157E-05
      5     -114.6207157867  -1.5689656E-06   3.6439067E-05
      6     -114.6207159921  -2.0542124E-07   1.8230117E-05
------------------------------------------------------------

 total:                                   0.087 sec
 * total energy  :  -114.6207160 Eh     change       -0.7576126E-07 Eh
   gradient norm :     0.0000747 Eh/α   predicted    -0.2519534E-07 ( -66.74%)
   displ. norm   :     0.0040759 α      lambda        0.0000000E+00
   maximum displ.:     0.0033275 α      in ANC's #1, #8, #13, ...

   *** GEOMETRY OPTIMIZATION CONVERGED AFTER 29 ITERATIONS ***

------------------------------------------------------------------------
 total energy gain   :        -0.0044499 Eh       -2.7924 kcal/mol
 total RMSD          :         0.1149772 a0        0.0608 Å
 total power (kW/mol):        -0.4028698 (step)   -3.4788 (real)
------------------------------------------------------------------------

 ANCopt (total)                0 d,  0 h,  0 min,  3.359 sec
 optimizer setup                ...        0 min,  0.000 sec (  0.008%)
 model hessian                  ...        0 min,  0.122 sec (  3.620%)
 ANC generation                 ...        0 min,  0.008 sec (  0.245%)
 coordinate transformation      ...        0 min,  0.003 sec (  0.084%)
 single point calculation       ...        0 min,  3.209 sec ( 95.535%)
 optimization log               ...        0 min,  0.006 sec (  0.164%)
 hessian update                 ...        0 min,  0.004 sec (  0.108%)
 rational function              ...        0 min,  0.004 sec (  0.122%)

================
 final structure:
================
67
 xtb: 6.7.1 (edcfbbe)
O           -0.49178805835601        5.55314108064261       -1.22488460010495
S           -0.20562153395850        4.83270173079998       -0.01164009924304
O            0.01812118190778        5.58111128345745        1.19778317431376
C            1.08498140966548        3.64007591471384       -0.28370711921035
C            1.58310763600162        2.94775138813461        0.82896501019115
C            2.06890418394295        1.67364028996509        0.68865558231129
C            2.05502576734554        1.05157150449081       -0.57266706674663
N            2.36521732781648       -0.32236967256059       -0.68379486463098
C            3.57285443290146       -0.81119245947447       -0.21759262880553
C            4.62225564196681        0.03463472700796        0.15196404196293
C            5.80438983160647       -0.48342936831732        0.63809232401560
C            5.97533651339303       -1.85796150160325        0.76322009058638
C            4.96308891413613       -2.71455980926901        0.36691122626327
C            3.77521153287813       -2.20549178082145       -0.13129962985393
O            2.82950679398025       -3.09731778058177       -0.54237015971961
C            1.67617822280137       -2.60521134697151       -1.07356434467326
C            0.74469920938321       -3.52886821589900       -1.52277942501444
C           -0.46793843952806       -3.10462382609768       -2.03515511880509
C           -0.75680005202005       -1.74768261378572       -2.07206077632669
C            0.16191098161265       -0.81902841409807       -1.62069055894081
C            1.40755931035010       -1.22157091464111       -1.13683734837220
C            1.66996364555607        1.78949207398958       -1.70355910881402
C            1.18135747872587        3.06312685888858       -1.55691602607701
C           -1.39042817787677        3.53628312376264        0.26688113225491
C           -1.43779252139824        2.95984274580072        1.54308270133825
C           -1.81670587003277        1.65014695146514        1.69643974597203
C           -2.13762973206124        0.87637454142658        0.56948775317065
N           -2.33037236660662       -0.51830528969991        0.68793385464186
C           -3.49223293360054       -1.11019358777779        0.22470981346618
C           -4.60922092087804       -0.35826699037680       -0.14960129100503
C           -5.74318318660538       -0.97725379669138       -0.63255507834101
C           -5.79728722496230       -2.36195201338339       -0.74960897048522
C           -4.71638682375595       -3.12760171349763       -0.34844105799759
C           -3.57596837320159       -2.51701576427047        0.14658135161170
O           -2.55841110926579       -3.32336827696839        0.56270738899868
C           -1.45089832753908       -2.73243041913736        1.09075188377413
C           -0.44486322600179       -3.57143288315594        1.54516793493678
C            0.72749782788023       -3.04321716282651        2.05472830589745
C            0.90066028913372       -1.66658925390696        2.08354898396302
C           -0.09313061693172       -0.82153197024084        1.62696082745649
C           -1.30021183525983       -1.33075283048454        1.14584598053058
C           -2.20385280745381        1.48846726899535       -0.69505090080580
C           -1.82777769583139        2.79842988359202       -0.84207785317984
H            1.54173952031417        3.42976479120945        1.79259460297961
H            2.42743416631421        1.12333686192988        1.54628858459723
H            4.49916894479923        1.10023563276893        0.04220078770812
H            6.60149383278249        0.18696342523601        0.91837814789044
H            6.89748687722774       -2.25930560795484        1.15134014886096
H            5.07545920142803       -3.78519670438565        0.42677929054209
H            0.99214174204685       -4.57562721276077       -1.45328170144017
H           -1.18702866966358       -3.82676783146534       -2.38709037206827
H           -1.70954195022041       -1.41072832635035       -2.45194091125747
H           -0.08685341175979        0.22915816165034       -1.63196160187729
H            1.75571845610105        1.33882316590492       -2.68166963113037
H            0.84802696871590        3.63978416639311       -2.40485644589063
H           -1.15474637222741        3.56707194043295        2.38795376765219
H           -1.86415901515435        1.19891998489366        2.67690154292119
H           -4.57674198765350        0.71454090725757       -0.04606175683943
H           -6.59397840924667       -0.37824888809476       -0.91666591239783
H           -6.68206925603063       -2.84209410004025       -1.13525714958988
H           -4.73782997517859       -4.20423413419914       -0.40203995312974
H           -0.60293975702458       -4.63574663173329        1.48188868478729
H            1.50494230880290       -3.69996062238508        2.41071579954353
H            1.82146405252843       -1.24808171896040        2.46112026749119
H            0.06616471804120        0.24397261439113        1.63200462004255
H           -2.51415098370979        0.90528835238639       -1.54976332702850
H           -1.82716303743947        3.27718912428178       -1.80821759808649
 
 Bond Distances (Angstroems)
 ---------------------------
O1-S2=1.4398         S2-O1=1.4398         S2-O3=1.4398         S2-C4=1.7782         S2-C24=1.7782        O3-S2=1.4398         
C4-S2=1.7782         C4-C5=1.4020         C4-C23=1.4011        C5-C4=1.4020         C5-C6=1.3708         C5-H44=1.0783        
C6-C5=1.3708         C6-C7=1.4064         C6-H45=1.0802        C7-C6=1.4064         C7-N8=1.4129         C7-C22=1.4042        
N8-C7=1.4129         N8-C9=1.3837         N8-C21=1.3896        C9-N8=1.3837         C9-C10=1.3976        C9-C14=1.4115        
C10-C9=1.3976        C10-C11=1.3792       C10-H46=1.0783       C11-C10=1.3792       C11-C12=1.3908       C11-H47=1.0786       
C12-C11=1.3908       C12-C13=1.3840       C12-H48=1.0780       C13-C12=1.3840       C13-C14=1.3851       C13-H49=1.0782       
C14-C9=1.4115        C14-C13=1.3851       C14-O15=1.3633       O15-C14=1.3633       O15-C16=1.3618       C16-O15=1.3618       
C16-C17=1.3866       C16-C21=1.4109       C17-C16=1.3866       C17-C18=1.3831       C17-H50=1.0779       C18-C17=1.3831       
C18-C19=1.3878       C18-H51=1.0782       C19-C18=1.3878       C19-C20=1.3821       C19-H52=1.0796       C20-C19=1.3821       
C20-C21=1.3956       C20-H53=1.0774       C21-N8=1.3896        C21-C16=1.4109       C21-C20=1.3956       C22-C7=1.4042        
C22-C23=1.3720       C22-H54=1.0804       C23-C4=1.4011        C23-C22=1.3720       C23-H55=1.0783       C24-S2=1.7782        
C24-C25=1.4011       C24-C43=1.4020       C25-C24=1.4011       C25-C26=1.3720       C25-H56=1.0783       C26-C25=1.3720       
C26-C27=1.4042       C26-H57=1.0804       C27-C26=1.4042       C27-N28=1.4129       C27-C42=1.4064       N28-C27=1.4129       
N28-C29=1.3838       N28-C41=1.3896       C29-N28=1.3838       C29-C30=1.3976       C29-C34=1.4115       C30-C29=1.3976       
C30-C31=1.3792       C30-H58=1.0783       C31-C30=1.3792       C31-C32=1.3907       C31-H59=1.0786       C32-C31=1.3907       
C32-C33=1.3840       C32-H60=1.0780       C33-C32=1.3840       C33-C34=1.3851       C33-H61=1.0782       C34-C29=1.4115       
C34-C33=1.3851       C34-O35=1.3634       O35-C34=1.3634       O35-C36=1.3618       C36-O35=1.3618       C36-C37=1.3866       
C36-C41=1.4108       C37-C36=1.3866       C37-C38=1.3831       C37-H62=1.0778       C38-C37=1.3831       C38-C39=1.3878       
C38-H63=1.0782       C39-C38=1.3878       C39-C40=1.3821       C39-H64=1.0796       C40-C39=1.3821       C40-C41=1.3956       
C40-H65=1.0774       C41-N28=1.3896       C41-C36=1.4108       C41-C40=1.3956       C42-C27=1.4064       C42-C43=1.3708       
C42-H66=1.0802       C43-C24=1.4020       C43-C42=1.3708       C43-H67=1.0783       H44-C5=1.0783        H45-C6=1.0802        
H46-C10=1.0783       H47-C11=1.0786       H48-C12=1.0780       H49-C13=1.0782       H50-C17=1.0779       H51-C18=1.0782       
H52-C19=1.0796       H53-C20=1.0774       H54-C22=1.0804       H55-C23=1.0783       H56-C25=1.0783       H57-C26=1.0804       
H58-C30=1.0783       H59-C31=1.0786       H60-C32=1.0780       H61-C33=1.0782       H62-C37=1.0778       H63-C38=1.0782       
H64-C39=1.0796       H65-C40=1.0774       H66-C42=1.0802       H67-C43=1.0783       
 C  H  Rav=1.0786 sigma=0.0009  Rmin=1.0774  Rmax=1.0804    24
 C  C  Rav=1.3917 sigma=0.0122  Rmin=1.3708  Rmax=1.4115    36
 N  C  Rav=1.3954 sigma=0.0126  Rmin=1.3837  Rmax=1.4129     6
 O  C  Rav=1.3626 sigma=0.0008  Rmin=1.3618  Rmax=1.3634     4
 S  C  Rav=1.7782 sigma=0.0000  Rmin=1.7782  Rmax=1.7782     2
 S  O  Rav=1.4398 sigma=0.0000  Rmin=1.4398  Rmax=1.4398     2
 
 selected bond angles (degree)
 --------------------
O3-S2-O1=118.60                C4-S2-O1=110.54                C4-S2-O3=111.37                C24-S2-O1=111.37               
C24-S2-O3=110.55               C24-S2-C4= 91.06               C5-C4-S2=117.88                C23-C4-S2=117.72               
C23-C4-C5=119.56               C6-C5-C4=120.24                H44-C5-C4=118.35               H44-C5-C6=121.37               
C7-C6-C5=119.96                H45-C6-C5=120.65               H45-C6-C7=119.34               N8-C7-C6=119.90                
C22-C7-C6=119.51               C22-C7-N8=120.52               C9-N8-C7=120.57                C21-N8-C7=120.24               
C21-N8-C9=118.86               C10-C9-N8=122.05               C14-C9-N8=119.65               C14-C9-C10=118.29              
C11-C10-C9=120.63              H46-C10-C9=119.04              H46-C10-C11=120.33             
 
 selected dihedral angles (degree)
 ---------------------------------
C5-C4-S2-O1=173.52            C5-C4-S2-O3= 39.45            C5-C4-S2-C24=286.86           C23-C4-S2-O1=328.83           
C23-C4-S2-O3=194.76           C23-C4-S2-C24= 82.16          C6-C5-C4-S2=149.91            C6-C5-C4-C23=355.08           
H44-C5-C4-S2=331.95           H44-C5-C4-C23=177.11          C7-C6-C5-C4=359.31            C7-C6-C5-H44=177.21           
H45-C6-C5-C4=181.81           H45-C6-C5-H44=359.71          N8-C7-C6-C5=189.50            N8-C7-C6-H45=  7.03           
C22-C7-C6-C5=  6.47           C22-C7-C6-H45=184.01          C9-N8-C7-C6=303.14            C9-N8-C7-C22=126.20           
C21-N8-C7-C6=116.52           C21-N8-C7-C22=299.57          C10-C9-N8-C7=348.20           C10-C9-N8-C21=174.73          
C14-C9-N8-C7=169.45           C14-C9-N8-C21=355.98          C11-C10-C9-N8=178.70          C11-C10-C9-C14=357.47         
H46-C10-C9-N8=358.08          H46-C10-C9-C14=176.84         
           -------------------------------------------------
          |                Final Singlepoint                |
           -------------------------------------------------
repulsion energy          1.8478625279166E+00 Eh
dispersion energy         5.3239558005414E-03 Eh
interaction energy        0.0000000000000E+00 Eh
number of electrons       2.0800000000000E+02 e
integral cutoff           1.8403572253217E+01 bohr

------------------------------------------------------------
  cycle        total energy    energy error   density error
------------------------------------------------------------
      1     -114.6206911968  -1.1647388E+02   3.4095847E-04
      2     -114.6182545807   2.4366161E-03   3.2240943E-03
      3     -114.6205959419  -2.3413612E-03   7.7378279E-04
      4     -114.6207149503  -1.1900833E-04   6.3217789E-05
      5     -114.6207156587  -7.0843451E-07   3.8955456E-05
      6     -114.6207160089  -3.5021738E-07   1.2703004E-05
------------------------------------------------------------

electronic energy        -1.1647390249264E+02 Eh
total energy             -1.1462071600893E+02 Eh

 total:                                   0.088 sec
 - repulsion                              0.000 sec (  0%)
 - dispersion                             0.002 sec (  1%)
 - coulomb                                0.003 sec (  3%)
 - hamiltonian                            0.008 sec (  8%)
 - scc                                    0.075 sec ( 85%)

           ------------------------------------------------- 
          |                Numerical Hessian                |
           ------------------------------------------------- 
step length          :   0.00500
SCC accuracy         :   0.30000
Hessian scale factor :   1.00000
frozen atoms in %    :   0.00000    0
RMS gradient         :   0.00010
estimated CPU  time     40.23 min
estimated wall time      1.01 min

writing file <hessian>.

 projected vibrational frequencies (cm⁻¹)
eigval :       -0.00    -0.00    -0.00    -0.00     0.00     0.00
eigval :       13.83    24.90    27.30    40.11    47.99    59.35
eigval :       66.06    82.69    83.18    89.16    97.01   106.76
eigval :      115.71   120.59   138.14   152.06   167.16   173.00
eigval :      197.48   202.15   205.45   243.73   247.64   259.47
eigval :      267.18   275.05   278.60   286.01   310.35   330.66
eigval :      356.30   372.32   372.82   373.51   377.08   390.07
eigval :      395.27   406.33   409.73   414.00   421.06   427.81
eigval :      430.84   438.27   454.10   463.40   468.97   489.83
eigval :      492.20   506.31   512.02   514.14   524.59   538.78
eigval :      542.16   555.99   580.12   581.15   595.12   598.20
eigval :      600.04   631.88   633.88   642.45   653.42   655.71
eigval :      657.97   661.26   661.40   671.98   705.46   757.51
eigval :      771.60   771.76   773.38   778.80   789.77   792.91
eigval :      798.62   838.79   842.43   851.17   854.80   855.95
eigval :      863.63   865.93   866.62   871.58   891.64   894.25
eigval :      896.43   896.58   897.02   902.21   903.65   905.16
eigval :      906.15   907.24   908.86   914.37   916.54   917.18
eigval :      921.55   925.80   977.96   980.86  1045.84  1054.95
eigval :     1077.32  1079.57  1086.32  1088.20  1106.45  1113.20
eigval :     1115.30  1116.57  1117.82  1120.18  1121.39  1166.48
eigval :     1166.68  1170.74  1171.50  1173.88  1183.37  1189.87
eigval :     1195.06  1209.99  1210.09  1224.76  1230.90  1237.22
eigval :     1237.63  1244.41  1244.52  1247.67  1255.39  1284.36
eigval :     1292.51  1296.08  1305.84  1310.65  1325.53  1325.90
eigval :     1336.61  1338.49  1352.21  1365.92  1390.63  1402.98
eigval :     1405.34  1414.70  1414.83  1416.93  1425.45  1429.91
eigval :     1431.71  1432.68  1435.96  1437.10  1441.22  1485.51
eigval :     1491.64  1499.73  1504.01  1506.92  1514.60  1516.68
eigval :     1527.29  1531.46  1576.99  3075.77  3076.27  3076.86
eigval :     3077.26  3086.92  3087.09  3097.77  3097.84  3103.14
eigval :     3104.31  3104.91  3105.01  3105.12  3105.24  3106.78
eigval :     3107.12  3111.73  3111.80  3116.22  3116.38  3116.50
eigval :     3118.19  3119.68  3120.70
           -------------------------------------------------
          |                Property Printout                |
           -------------------------------------------------
           -------------------------------------------------
          |                Geometry Summary                 |
           -------------------------------------------------

      molecular mass/u    :      580.6528839
   center of mass at/Å    :       -0.0004968      -0.0001512       0.0011905
  moments of inertia/u·Å² :        0.5167542E+04   0.5332958E+04   0.9057203E+04
rotational constants/cm⁻¹ :        0.3262215E-02   0.3161028E-02   0.1861240E-02

 * 74 selected distances

     #   Z          #   Z                                           value/Å
     1   8 O        2  16 S                                       1.4397523
     2  16 S        3   8 O                                       1.4397509
     2  16 S        4   6 C                                       1.7782107
     4   6 C        5   6 C                                       1.4019567
     5   6 C        6   6 C                                       1.3707824
     6   6 C        7   6 C                                       1.4064485
     7   6 C        8   7 N                                       1.4128988
     8   7 N        9   6 C                                       1.3837196
     9   6 C       10   6 C                                       1.3975833
    10   6 C       11   6 C                                       1.3791855
    11   6 C       12   6 C                                       1.3907619
    12   6 C       13   6 C                                       1.3840040
     9   6 C       14   6 C                                       1.4115473
    13   6 C       14   6 C                                       1.3850694
    14   6 C       15   8 O                                       1.3633380
    15   8 O       16   6 C                                       1.3618014
    16   6 C       17   6 C                                       1.3865748
    17   6 C       18   6 C                                       1.3831134
    18   6 C       19   6 C                                       1.3878375
    19   6 C       20   6 C                                       1.3820868
     8   7 N       21   6 C                                       1.3895753
    16   6 C       21   6 C                                       1.4108936
    20   6 C       21   6 C                                       1.3956341
     7   6 C       22   6 C                                       1.4041783
     4   6 C       23   6 C                                       1.4011495
    22   6 C       23   6 C                                       1.3720008
     2  16 S       24   6 C                                       1.7782133 (max)
    24   6 C       25   6 C                                       1.4011487
    25   6 C       26   6 C                                       1.3720048
    26   6 C       27   6 C                                       1.4041855
    27   6 C       28   7 N                                       1.4129088
    28   7 N       29   6 C                                       1.3837733
    29   6 C       30   6 C                                       1.3975568
    30   6 C       31   6 C                                       1.3792243
    31   6 C       32   6 C                                       1.3906899
    32   6 C       33   6 C                                       1.3840163
    29   6 C       34   6 C                                       1.4114761
    33   6 C       34   6 C                                       1.3850693
    34   6 C       35   8 O                                       1.3633739
    35   8 O       36   6 C                                       1.3618456
    36   6 C       37   6 C                                       1.3865519
    37   6 C       38   6 C                                       1.3831466
    38   6 C       39   6 C                                       1.3877754
    39   6 C       40   6 C                                       1.3821054
    28   7 N       41   6 C                                       1.3895991
    36   6 C       41   6 C                                       1.4108303
    40   6 C       41   6 C                                       1.3956442
    27   6 C       42   6 C                                       1.4064499
    24   6 C       43   6 C                                       1.4019602
    42   6 C       43   6 C                                       1.3707851
     5   6 C       44   1 H                                       1.0782534
     6   6 C       45   1 H                                       1.0802371
    10   6 C       46   1 H                                       1.0782874
    11   6 C       47   1 H                                       1.0785924
    12   6 C       48   1 H                                       1.0779962
    13   6 C       49   1 H                                       1.0781813
    17   6 C       50   1 H                                       1.0778508
    18   6 C       51   1 H                                       1.0781657
    19   6 C       52   1 H                                       1.0796131
    20   6 C       53   1 H                                       1.0773607
    22   6 C       54   1 H                                       1.0803503
    23   6 C       55   1 H                                       1.0782607
    25   6 C       56   1 H                                       1.0782624
    26   6 C       57   1 H                                       1.0803532
    30   6 C       58   1 H                                       1.0782821
    31   6 C       59   1 H                                       1.0786003
    32   6 C       60   1 H                                       1.0780076
    33   6 C       61   1 H                                       1.0781791
    37   6 C       62   1 H                                       1.0778481
    38   6 C       63   1 H                                       1.0781740
    39   6 C       64   1 H                                       1.0796242
    40   6 C       65   1 H                                       1.0773582 (min)
    42   6 C       66   1 H                                       1.0802389
    43   6 C       67   1 H                                       1.0782565

 * 6 distinct bonds (by element types)

   Z      Z             #   av. dist./Å        max./Å        min./Å
   1 H    6 C          24     1.0785972     1.0803532     1.0773582
   6 C    6 C          36     1.3917063     1.4115473     1.3707824
   6 C    7 N           6     1.3954125     1.4129088     1.3837196
   6 C    8 O           4     1.3625897     1.3633739     1.3618014
   6 C   16 S           2     1.7782120     1.7782133     1.7782107
   8 O   16 S           2     1.4397516     1.4397523     1.4397509

           -------------------------------------------------
          |               Frequency Printout                |
           -------------------------------------------------
 projected vibrational frequencies (cm⁻¹)
eigval :       -0.00    -0.00    -0.00    -0.00     0.00     0.00
eigval :       13.83    24.90    27.30    40.11    47.99    59.35
eigval :       66.06    82.69    83.18    89.16    97.01   106.76
eigval :      115.71   120.59   138.14   152.06   167.16   173.00
eigval :      197.48   202.15   205.45   243.73   247.64   259.47
eigval :      267.18   275.05   278.60   286.01   310.35   330.66
eigval :      356.30   372.32   372.82   373.51   377.08   390.07
eigval :      395.27   406.33   409.73   414.00   421.06   427.81
eigval :      430.84   438.27   454.10   463.40   468.97   489.83
eigval :      492.20   506.31   512.02   514.14   524.59   538.78
eigval :      542.16   555.99   580.12   581.15   595.12   598.20
eigval :      600.04   631.88   633.88   642.45   653.42   655.71
eigval :      657.97   661.26   661.40   671.98   705.46   757.51
eigval :      771.60   771.76   773.38   778.80   789.77   792.91
eigval :      798.62   838.79   842.43   851.17   854.80   855.95
eigval :      863.63   865.93   866.62   871.58   891.64   894.25
eigval :      896.43   896.58   897.02   902.21   903.65   905.16
eigval :      906.15   907.24   908.86   914.37   916.54   917.18
eigval :      921.55   925.80   977.96   980.86  1045.84  1054.95
eigval :     1077.32  1079.57  1086.32  1088.20  1106.45  1113.20
eigval :     1115.30  1116.57  1117.82  1120.18  1121.39  1166.48
eigval :     1166.68  1170.74  1171.50  1173.88  1183.37  1189.87
eigval :     1195.06  1209.99  1210.09  1224.76  1230.90  1237.22
eigval :     1237.63  1244.41  1244.52  1247.67  1255.39  1284.36
eigval :     1292.51  1296.08  1305.84  1310.65  1325.53  1325.90
eigval :     1336.61  1338.49  1352.21  1365.92  1390.63  1402.98
eigval :     1405.34  1414.70  1414.83  1416.93  1425.45  1429.91
eigval :     1431.71  1432.68  1435.96  1437.10  1441.22  1485.51
eigval :     1491.64  1499.73  1504.01  1506.92  1514.60  1516.68
eigval :     1527.29  1531.46  1576.99  3075.77  3076.27  3076.86
eigval :     3077.26  3086.92  3087.09  3097.77  3097.84  3103.14
eigval :     3104.31  3104.91  3105.01  3105.12  3105.24  3106.78
eigval :     3107.12  3111.73  3111.80  3116.22  3116.38  3116.50
eigval :     3118.19  3119.68  3120.70
 reduced masses (amu)
   1: 15.88   2: 12.05   3: 12.24   4: 13.33   5: 13.21   6: 13.64   7: 11.94   8: 11.29
   9: 11.75  10: 11.28  11: 12.89  12: 12.22  13: 11.66  14: 12.24  15: 11.02  16: 10.71
  17: 12.37  18: 12.74  19: 10.92  20: 11.12  21: 11.26  22: 11.25  23: 13.00  24: 15.33
  25: 11.40  26: 12.06  27: 11.79  28: 11.04  29: 11.01  30: 11.38  31: 12.71  32: 12.59
  33: 11.90  34: 12.17  35: 12.52  36: 11.75  37: 12.40  38: 11.84  39:  9.86  40: 13.30
  41: 10.47  42: 10.50  43: 12.08  44: 11.88  45: 11.61  46: 13.71  47: 10.80  48: 10.03
  49:  9.98  50: 11.98  51: 11.16  52: 11.61  53: 11.22  54: 10.21  55: 10.14  56: 15.10
  57: 19.05  58: 13.08  59: 10.99  60: 11.98  61: 12.63  62: 12.48  63: 11.53  64: 11.45
  65: 12.84  66: 11.60  67: 11.51  68: 11.72  69: 11.55  70: 12.05  71: 11.80  72: 11.66
  73: 11.93  74: 11.88  75: 11.88  76: 13.71  77: 12.08  78:  6.56  79:  3.44  80:  3.26
  81:  3.33  82:  5.63  83:  8.17  84:  6.36  85:  9.95  86:  9.25  87:  3.37  88:  6.99
  89: 12.21  90:  9.10  91:  3.61  92:  3.52  93:  3.47  94:  4.94  95:  3.88  96:  4.00
  97:  6.66  98:  4.73  99:  7.73 100:  8.59 101:  9.52 102:  6.27 103:  3.39 104:  4.43
 105:  5.07 106:  6.72 107:  3.07 108:  3.07 109:  3.02 110:  6.68 111: 10.13 112:  9.86
 113:  8.83 114:  8.24 115:  5.83 116:  5.63 117:  6.04 118:  5.71 119: 16.25 120:  2.94
 121:  6.80 122:  7.38 123:  4.92 124: 10.36 125:  6.99 126:  2.93 127:  3.60 128:  2.27
 129:  2.01 130:  3.01 131:  4.92 132:  5.04 133:  3.36 134:  6.29 135:  6.30 136:  8.93
 137:  8.77 138:  6.07 139: 16.74 140:  4.72 141:  8.69 142:  5.31 143:  5.34 144: 10.08
 145: 10.64 146: 10.67 147: 10.49 148: 10.53 149: 11.66 150: 11.78 151: 11.26 152: 11.10
 153: 11.55 154: 10.42 155: 10.37 156:  9.53 157:  9.51 158: 10.03 159:  9.64 160:  8.73
 161: 10.17 162:  9.69 163:  9.87 164: 11.24 165:  9.86 166: 11.42 167:  9.91 168: 10.55
 169: 10.56 170: 10.98 171: 11.02 172: 11.01 173: 11.20 174: 11.13 175: 11.31 176: 11.33
 177: 11.62 178:  1.80 179:  1.80 180:  1.81 181:  1.81 182:  1.79 183:  1.79 184:  1.76
 185:  1.76 186:  1.85 187:  1.85 188:  1.82 189:  1.81 190:  1.80 191:  1.80 192:  1.84
 193:  1.85 194:  1.86 195:  1.86 196:  1.91 197:  1.91 198:  1.88 199:  1.88 200:  1.84
 201:  1.84
 IR intensities (km·mol⁻¹)
   1:  2.51   2:  0.56   3:  0.70   4:  0.22   5:  1.53   6:  3.37   7:  1.40   8:  1.00
   9:  1.17  10:  0.06  11:  3.86  12:  0.34  13:  2.40  14:  2.92  15:  0.26  16:  1.72
  17:  0.80  18:  0.76  19:  2.11  20:  0.60  21:  2.11  22:  0.92  23:  3.20  24:  0.84
  25:  1.34  26:  5.18  27:  1.08  28:  1.13  29:  0.46  30:  1.24  31:  0.54  32:  0.02
  33:  1.40  34: 25.53  35:  4.24  36: 30.22  37:  3.91  38:  8.63  39:  1.14  40: 32.17
  41: 17.63  42:  0.93  43: 29.16  44:  4.00  45: 14.21  46: 14.40  47: 16.25  48: 19.62
  49:  3.78  50:  7.47  51: 23.22  52: 12.63  53: 20.29  54:  6.74  55:  0.71  56:  5.99
  57:107.64  58:  5.47  59:  0.30  60:  1.47  61:  7.89  62: 17.45  63:  9.23  64:  2.47
  65: 33.80  66:  6.89  67:  1.25  68:  9.39  69:  6.41  70: 30.34  71:  0.42  72:  3.96
  73:  0.25  74:  2.00  75:  8.68  76: 40.19  77: 76.31  78:110.66  79: 19.28  80:  2.33
  81: 13.17  82: 51.61  83: 35.14  84:186.10  85: 14.04  86: 13.80  87: 10.06  88:  0.34
  89:  0.28  90:  7.41  91: 18.14  92:  8.14  93:  0.07  94: 11.41  95:  4.36  96:  2.86
  97: 23.38  98:  6.19  99: 18.95 100:  1.98 101:  1.40 102:  1.80 103:  0.08 104:  2.65
 105:  0.70 106:  5.91 107:  3.20 108:  0.16 109:  1.90 110: 18.54 111: 60.66 112:  0.33
 113:312.73 114: 19.02 115:  4.64 116: 14.37 117: 21.99 118: 11.44 119:****** 120:  3.81
 121:  4.92 122:  0.87 123:  6.17 124:521.96 125: 24.75 126:  1.33 127:  3.09 128:  6.76
 129:  1.48 130:  6.19 131:  3.05 132:  0.91 133: 84.43 134: 41.42 135:  1.10 136: 17.64
 137: 56.74 138:  0.80 139:182.24 140:  0.12 141:103.12 142: 13.31 143:  6.62 144: 22.39
 145: 79.51 146: 85.30 147: 26.55 148: 42.55 149: 30.47 150:  4.57 151:  5.05 152:  3.07
 153: 21.63 154:123.31 155:  0.59 156: 58.39 157: 12.15 158:110.88 159: 58.00 160:  5.50
 161:198.26 162: 71.38 163: 11.64 164:  3.26 165:  2.55 166:  2.03 167:168.14 168: 72.82
 169:240.38 170:  0.64 171: 57.57 172:204.39 173: 57.66 174:  8.45 175: 57.09 176:149.84
 177: 34.82 178:  0.84 179: 44.35 180:  4.60 181:  1.29 182: 11.34 183: 13.03 184: 38.28
 185: 11.35 186:  0.02 187: 16.99 188: 22.38 189: 56.07 190: 56.64 191:  6.02 192: 29.82
 193:  0.85 194:  4.27 195: 50.77 196: 70.43 197:  3.11 198:  9.64 199: 16.04 200:  3.39
 201: 11.86
 Raman intensities (Ä⁴*amu⁻¹)
   1:  0.00   2:  0.00   3:  0.00   4:  0.00   5:  0.00   6:  0.00   7:  0.00   8:  0.00
   9:  0.00  10:  0.00  11:  0.00  12:  0.00  13:  0.00  14:  0.00  15:  0.00  16:  0.00
  17:  0.00  18:  0.00  19:  0.00  20:  0.00  21:  0.00  22:  0.00  23:  0.00  24:  0.00
  25:  0.00  26:  0.00  27:  0.00  28:  0.00  29:  0.00  30:  0.00  31:  0.00  32:  0.00
  33:  0.00  34:  0.00  35:  0.00  36:  0.00  37:  0.00  38:  0.00  39:  0.00  40:  0.00
  41:  0.00  42:  0.00  43:  0.00  44:  0.00  45:  0.00  46:  0.00  47:  0.00  48:  0.00
  49:  0.00  50:  0.00  51:  0.00  52:  0.00  53:  0.00  54:  0.00  55:  0.00  56:  0.00
  57:  0.00  58:  0.00  59:  0.00  60:  0.00  61:  0.00  62:  0.00  63:  0.00  64:  0.00
  65:  0.00  66:  0.00  67:  0.00  68:  0.00  69:  0.00  70:  0.00  71:  0.00  72:  0.00
  73:  0.00  74:  0.00  75:  0.00  76:  0.00  77:  0.00  78:  0.00  79:  0.00  80:  0.00
  81:  0.00  82:  0.00  83:  0.00  84:  0.00  85:  0.00  86:  0.00  87:  0.00  88:  0.00
  89:  0.00  90:  0.00  91:  0.00  92:  0.00  93:  0.00  94:  0.00  95:  0.00  96:  0.00
  97:  0.00  98:  0.00  99:  0.00 100:  0.00 101:  0.00 102:  0.00 103:  0.00 104:  0.00
 105:  0.00 106:  0.00 107:  0.00 108:  0.00 109:  0.00 110:  0.00 111:  0.00 112:  0.00
 113:  0.00 114:  0.00 115:  0.00 116:  0.00 117:  0.00 118:  0.00 119:  0.00 120:  0.00
 121:  0.00 122:  0.00 123:  0.00 124:  0.00 125:  0.00 126:  0.00 127:  0.00 128:  0.00
 129:  0.00 130:  0.00 131:  0.00 132:  0.00 133:  0.00 134:  0.00 135:  0.00 136:  0.00
 137:  0.00 138:  0.00 139:  0.00 140:  0.00 141:  0.00 142:  0.00 143:  0.00 144:  0.00
 145:  0.00 146:  0.00 147:  0.00 148:  0.00 149:  0.00 150:  0.00 151:  0.00 152:  0.00
 153:  0.00 154:  0.00 155:  0.00 156:  0.00 157:  0.00 158:  0.00 159:  0.00 160:  0.00
 161:  0.00 162:  0.00 163:  0.00 164:  0.00 165:  0.00 166:  0.00 167:  0.00 168:  0.00
 169:  0.00 170:  0.00 171:  0.00 172:  0.00 173:  0.00 174:  0.00 175:  0.00 176:  0.00
 177:  0.00 178:  0.00 179:  0.00 180:  0.00 181:  0.00 182:  0.00 183:  0.00 184:  0.00
 185:  0.00 186:  0.00 187:  0.00 188:  0.00 189:  0.00 190:  0.00 191:  0.00 192:  0.00
 193:  0.00 194:  0.00 195:  0.00 196:  0.00 197:  0.00 198:  0.00 199:  0.00 200:  0.00
 201:  0.00
 output can be read by thermo (or use thermo option).
 writing <g98.out> molden fake output.
 recommended (thermochemical) frequency scaling factor: 1.0
           -------------------------------------------------
          |             Thermodynamic Functions             |
           -------------------------------------------------

Molecule has the following symmetry elements: (C2) 
It seems to be the C2 point group
c2  symmetry found (for desy threshold:  0.10E+00) used in thermo

          ...................................................
          :                      SETUP                      :
          :.................................................:
          :  # frequencies                         195      :
          :  # imaginary freq.                       0      :
          :  linear?                             false      :
          :  only rotor calc.                    false      :
          :  symmetry                               c2      :
          :  rotational number                       2      :
          :  scaling factor                  1.0000000      :
          :  rotor cutoff                   50.0000000 cm⁻¹ :
          :  imag. cutoff                  -20.0000000 cm⁻¹ :
          :.................................................:

    mode    ω/cm⁻¹     T·S(HO)/kcal·mol⁻¹    T·S(FR)/kcal·mol⁻¹   T·S(vib)
   ------------------------------------------------------------------------
       1     13.83    -2.19634 (  0.58%)    -1.43718 ( 99.42%)    -1.44160
       2     24.90    -1.84824 (  5.80%)    -1.26303 ( 94.20%)    -1.29694
       3     27.30    -1.79393 (  8.16%)    -1.23584 ( 91.84%)    -1.28136
       4     40.11    -1.56634 ( 29.29%)    -1.12180 ( 70.71%)    -1.25201
       5     47.99    -1.46049 ( 45.91%)    -1.06869 ( 54.09%)    -1.24855
       6     59.35    -1.33529 ( 66.51%)    -1.00574 ( 33.49%)    -1.22491
       7     66.06    -1.27234 ( 75.29%)    -0.97403 ( 24.71%)    -1.19863
       8     82.69    -1.14073 ( 88.21%)    -0.90751 ( 11.79%)    -1.11322
       9     83.18    -1.13725 ( 88.45%)    -0.90575 ( 11.55%)    -1.11052
      10     89.16    -1.09672 ( 91.00%)    -0.88519 (  9.00%)    -1.07768
      11     97.01    -1.04756 ( 93.41%)    -0.86020 (  6.59%)    -1.03521
      12    106.76    -0.99194 ( 95.41%)    -0.83182 (  4.59%)    -0.98459
      13    115.71    -0.94538 ( 96.63%)    -0.80798 (  3.37%)    -0.94075
      14    120.59    -0.92155 ( 97.13%)    -0.79574 (  2.87%)    -0.91794
      15    138.14    -0.84362 ( 98.31%)    -0.75549 (  1.69%)    -0.84213
      16    152.06    -0.78900 ( 98.84%)    -0.72705 (  1.16%)    -0.78829
      17    167.16    -0.73560 ( 99.21%)    -0.69901 (  0.79%)    -0.73531
      18    173.00    -0.71635 ( 99.31%)    -0.68883 (  0.69%)    -0.71616
      19    197.48    -0.64293 ( 99.59%)    -0.64962 (  0.41%)    -0.64296
      20    202.15    -0.63012 ( 99.63%)    -0.64270 (  0.37%)    -0.63017
      21    205.45    -0.62127 ( 99.65%)    -0.63791 (  0.35%)    -0.62133
      22    243.73    -0.52936 ( 99.82%)    -0.58729 (  0.18%)    -0.52946
      23    247.64    -0.52097 ( 99.83%)    -0.58258 (  0.17%)    -0.52107
      24    259.47    -0.49651 ( 99.86%)    -0.56875 (  0.14%)    -0.49661
      25    267.18    -0.48132 ( 99.88%)    -0.56007 (  0.12%)    -0.48142
      26    275.05    -0.46639 ( 99.89%)    -0.55148 (  0.11%)    -0.46649
      27    278.60    -0.45983 ( 99.90%)    -0.54768 (  0.10%)    -0.45992
      28    286.01    -0.44647 ( 99.91%)    -0.53990 (  0.09%)    -0.44655
   ------------------------------------------------------------------------

   temp. (K)  partition function   enthalpy   heat capacity  entropy
                                   cal/mol     cal/K/mol   cal/K/mol   J/K/mol
 298.15  VIB  0.412E+14            19825.191    130.719    119.969
         ROT  0.191E+08              888.752      2.981     36.296
         INT  0.786E+21            20713.944    133.700    156.265
         TR   0.135E+29             1481.254      4.968     44.941
         TOT                       22195.1976   138.6681   201.2060   841.8458

       T/K    H(0)-H(T)+PV         H(T)/Eh          T*S/Eh         G(T)/Eh
   ------------------------------------------------------------------------
    298.15    0.353703E-01    0.524984E+00    0.955994E-01    0.429385E+00
   ------------------------------------------------------------------------

         :::::::::::::::::::::::::::::::::::::::::::::::::::::
         ::                  THERMODYNAMIC                  ::
         :::::::::::::::::::::::::::::::::::::::::::::::::::::
         :: total free energy        -114.191331310529 Eh   ::
         ::.................................................::
         :: total energy             -114.620715976444 Eh   ::
         :: zero point energy           0.489613813738 Eh   ::
         :: G(RRHO) w/o ZPVE           -0.060229147823 Eh   ::
         :: G(RRHO) contrib.            0.429384665915 Eh   ::
         :::::::::::::::::::::::::::::::::::::::::::::::::::::

optimized geometry written to: xtbopt.xyz


           -------------------------------------------------
          | TOTAL ENERGY             -114.620715976444 Eh   |
          | TOTAL ENTHALPY           -114.095731863876 Eh   |
          | TOTAL FREE ENERGY        -114.191331310529 Eh   |
          | GRADIENT NORM               0.000101651104 Eh/α |
           -------------------------------------------------

------------------------------------------------------------------------
 * finished run on 2025/09/08 at 07:15:16.790     
------------------------------------------------------------------------
 total:
 * wall-time:     0 d,  0 h,  0 min,  8.670 sec
 *  cpu-time:     0 d,  0 h,  5 min, 19.438 sec
 * ratio c/w:    36.846 speedup
 SCF:
 * wall-time:     0 d,  0 h,  0 min,  0.294 sec
 *  cpu-time:     0 d,  0 h,  0 min, 11.555 sec
 * ratio c/w:    39.356 speedup
 ANC optimizer:
 * wall-time:     0 d,  0 h,  0 min,  3.449 sec
 *  cpu-time:     0 d,  0 h,  2 min, 17.933 sec
 * ratio c/w:    39.995 speedup
 analytical hessian:
 * wall-time:     0 d,  0 h,  0 min,  4.884 sec
 *  cpu-time:     0 d,  0 h,  2 min, 49.102 sec
 * ratio c/w:    34.624 speedup

