$hessian                                                                        
        0.2096940908   0.1358381907   0.2451713230  -0.1736811417  -0.1004004605
       -0.2058103190  -0.0411759362  -0.0326864454  -0.0401909410  -0.0038072498
       -0.0026273173   0.0043326333  -0.0047399731   0.0006702946   0.0003411884
        0.0038202949   0.0017986518  -0.0011230228  -0.0029457480  -0.0015294481
        0.0002278862   0.0005902945  -0.0000625973  -0.0011329001   0.0000341488
       -0.0000982406  -0.0000952439  -0.0004156956  -0.0001641376   0.0000527750
        0.0002837981   0.0004421509   0.0001442245   0.0002901418  -0.0005028753
       -0.0002547506  -0.0000112533   0.0008249271   0.0004317897  -0.0007430612
       -0.0002965748   0.0000307271   0.0004373715  -0.0006691146  -0.0004787018
       -0.0000732303   0.0005717000   0.0002531108   0.0004897462  -0.0001674752
       -0.0001807434  -0.0004515647  -0.0001710545  -0.0000040752  -0.0000190754
        0.0000962363   0.0001254421   0.0004472685   0.0004899427   0.0011035403
       -0.0011418961  -0.0001696463  -0.0019856397   0.0023362246   0.0000335610
       -0.0058334916   0.0166320478  -0.0011267301   0.0033035326   0.0006455010
        0.0005558011   0.0011939965  -0.0010425921  -0.0002740999  -0.0005715154
       -0.0000696955   0.0002172231   0.0003274993  -0.0006346709   0.0001773940
       -0.0011546503  -0.0012262989   0.0000982768   0.0005200851   0.0004707468
        0.0000240312   0.0004267743  -0.0005328524   0.0000487666  -0.0002487595
       -0.0001502367   0.0000626801  -0.0000186579  -0.0000104218  -0.0000207049
        0.0000884918   0.0001603743   0.0002027968  -0.0000297367   0.0005216891
        0.0002016363   0.0001685573  -0.0006713554   0.0015403726  -0.0006834367
       -0.0001131890  -0.0008017642   0.0005773995   0.0001214471  -0.0000592579
        0.0002478096  -0.0011852133  -0.0016827478  -0.0008138163  -0.0008092199
        0.0001192898   0.0001759387   0.0009692850  -0.0011156838   0.0000392490
       -0.0006829712   0.0012201887  -0.0001519751  -0.0003758917  -0.0004521445
        0.0000834460   0.0001814155  -0.0001819073   0.0002952293  -0.0002937007
       -0.0000122115  -0.0000459573   0.0001077267  -0.0000403899   0.0000324827
       -0.0001716705  -0.0000893473  -0.0000308650   0.0002998335   0.0000541308
        0.0000300443  -0.0001609990   0.0003142823  -0.0000569651  -0.0002664326
       -0.0001467417  -0.0000754167   0.0001874465   0.0000633355   0.0000624898
       -0.0000583516  -0.0001305200   0.0000042122   0.0000414091   0.0000995908
        0.0000106563  -0.0000783404  -0.0000995363  -0.0000078008   0.0007846170
       -0.0000420560   0.0000191289   0.0000507950   0.0001217776   0.0000818306
       -0.0000621026  -0.0000494667   0.0002958059   0.0001769318  -0.0005668243
        0.0001229791  -0.0007143657  -0.0001414070  -0.0000515571   0.0000153102
       -0.0001218486  -0.0000514359  -0.0000070555   0.0000807987   0.0000696156
       -0.0000826317   0.0000484147   0.0000442672  -0.0000637870  -0.0000022925
        0.0000053724  -0.0000544264  -0.0000435789  -0.0000051783  -0.0000311416
       -0.0000893896  -0.0000374631   0.0000463952  -0.0000585084  -0.0000828289
       -0.0000527056   0.0001602553   0.0000424592   0.0001381133  -0.0000321231
        0.0000312171  -0.0001576214  -0.0002321170   0.0001366364   0.0000175329
        0.0000490175   0.0001730396  -0.0000839334   0.0000956212  -0.0000930707
        0.0001830560   0.0000114332   0.0001526102   0.0000238537   0.0000587447
       -0.0000013664  -0.0001319657   0.0002887693  -0.0002725956   0.0001620920
       -0.0001240285  -0.0001103315   0.0000550927  -0.0000741505  -0.0000540885
       -0.0000177341   0.0000136091  -0.0000694189  -0.0013194460   0.0007933630
        0.0006475596   0.0003427956  -0.0004172131   0.0002673110  -0.0000083349
       -0.0000006191  -0.0002818315   0.0000692596  -0.0000323103   0.0000088975
        0.0000314805   0.0001217339  -0.0000151977  -0.0000089088   0.0000537746
       -0.0000129320  -0.0000274593   0.0000363487  -0.0000175852  -0.0000537406
        0.0000166988  -0.0000185137  -0.0000313730  -0.0000236061  -0.0000043099
        0.0000519385   0.0000494592   0.0000039367  -0.0001252180   0.0000239010
        0.0001057887  -0.0001376856   0.0000415419   0.0001480962
        0.1358381907   0.1295961483   0.2212868615  -0.1010477012  -0.1352281684
       -0.1778540537  -0.0320259618  -0.0017546049  -0.0223862205  -0.0033161796
        0.0011585238   0.0029064039  -0.0021328465  -0.0010799052  -0.0003716366
        0.0022285782   0.0008222294  -0.0004176261  -0.0015678708  -0.0002025214
        0.0002200711   0.0003625798  -0.0000748673  -0.0006435235  -0.0000582499
       -0.0001240146  -0.0000713689  -0.0002826975  -0.0000864558   0.0000487629
        0.0001803082   0.0002749781   0.0000874374   0.0001672833  -0.0002850232
       -0.0001438338  -0.0000623276   0.0003624548   0.0001898944  -0.0004627988
        0.0000079309   0.0001400111   0.0004124664  -0.0003713900  -0.0003158228
       -0.0000247269   0.0002977236   0.0001318371   0.0002538560  -0.0000829644
       -0.0000898654  -0.0002279503  -0.0001028232  -0.0000020066  -0.0000303160
        0.0000771608   0.0001085030   0.0001856473  -0.0000109898   0.0004038285
       -0.0003425597  -0.0012145721  -0.0010568926   0.0015848748   0.0003462654
       -0.0032509607   0.0007597576   0.0104926790  -0.0222637493  -0.0002784839
        0.0017616120   0.0024547151   0.0012963529   0.0008469895  -0.0000575869
       -0.0002220031   0.0000144877   0.0002707782   0.0016025920   0.0000926494
       -0.0003872361  -0.0013837596  -0.0036613056  -0.0016692252   0.0000433369
       -0.0004617068   0.0003882356   0.0003763163  -0.0020888766   0.0015362341
       -0.0002011596   0.0006902741   0.0006677078  -0.0005146085   0.0000802200
        0.0000579009   0.0004296635  -0.0003251114  -0.0000539662   0.0000699184
        0.0006377052   0.0001786713   0.0006879471  -0.0000122796  -0.0006705202
       -0.0003775796  -0.0002079702   0.0003331954  -0.0002738045   0.0004078972
        0.0001053653   0.0000375111  -0.0008774114  -0.0005619364  -0.0004745437
        0.0001050018   0.0005017581   0.0002633984  -0.0004871680   0.0000398743
       -0.0000350982   0.0008287256  -0.0000654863  -0.0004077165  -0.0005080621
        0.0000955498   0.0000382970   0.0000189318   0.0000140120  -0.0000842956
        0.0000981285  -0.0000557176   0.0001122988  -0.0000181968   0.0000336729
       -0.0000966720  -0.0000534662  -0.0000282149  -0.0001056333   0.0001606742
       -0.0000433513   0.0002521624   0.0001932527   0.0000333060  -0.0001928285
       -0.0002317298  -0.0000216987   0.0000773316   0.0000263811   0.0000286731
       -0.0000131654  -0.0000392259   0.0000030329   0.0000214802   0.0000345862
        0.0000080822   0.0000065277  -0.0000302294   0.0000073204   0.0000904744
        0.0000353097  -0.0000930672   0.0000572941   0.0002151855  -0.0000436999
        0.0001439450  -0.0000789940   0.0000828338   0.0001700542  -0.0000968527
        0.0001399092  -0.0003859446  -0.0003446569  -0.0000649918   0.0000296564
       -0.0000671680  -0.0000487210  -0.0000188690   0.0000652079   0.0000541013
       -0.0000330975   0.0000287659   0.0000216745  -0.0000222622   0.0000066929
        0.0000044913  -0.0000305685  -0.0000163930  -0.0000018539  -0.0000146486
       -0.0000406911  -0.0000164547   0.0000195942  -0.0000132452  -0.0000304718
       -0.0000417097   0.0000453712   0.0000009432   0.0000308766   0.0000466239
        0.0000462372   0.0001721357   0.0000075280   0.0002650360  -0.0004816352
        0.0001433369  -0.0000970599  -0.0001335752   0.0000459075   0.0000750787
       -0.0002608169   0.0000881321  -0.0001101988   0.0001623528   0.0000454255
       -0.0001965648  -0.0002815561  -0.0002539502   0.0000149359  -0.0000338788
        0.0000634580  -0.0000764164  -0.0000406701  -0.0000458324  -0.0001276184
       -0.0000565007  -0.0000039417  -0.0000370133   0.0001620764   0.0001627908
        0.0004657888  -0.0001356197   0.0000815782  -0.0001205070  -0.0000548056
       -0.0000896098   0.0000139315   0.0000816225   0.0000405893   0.0000328893
        0.0000143632   0.0000262937   0.0000004094   0.0000101829   0.0000024947
        0.0000030711  -0.0000063931   0.0000144890  -0.0000079607  -0.0000096390
        0.0000074132  -0.0000058614   0.0000037398  -0.0000007769  -0.0000004144
        0.0000152330   0.0000231305  -0.0000025802  -0.0000618714   0.0000412274
        0.0000088098  -0.0001046773   0.0000025891   0.0000521184
        0.2451713230   0.2212868615   0.5462698542  -0.2045405863  -0.1797882729
       -0.4685042437  -0.0390749384  -0.0195043387  -0.0079543710   0.0016121982
        0.0008264055   0.0045762730  -0.0040292753   0.0002220307   0.0015760010
        0.0042819753   0.0016309837  -0.0004793068  -0.0025330589  -0.0008116245
        0.0005945397   0.0003026511   0.0002766647  -0.0009685191  -0.0000998015
       -0.0004235413  -0.0001723942  -0.0005989373  -0.0001042562   0.0001564909
        0.0003819938   0.0005228490   0.0001524420   0.0003445433  -0.0005395620
       -0.0002521616   0.0000078939   0.0007833861   0.0003558798  -0.0008257396
       -0.0000879785   0.0002066915   0.0007366370  -0.0006806227  -0.0005830683
       -0.0000267946   0.0005902801   0.0002512933   0.0005637378  -0.0001487580
       -0.0001689574  -0.0004808444  -0.0003322832  -0.0000698530  -0.0001589033
        0.0002875548   0.0002932546   0.0003393540  -0.0003463071   0.0006777536
       -0.0030432454  -0.0023262368  -0.0008766836   0.0061321488   0.0025108954
       -0.0062191124  -0.0099881314  -0.0238097037  -0.0660314526   0.0045405138
        0.0037823395  -0.0036344005   0.0031956592  -0.0018097186  -0.0008054926
       -0.0006354564  -0.0006774935   0.0007246824   0.0017526085  -0.0001014450
        0.0010892486  -0.0025439437  -0.0037851913   0.0001599293   0.0001904093
        0.0007730930  -0.0005232059  -0.0001159045   0.0016080304  -0.0002657779
       -0.0001066606  -0.0001485858  -0.0001712486   0.0003078308   0.0001181454
        0.0001115853  -0.0001234803   0.0002232578   0.0000590117  -0.0000362152
       -0.0004370655   0.0004077804  -0.0007102889   0.0009010954  -0.0007451311
        0.0000308651  -0.0004374239   0.0005207844   0.0004102566  -0.0004014690
        0.0001555293   0.0005407815   0.0000998729  -0.0002169542  -0.0001224100
        0.0001353024  -0.0002495578   0.0003526383  -0.0003914263  -0.0002430090
       -0.0002062756   0.0004456231   0.0002049173  -0.0000965696  -0.0002364899
       -0.0001138712   0.0000005458   0.0000219900   0.0003675130  -0.0001775521
        0.0000071567   0.0000966272   0.0000160635  -0.0000313818   0.0000322187
       -0.0000522578  -0.0000146876   0.0000410992   0.0000230788   0.0000375119
       -0.0000903468   0.0000154441   0.0001124199   0.0000658629  -0.0000688923
       -0.0000714505  -0.0000648289   0.0000403463   0.0000069511   0.0000366464
        0.0000000758  -0.0000224668   0.0000194636   0.0000325645   0.0000278643
        0.0000272832  -0.0000400163  -0.0000274560   0.0000378611   0.0001968247
       -0.0000096883  -0.0000436567  -0.0000790570   0.0000138564   0.0001793540
       -0.0001759104   0.0000371233   0.0001375835   0.0006525193  -0.0004951657
        0.0005912947  -0.0001918663  -0.0001611565   0.0001157371   0.0000117613
       -0.0000175071  -0.0000656279  -0.0000311394   0.0001048116   0.0000712559
       -0.0000452301   0.0000545430   0.0000303275  -0.0000278078   0.0000092115
       -0.0000013311  -0.0000435262  -0.0000187653  -0.0000057768  -0.0000052146
       -0.0000621136  -0.0000167340   0.0000348437  -0.0000078024  -0.0000646530
       -0.0000307479   0.0000472668  -0.0000581093  -0.0001609308   0.0000457092
        0.0001155839  -0.0003864508  -0.0000280545   0.0018473204  -0.0010624101
        0.0002010973  -0.0004598491   0.0003592704  -0.0001754245  -0.0006992592
       -0.0004363364   0.0001104388  -0.0003025730  -0.0000450058   0.0001107205
       -0.0002068113  -0.0003776916  -0.0000752111  -0.0003502237  -0.0000697141
        0.0000854386  -0.0000863657  -0.0000091712  -0.0000117338  -0.0000161288
       -0.0000669335   0.0000937198  -0.0001132290   0.0009061577   0.0008051870
       -0.0002340817   0.0003094795  -0.0003872758   0.0002250646   0.0000271701
       -0.0000534714  -0.0003654573   0.0000667311  -0.0000064869  -0.0000945212
        0.0000145403   0.0000426333  -0.0000309165   0.0000020800   0.0000086715
       -0.0000264980  -0.0000041834   0.0000119272  -0.0000187461  -0.0000167799
        0.0000039906  -0.0000142921  -0.0000043879  -0.0000084990  -0.0000105461
        0.0000120172   0.0000186657  -0.0000309743  -0.0000992997  -0.0000097910
        0.0000739028  -0.0001115586  -0.0000181938   0.0000643683
       -0.1736811417  -0.1010477012  -0.2045405863   0.4698860900   0.1557829359
        0.1081497946  -0.1537661341  -0.0335320798   0.0138156971  -0.0248382795
       -0.0105934759  -0.0170500992   0.0088052212  -0.0020220895  -0.0069459126
       -0.0109419234  -0.0043956448   0.0010483466   0.0082109513   0.0039214054
       -0.0004705427  -0.0014347987   0.0001123665   0.0029664129   0.0000561622
        0.0002271695   0.0001984534   0.0010083404   0.0003926656  -0.0001143543
       -0.0006810049  -0.0010486521  -0.0003285194  -0.0007299797   0.0011903800
        0.0005979606   0.0001590221  -0.0019618930  -0.0010570223   0.0016954576
        0.0006837286  -0.0000485987  -0.0009160025   0.0016888915   0.0011210231
        0.0001663276  -0.0014213405  -0.0005860278  -0.0012083388   0.0003808866
        0.0004322682   0.0010674753   0.0003878912   0.0000342502   0.0001876537
       -0.0002038268  -0.0002136823  -0.0011718548  -0.0011909631  -0.0029782887
        0.0071721056   0.0016835071   0.0059208981  -0.0292919562  -0.0112703238
        0.0225456634  -0.0971413145   0.0025765358   0.0538451556  -0.0003944635
        0.0074205832   0.0082868526   0.0066900360   0.0004477644   0.0022356973
       -0.0005913911  -0.0005229716   0.0001992706   0.0055170311  -0.0028397978
        0.0045967141  -0.0089271983  -0.0075705163   0.0120859210  -0.0020756015
        0.0004337734  -0.0007659037   0.0015903340   0.0015538914  -0.0000760301
        0.0001760555  -0.0004704105  -0.0000151035   0.0002732051  -0.0001860340
       -0.0001731337  -0.0003789653  -0.0000471087   0.0001281824  -0.0006959206
       -0.0009062092   0.0001431073  -0.0007451282  -0.0011444871   0.0005866887
        0.0006930022   0.0009924856  -0.0006459820   0.0000069981  -0.0002738597
        0.0001387005  -0.0002773472   0.0009099298   0.0008591519   0.0007949509
       -0.0000941427   0.0000186586  -0.0010400832   0.0016326717  -0.0003457864
        0.0011373511  -0.0015547450   0.0003697194   0.0003386781   0.0002472861
       -0.0001926246  -0.0003429439   0.0004502131  -0.0003582898   0.0004963209
        0.0000572579   0.0001393993  -0.0001274807   0.0000722945  -0.0000308264
        0.0002231766   0.0001332346   0.0000633098  -0.0006379100   0.0000596917
       -0.0001558387   0.0005029040  -0.0004648967   0.0001814719   0.0003469934
        0.0001200434   0.0000914169  -0.0002873808  -0.0000842744  -0.0000882171
        0.0000859460   0.0002140870   0.0000001514  -0.0000461600  -0.0001640724
       -0.0000009611   0.0001312755   0.0001444332   0.0000342696  -0.0012635866
        0.0001238612  -0.0000835950  -0.0001234458  -0.0003120227   0.0001019136
       -0.0001367804   0.0001659722  -0.0000309572   0.0002920936   0.0019834888
        0.0018990084  -0.0000182746  -0.0000263703   0.0002552815  -0.0000878130
        0.0002092204   0.0001026293  -0.0000058089  -0.0001920172  -0.0001724369
        0.0001703378  -0.0001048412  -0.0000974047   0.0001353943   0.0000039749
       -0.0000097485   0.0001060584   0.0000981088  -0.0000040540   0.0000605598
        0.0001962992   0.0000883389  -0.0001249137   0.0001607686   0.0002016154
        0.0000312850  -0.0002504218  -0.0001228546  -0.0002375978  -0.0000740883
       -0.0001845675   0.0004600875   0.0004432523  -0.0015551732  -0.0018123121
       -0.0008239335  -0.0018169568   0.0001532134  -0.0003917485  -0.0002502818
       -0.0011974632   0.0001192529  -0.0010934091  -0.0001094520   0.0000835728
        0.0001410633  -0.0001090696   0.0004456609  -0.0005295809  -0.0003705751
        0.0003698733   0.0002371600  -0.0000958486   0.0001909927   0.0000953137
        0.0000518409   0.0001263156   0.0000937678  -0.0007178154  -0.0011631251
       -0.0005675477  -0.0003066375   0.0003096775  -0.0003445938  -0.0000788151
       -0.0001203869   0.0003022809  -0.0000179965   0.0000968736  -0.0000599775
       -0.0000487477  -0.0002443922   0.0000162535   0.0000305841  -0.0001046841
        0.0000134703   0.0000442085  -0.0000586758   0.0000208711   0.0000907641
       -0.0000244290   0.0000264213   0.0000534481   0.0000399813   0.0000021251
       -0.0000787287  -0.0000696885  -0.0000227622   0.0001269594  -0.0000664007
       -0.0001530042   0.0000864849  -0.0000464093  -0.0001508845
       -0.1004004605  -0.1352281684  -0.1797882729   0.1557829359   0.2880000467
        0.1686619831  -0.0319872144  -0.0759499136   0.0076175162  -0.0078600908
       -0.0056496136  -0.0086384586   0.0021269119   0.0071523329  -0.0017681537
       -0.0051462211  -0.0015101318   0.0006116643   0.0042283043  -0.0005142592
       -0.0003422982  -0.0004934097   0.0001797406   0.0014775811   0.0000253177
        0.0002512885   0.0001316484   0.0005346905   0.0001612901  -0.0001222272
       -0.0003646195  -0.0005357144  -0.0001705232  -0.0003338176   0.0006071188
        0.0002856242   0.0002177785  -0.0008383919  -0.0004714805   0.0008383217
        0.0001371615  -0.0001846134  -0.0006585431   0.0006786573   0.0005348734
        0.0000335234  -0.0005995126  -0.0002592431  -0.0005002221   0.0001838169
        0.0001838582   0.0004516056   0.0001761025  -0.0000235396   0.0000820700
       -0.0000415384  -0.0001358081  -0.0006569524  -0.0002664431  -0.0009824778
       -0.0002482518   0.0082054745   0.0029723659  -0.0127305654  -0.0047363591
        0.0091534646  -0.0051486960  -0.0642504989   0.0044586962   0.0123992762
       -0.0037920594  -0.0227410338   0.0000578529  -0.0045023807  -0.0029507022
        0.0000749495  -0.0009813667  -0.0000972342  -0.0037139850  -0.0034488098
        0.0024541171  -0.0092510899   0.0028498062   0.0195783047  -0.0014374490
       -0.0001250899   0.0020239456  -0.0005172555  -0.0003576333  -0.0003475406
        0.0005837611  -0.0005648571  -0.0007149455   0.0003375043  -0.0000695864
       -0.0000244804  -0.0003617045   0.0002960716  -0.0000046030   0.0001087537
       -0.0006395004   0.0002003468  -0.0009989314   0.0000581889   0.0007246092
        0.0006367580   0.0003575815  -0.0004748820   0.0002031931  -0.0004064039
       -0.0000238688  -0.0002753374   0.0007180779   0.0005978017   0.0005342797
       -0.0001276457  -0.0002468001  -0.0004800239   0.0008131788  -0.0001575462
        0.0002199045  -0.0010698003   0.0001324265   0.0004610741   0.0005949367
       -0.0001255229  -0.0001526085   0.0000135855  -0.0000181197   0.0002414423
       -0.0000094600   0.0001330270  -0.0001362685   0.0000194112  -0.0000321471
        0.0001125877   0.0000865606   0.0000269635  -0.0000382234  -0.0001161882
        0.0000023358  -0.0001654078  -0.0002541173  -0.0000058237   0.0002368970
        0.0002392536   0.0000349872  -0.0001292223  -0.0000457067  -0.0000436633
        0.0000302509   0.0000773972  -0.0000025572  -0.0000281054  -0.0000614097
       -0.0000081251   0.0000082151   0.0000525642  -0.0000042025  -0.0003375336
       -0.0000111065   0.0000731325  -0.0000366052  -0.0002806181   0.0000346957
       -0.0001516665   0.0000503709  -0.0000559543   0.0009476728  -0.0016632108
        0.0002659146   0.0001373439   0.0003860553   0.0002049333  -0.0000953348
        0.0000792478   0.0001003026   0.0000129398  -0.0001064861  -0.0000968989
        0.0000660431  -0.0000565931  -0.0000335250   0.0000592608  -0.0000149826
       -0.0000008879   0.0000515689   0.0000272996   0.0000026304   0.0000326695
        0.0000787930   0.0000429963  -0.0000474895   0.0000508302   0.0000705457
        0.0000622201  -0.0000672116  -0.0000012410  -0.0000986576  -0.0000067038
       -0.0000429599   0.0011267006  -0.0023724730  -0.0011951894   0.0007121145
       -0.0002761991  -0.0010084472   0.0007295641  -0.0003147526  -0.0011981876
        0.0002931798  -0.0001153179   0.0000997268  -0.0008384006  -0.0000559304
        0.0011125965   0.0015068102  -0.0001712541   0.0008971571  -0.0000000626
        0.0000398028   0.0000440144   0.0000980098   0.0001431661   0.0001574351
        0.0000689291   0.0000840931  -0.0000105855  -0.0007437747  -0.0005605625
       -0.0003423867  -0.0000837789   0.0001272201  -0.0000003815   0.0001601990
        0.0000715805  -0.0000102803  -0.0001351879  -0.0000835761  -0.0000975713
       -0.0000334156  -0.0000685598   0.0000001418  -0.0000155223  -0.0000232769
       -0.0000017811   0.0000138257  -0.0000239564   0.0000107780   0.0000250422
       -0.0000116328   0.0000096068   0.0000068808   0.0000083447   0.0000003828
       -0.0000257768  -0.0000327776  -0.0000009536   0.0000775322  -0.0000454818
       -0.0000460715   0.0001012172  -0.0000012242  -0.0000709339
       -0.2058103190  -0.1778540537  -0.4685042437   0.1081497946   0.1686619831
        0.7128738421   0.0235508257   0.0046984386  -0.0652827409  -0.0224173549
       -0.0089727249  -0.0016244369  -0.0014632554  -0.0003122268  -0.0041391750
       -0.0021498740  -0.0003791094  -0.0013130419   0.0008370130  -0.0003096713
       -0.0003551057   0.0000646198  -0.0003238146   0.0002564471   0.0001152620
        0.0003804881   0.0001837572   0.0003860315   0.0000061281  -0.0001244269
       -0.0002053780  -0.0003126940  -0.0000973666  -0.0001809256   0.0002862057
        0.0001417762  -0.0000708684  -0.0003661743  -0.0001343529   0.0004647879
       -0.0000545163  -0.0001846772  -0.0005409105   0.0003207590   0.0003264610
        0.0000226448  -0.0003178169  -0.0001434314  -0.0003286647   0.0001086602
        0.0001090741   0.0002169044   0.0002717115   0.0000980367   0.0001624332
       -0.0002900517  -0.0002407802  -0.0000888796   0.0006334978  -0.0000669812
        0.0047698980   0.0040002680  -0.0041364376   0.0214600218   0.0090334120
        0.0016649626   0.0544930896   0.0042457792  -0.1383613674   0.0025640823
       -0.0149974344  -0.0196735864   0.0011162638  -0.0019542896   0.0041115359
        0.0008866889   0.0005291676  -0.0015461650   0.0015114598   0.0010884505
        0.0024797368   0.0155024183   0.0122364976  -0.0132537029  -0.0026403481
        0.0000165926  -0.0002966303   0.0002397396   0.0002976897  -0.0005598160
       -0.0002198593  -0.0001396326  -0.0000211420  -0.0001237549  -0.0001495191
       -0.0001147670  -0.0001540194  -0.0003083415   0.0000472659   0.0001424486
       -0.0002177332  -0.0007762992   0.0014190929  -0.0013692225   0.0010726400
       -0.0002753174   0.0004822509  -0.0006582030  -0.0005491163   0.0006341749
       -0.0005012383  -0.0002799486   0.0005420652   0.0008363815   0.0002180395
       -0.0002635629   0.0002457700  -0.0004330482   0.0001880974   0.0004186566
        0.0001267094  -0.0004020963  -0.0003389609   0.0001106450   0.0003782590
        0.0001728736   0.0000342679  -0.0002018647  -0.0004409059   0.0001263143
        0.0000501959  -0.0001782873  -0.0000129477   0.0000207887  -0.0000361472
        0.0000227374  -0.0000055276  -0.0000679464   0.0000726711  -0.0000432972
        0.0001285130  -0.0001625414  -0.0000378032  -0.0001168382   0.0000241196
        0.0000662062   0.0000670646  -0.0000090206  -0.0000065912  -0.0000315079
       -0.0000028263  -0.0000071381  -0.0000227404  -0.0000286871  -0.0000032917
       -0.0000348024   0.0000122389   0.0000167117  -0.0000583857  -0.0000616450
       -0.0000145985   0.0000677499   0.0002062282   0.0000932338  -0.0004244897
        0.0003777297  -0.0001810098  -0.0004399765  -0.0007512123  -0.0004541753
       -0.0005604295  -0.0011727288  -0.0003143991  -0.0002181033  -0.0000426026
       -0.0000153135   0.0000245325   0.0000346407  -0.0000559116  -0.0000263542
        0.0000056566  -0.0000243489  -0.0000096064   0.0000024666  -0.0000104585
        0.0000055679   0.0000173591  -0.0000054238   0.0000077223  -0.0000163463
        0.0000177406  -0.0000089620  -0.0000047904  -0.0000264660   0.0000212955
       -0.0000350638   0.0000777495   0.0000729280   0.0014767629   0.0003521395
       -0.0003530551   0.0019826469   0.0001395778  -0.0017733598  -0.0002616637
        0.0013072406   0.0001314160   0.0000670137   0.0003384104   0.0006310544
       -0.0007490172   0.0000754498  -0.0000896922  -0.0001324873  -0.0003997848
        0.0002291249  -0.0004803162   0.0008233462   0.0001343703   0.0001735810
       -0.0002496234   0.0000294781  -0.0000132250  -0.0000713691   0.0000126295
        0.0000657869  -0.0002346925   0.0000327026  -0.0012678194  -0.0012010596
        0.0003078047  -0.0004261922   0.0004719621  -0.0002518472   0.0001822850
       -0.0000022285   0.0005053974  -0.0001091269  -0.0000902107   0.0001343734
       -0.0000120849   0.0000069223   0.0000325515  -0.0000149703   0.0000137111
        0.0000305983  -0.0000028757  -0.0000022384   0.0000191140   0.0000021694
       -0.0000019755   0.0000119837  -0.0000028114   0.0000019017   0.0000122881
       -0.0000016186  -0.0000093223   0.0000448434   0.0001199809   0.0000238498
       -0.0000657567   0.0001688924   0.0000270951  -0.0000760508
       -0.0411759362  -0.0320259618  -0.0390749384  -0.1537661341  -0.0319872144
        0.0235508257   0.5234028342   0.1581760592   0.0241368424  -0.1370252379
       -0.0212439745  -0.1199324677  -0.0452923165  -0.0135809245  -0.0155087917
        0.0119874805   0.0076559599  -0.0049812344  -0.0073746762  -0.0025969970
        0.0005548040   0.0010000557   0.0005728672  -0.0027030953  -0.0001416599
       -0.0006467723  -0.0003567418  -0.0010311135  -0.0002247642   0.0002583010
        0.0007326536   0.0009551480   0.0002442776   0.0006983212  -0.0010843863
       -0.0004739226  -0.0000662972   0.0016755814   0.0008190808  -0.0013137604
       -0.0004448761   0.0001124685   0.0010200962  -0.0013344923  -0.0008891899
       -0.0000351803   0.0011997383   0.0004296039   0.0010812142  -0.0002640145
       -0.0003184589  -0.0009290354  -0.0005087450  -0.0000611741  -0.0005184402
        0.0002525859   0.0003573586   0.0014075692   0.0001731061   0.0024577186
       -0.0290940027  -0.0170979783   0.0228228639  -0.1094662145  -0.0314028513
        0.0968899505  -0.0170169348  -0.0109185061   0.0137940368  -0.0010246932
       -0.0020365438  -0.0007778901   0.0001914507  -0.0003901703   0.0003388103
        0.0002694081   0.0000719204  -0.0003473689  -0.0002307215  -0.0007585863
        0.0003447774  -0.0010882413   0.0020498479   0.0020385639  -0.0001796661
        0.0004715884  -0.0002288183  -0.0003026699  -0.0003677543   0.0001551548
       -0.0002464947   0.0001262733   0.0001128571  -0.0000217275   0.0001716962
        0.0000734089   0.0001179360   0.0000955245   0.0000938245  -0.0000917244
        0.0001401580  -0.0001814631   0.0008159165   0.0002591870  -0.0002727424
       -0.0004298092  -0.0004087789   0.0002431367  -0.0001876127   0.0003023322
        0.0000025432   0.0000423628  -0.0004610182  -0.0001557363  -0.0003753907
        0.0001453203   0.0000435511   0.0004243863  -0.0007861757   0.0002081845
       -0.0005389565   0.0007614275  -0.0002037555  -0.0001891454  -0.0001797410
        0.0001041954   0.0001434800  -0.0000883602   0.0000581465  -0.0001252528
       -0.0000490349  -0.0000398552   0.0000467991  -0.0000654139   0.0000222717
       -0.0000978962  -0.0000847273  -0.0000253760   0.0003390550  -0.0000181626
        0.0000761241  -0.0002567535   0.0002142327  -0.0000776759  -0.0001620502
       -0.0000649963  -0.0000423583   0.0001414300   0.0000311076   0.0000451325
       -0.0000321700  -0.0001080207   0.0000017163   0.0000224464   0.0000783333
       -0.0000005834  -0.0000495468  -0.0000641344  -0.0000142457   0.0005761104
       -0.0000632662   0.0000226351   0.0000957418   0.0001727699  -0.0000848347
        0.0001311485  -0.0001118772  -0.0000236077   0.0069099302  -0.0000481488
        0.0080072420  -0.0040336108  -0.0046555330   0.0001319671  -0.0000634734
       -0.0000807279   0.0000328885  -0.0000335418   0.0001672017   0.0001547153
       -0.0001105566   0.0001178600   0.0000704602  -0.0000928824   0.0000044638
        0.0000080108  -0.0000818746  -0.0000712948  -0.0000088964  -0.0000152765
       -0.0001502808  -0.0000552847   0.0001030037  -0.0001225725  -0.0001659662
       -0.0002068561  -0.0000383465  -0.0000951152  -0.0038872892  -0.0045991728
        0.0001342779   0.0060415077   0.0046413719  -0.0124483385   0.0000198098
        0.0005023231  -0.0000632869  -0.0000532818   0.0001667315   0.0001244421
       -0.0001402845   0.0000416011   0.0000610243  -0.0001742787  -0.0000817252
        0.0003520024   0.0003320768  -0.0004577100   0.0002261942   0.0001624409
       -0.0000768498  -0.0000888325   0.0000231651  -0.0001051645  -0.0000742982
       -0.0000411353  -0.0000657123  -0.0000324096   0.0005307290   0.0004747700
       -0.0000269993   0.0001350200  -0.0001146272   0.0000503468  -0.0000280285
        0.0000505611  -0.0000345220   0.0000200634  -0.0000240056   0.0000176949
        0.0000333004   0.0000907855  -0.0000057845  -0.0000206521   0.0000514073
       -0.0000075143  -0.0000200957   0.0000291514  -0.0000104563  -0.0000469920
        0.0000090360  -0.0000133271  -0.0000218430  -0.0000226438  -0.0000020808
        0.0000289118   0.0000299078   0.0000088924  -0.0000556236   0.0000351304