$hessian                                                                        
        1.2254175240  -0.2382873747   0.1595970492  -1.1703122443   0.2242425812
       -0.1501127684  -0.0601998275   0.0148342775  -0.0099950883   0.0070574619
        0.0041947810   0.0100666531  -0.0060301529   0.0030959802   0.0000678315
        0.0074343008  -0.0013603461   0.0008787142  -0.0040142128   0.0008174982
       -0.0005491706   0.0005021346   0.0000598676  -0.0010314963  -0.0000162984
       -0.0012220988  -0.0001405048  -0.0017327535   0.0013070681   0.0001549183
        0.0021338933   0.0010518065   0.0002145318  -0.0004943763  -0.0020769047
       -0.0002025682   0.0004421593   0.0017720869   0.0001783152  -0.0009534893
        0.0001870455  -0.0001463729   0.0005908708  -0.0001046660   0.0000768929
       -0.0003154714   0.0000763523  -0.0000987182   0.0001765548   0.0000212688
        0.0000268958  -0.0001994781  -0.0000132882   0.0000196653   0.0002332047
        0.0000289455  -0.0000309811  -0.0003883533   0.0000658820  -0.0000077998
       -0.0000383601  -0.0001235908   0.0000686126  -0.0000281145   0.0001734403
        0.0000703345   0.0000029774  -0.0000428043   0.0000141246   0.0000311073
        0.0000196664   0.0000532648  -0.0000113542   0.0000403535   0.0000448285
       -0.0000537655   0.0000606853  -0.0000165934  -0.0000469265  -0.0000772422
       -0.0000371889   0.0000079911  -0.0000239900  -0.0002136329   0.0000181026
        0.0000279669   0.0000634438   0.0000249657   0.0000224148  -0.0000317918
        0.0000127506  -0.0000040622  -0.0000222161  -0.0000252348  -0.0000497421
       -0.0000618239  -0.0000114671   0.0000286778   0.0000372151  -0.0001764266
        0.0000162807  -0.0000090499   0.0001740575   0.0000867517  -0.0000268777
       -0.0000274214   0.0000684030  -0.0000730553   0.0000247341  -0.0001190748
        0.0001166714  -0.0000399575  -0.0000796485   0.0000587602   0.0002039669
       -0.0000204409   0.0000036346  -0.0002080556  -0.0018135950  -0.0001183734
        0.0002668714   0.0021169567   0.0001251017   0.0015427840  -0.0018023942
        0.0002973349  -0.0019560734  -0.0005232482  -0.0006291479   0.0003787783
        0.0011548608   0.0001794060   0.0001160026  -0.0002003654   0.0011290080
       -0.0066372920  -0.0011702835  -0.0013492601   0.0073700693  -0.0066369982
       -0.0084749663   0.0001484888  -0.0003467051  -0.0001012880  -0.0003948061
        0.0000897434   0.0000523216   0.0000564158  -0.0000597615  -0.0000708899
        0.0000398364   0.0001269165   0.0000626521  -0.0000115246   0.0000786743
       -0.0000287381   0.0000028407   0.0000305211  -0.0000231600   0.0000114937
        0.0000266154   0.0000311172  -0.0000524651   0.0000360171  -0.0000344676
        0.0000396659  -0.0000232939  -0.0000266825   0.0000086552   0.0000193708
        0.0000078283  -0.0000076830  -0.0000177183  -0.0000487606   0.0000337585
       -0.0000420085  -0.0000233956   0.0000427938  -0.0000136312  -0.0000060608
        0.0000219944   0.0000091734  -0.0000177493  -0.0000003999  -0.0000146716
       -0.0000109582  -0.0000295485  -0.0000379523   0.0000386457  -0.0000112367
        0.0000046389   0.0000626790   0.0000191002   0.0000256136   0.0000263208
       -0.0000059948  -0.0000481509  -0.0000138587  -0.0000323601  -0.0000379002
        0.0000279648  -0.0000612622  -0.0000285417   0.0000095997  -0.0000641038
        0.0000290496  -0.0000288276   0.0000159350   0.0000133786  -0.0000118674
       -0.0000072153  -0.0000104372   0.0000252067  -0.0000290608  -0.0000526747
        0.0000148429   0.0000176689  -0.0001097059  -0.0000419940   0.0000658186
        0.0000384277   0.0000672502  -0.0003653756   0.0000487606  -0.0001449242
        0.0003024140   0.0004465115   0.0000434319
       -0.2382873747   0.0636420393  -0.0316532780   0.2243289245  -0.0774090070
        0.0285911026   0.0147615601   0.0128342505   0.0032141506   0.0003168903
       -0.0003354519  -0.0029047523   0.0011676188  -0.0015292255   0.0011540032
       -0.0014201503   0.0003414724  -0.0001087422   0.0008666972   0.0001425731
       -0.0000606244  -0.0001366966  -0.0000031522   0.0002043394  -0.0000672607
        0.0002889017   0.0000309383   0.0003214111  -0.0003035749  -0.0000416862
       -0.0004270963  -0.0002604879  -0.0000491687   0.0001381888   0.0004521964
        0.0000455941  -0.0000844806  -0.0002695414  -0.0000141945   0.0001842062
       -0.0000369084   0.0000241711  -0.0001299659   0.0000288444  -0.0000112037
        0.0000620510  -0.0000061585   0.0000113843  -0.0000386052  -0.0000005059
       -0.0000058613   0.0000296314   0.0000036031  -0.0000046066  -0.0000621441
       -0.0000064531   0.0000056064   0.0000697736  -0.0000222112   0.0000148976
        0.0000093782   0.0000277859  -0.0000137958   0.0000047492  -0.0000470013
       -0.0000249008   0.0000054570   0.0000043110   0.0000040743  -0.0000095904
        0.0000036148  -0.0000099282  -0.0000005040  -0.0000117976  -0.0000179236
        0.0000224282  -0.0000274783   0.0000128598   0.0000076869   0.0000309540
        0.0000116990   0.0000004521   0.0000117020   0.0000495787  -0.0000041273
       -0.0000072211  -0.0000216173  -0.0000106615  -0.0000094515   0.0000122014
       -0.0000018044   0.0000064554   0.0000115256   0.0000066933   0.0000104174
        0.0000028130  -0.0000041377  -0.0000106927  -0.0000029767   0.0000555957
       -0.0000022578   0.0000015647  -0.0000399655  -0.0000324877   0.0000191613
       -0.0000129207  -0.0000085539   0.0000080521  -0.0000067751   0.0000300516
       -0.0000300467   0.0000134865   0.0000112087  -0.0000071564  -0.0000401319
        0.0000074495  -0.0000045119   0.0000272118   0.0003528348   0.0000276103
       -0.0000427424  -0.0004057952  -0.0000255180  -0.0002964972   0.0003429401
       -0.0000538326   0.0003715037   0.0000819905   0.0001138366  -0.0000264913
       -0.0002405713  -0.0000172755   0.0000285470  -0.0000083297  -0.0002084136
        0.0006864624  -0.0005719958   0.0013707340  -0.0024835633   0.0022572018
        0.0002615444   0.0002199959   0.0003971207   0.0000167133   0.0002122988
       -0.0001136172   0.0000678994  -0.0000164052  -0.0000100601   0.0000246048
       -0.0000047095   0.0000122937  -0.0000151549  -0.0000038951   0.0000015326
        0.0000070557  -0.0000063990   0.0000015332  -0.0000050696  -0.0000059405
       -0.0000070423  -0.0000048630   0.0000092286  -0.0000083318   0.0000070062
       -0.0000071075   0.0000087260  -0.0000002900  -0.0000038569  -0.0000033763
       -0.0000041304   0.0000035132   0.0000027625   0.0000120355  -0.0000033682
        0.0000132066   0.0000087168  -0.0000098959   0.0000084760  -0.0000026743
       -0.0000028188  -0.0000040248   0.0000023207   0.0000022461   0.0000037467
        0.0000039624   0.0000090893   0.0000094575  -0.0000095665   0.0000027896
       -0.0000010979  -0.0000148735  -0.0000050549  -0.0000054673  -0.0000044038
        0.0000017901   0.0000105886   0.0000017295   0.0000095049   0.0000109929
       -0.0000097554   0.0000166407   0.0000029723  -0.0000024446   0.0000128412
       -0.0000103999   0.0000073459  -0.0000061967  -0.0000039439   0.0000012596
        0.0000029777   0.0000125811  -0.0000108940   0.0000064145   0.0000164219
       -0.0000071831   0.0000074669   0.0000571815   0.0000096485  -0.0000188574
       -0.0000245880  -0.0000124237  -0.0001173075  -0.0000463731   0.0000619362
       -0.0001579025   0.0003222422  -0.0000399350
        0.1595970492  -0.0316532780   0.0375658394  -0.1501559460   0.0285810412
       -0.0541691912  -0.0099586729   0.0032897630   0.0159914396   0.0029496544
       -0.0010967763   0.0008577364  -0.0000009610   0.0013396591   0.0004295407
        0.0009365934   0.0000312233   0.0005147633  -0.0005616791  -0.0000380150
        0.0000617451   0.0000889586  -0.0000110170  -0.0001389278   0.0000135060
       -0.0001684637  -0.0000070935  -0.0002200551   0.0001816934   0.0000357769
        0.0002710619   0.0001521913   0.0000291982  -0.0000697419  -0.0002942768
       -0.0000245880   0.0000529149   0.0002034522   0.0000175882  -0.0001250896
        0.0000097400  -0.0000087607   0.0000945290  -0.0000181184   0.0000014001
       -0.0000338758   0.0000040028  -0.0000018334   0.0000283776   0.0000027780
        0.0000054485  -0.0000207789  -0.0000002021   0.0000007482   0.0000430680
        0.0000057583  -0.0000004860  -0.0000438247   0.0000221130  -0.0000114126
       -0.0000073683  -0.0000223111   0.0000125094  -0.0000056088   0.0000254951
        0.0000092572   0.0000031475  -0.0000075819   0.0000057735   0.0000022457
        0.0000065035   0.0000064131  -0.0000012399   0.0000030538   0.0000047277
       -0.0000066783   0.0000093917  -0.0000005218  -0.0000101285  -0.0000085051
       -0.0000079741   0.0000022841  -0.0000027849  -0.0000385315   0.0000019142
        0.0000038862   0.0000094718   0.0000012683   0.0000030422  -0.0000027556
        0.0000021123  -0.0000003009  -0.0000070416  -0.0000039274  -0.0000083624
       -0.0000120363  -0.0000028865   0.0000038499   0.0000084459  -0.0000387988
        0.0000034809  -0.0000037298   0.0000314280   0.0000207150  -0.0000129008
        0.0000065608   0.0000029822  -0.0000062272   0.0000011770  -0.0000192833
        0.0000160452  -0.0000032207  -0.0000079591   0.0000036487   0.0000270141
       -0.0000090081   0.0000033406  -0.0000208781  -0.0002034593  -0.0000061697
        0.0000228493   0.0002820809   0.0000129358   0.0001814256  -0.0002315799
        0.0000286137  -0.0002533701  -0.0001089619  -0.0000684646   0.0000755457
        0.0001790019   0.0000468172  -0.0000304147   0.0000064624   0.0001331517
       -0.0013457686   0.0010262313   0.0000659478  -0.0014242054  -0.0016024087
       -0.0020626322   0.0002994029  -0.0001252227   0.0003891580   0.0002343719
        0.0000219136   0.0000640759   0.0000098468  -0.0000082556  -0.0000156782
        0.0000060458   0.0000196508   0.0000043065  -0.0000025901   0.0000129113
       -0.0000063412  -0.0000032328   0.0000047220   0.0000032976   0.0000032086
        0.0000024066   0.0000022901  -0.0000056984   0.0000039390  -0.0000047659
        0.0000040508  -0.0000102173   0.0000020471   0.0000039761   0.0000014307
        0.0000012312   0.0000031929  -0.0000033095  -0.0000040427   0.0000070870
       -0.0000052383  -0.0000015393   0.0000073421  -0.0000042625   0.0000009405
        0.0000025395   0.0000024409   0.0000006750  -0.0000007601  -0.0000014769
       -0.0000024243  -0.0000076562  -0.0000049586   0.0000048496  -0.0000069758
        0.0000028717   0.0000125425  -0.0000012966   0.0000063632   0.0000047858
       -0.0000035191  -0.0000064583  -0.0000033857  -0.0000070211  -0.0000094650
        0.0000046081  -0.0000103231  -0.0000044227  -0.0000031780  -0.0000071978
        0.0000035334  -0.0000078998   0.0000041730  -0.0000003422  -0.0000030793
        0.0000051013  -0.0000074246   0.0000120061   0.0000071850  -0.0000027015
        0.0000028333   0.0000024536  -0.0000057673  -0.0000054082   0.0000103978
        0.0000026212  -0.0000115036  -0.0003034193   0.0001282413  -0.0000327233
       -0.0003402510   0.0000995384   0.0003052768
       -1.1703122443   0.2243289245  -0.1501559460   1.4930506955  -0.2797123252
        0.1867688299  -0.2525238285   0.0399604237  -0.0265383869  -0.0426873833
       -0.0058553027  -0.0294359945   0.0109360246  -0.0067194539  -0.0049269311
       -0.0129500112   0.0025211433  -0.0015190248   0.0069870845  -0.0018139358
        0.0011478909  -0.0007898705   0.0000736585   0.0018896495   0.0000235795
        0.0018581527   0.0001710769   0.0026855544  -0.0020476095  -0.0002629431
       -0.0034271308  -0.0016854627  -0.0003602178   0.0008131014   0.0032825722
        0.0003261888  -0.0006537236  -0.0028668701  -0.0002987909   0.0014702696
       -0.0002926265   0.0002374191  -0.0009827323   0.0001781833  -0.0001352829
        0.0004625491  -0.0000934066   0.0001357666  -0.0003189290  -0.0000402702
       -0.0000340366   0.0003375099   0.0000116386  -0.0000187573  -0.0003824430
       -0.0000164273   0.0000239479   0.0005765061  -0.0000770258   0.0000016950
        0.0000573338   0.0001816839  -0.0000992468   0.0000370486  -0.0002627444
       -0.0001143204   0.0000080367   0.0000590755  -0.0000072254  -0.0000501415
       -0.0000137833  -0.0000825006   0.0000221789  -0.0000572675  -0.0000783287
        0.0000991962  -0.0000990244   0.0000358640   0.0000708756   0.0001372209
        0.0000585037  -0.0000144478   0.0000375653   0.0003225410  -0.0000216709
       -0.0000442446  -0.0000995846  -0.0000360242  -0.0000433024   0.0000468902
       -0.0000192496   0.0000056693   0.0000329047   0.0000429699   0.0000801870
        0.0000883619   0.0000179683  -0.0000439457  -0.0000615404   0.0002779042
       -0.0000190353   0.0000133859  -0.0002789233  -0.0001474656   0.0000525584
        0.0000270774  -0.0001116632   0.0001154796  -0.0000337565   0.0001820569
       -0.0001805585   0.0000496143   0.0001070886  -0.0000750980  -0.0003047483
        0.0000313987  -0.0000062892   0.0003785414   0.0029065333   0.0001842476
       -0.0004184193  -0.0033451138  -0.0001823513  -0.0024166352   0.0028775402
       -0.0004924652   0.0031497905   0.0008704110   0.0010472938  -0.0006088662
       -0.0016945636  -0.0002545588  -0.0003465552   0.0001757439  -0.0020799062
        0.0116759829   0.0053905155   0.0061117458  -0.0439802691   0.0226867054
        0.0181081381   0.0007190791   0.0007214639   0.0016725120  -0.0003507111
        0.0000435725  -0.0002449514  -0.0001248816   0.0000663856   0.0000945983
       -0.0000764337  -0.0001827588  -0.0000820173   0.0000062236  -0.0001002211
        0.0000399579  -0.0000189537  -0.0000415574   0.0000678814  -0.0000213545
       -0.0000349629  -0.0000539795   0.0000723209  -0.0000472862   0.0000501923
       -0.0000548659   0.0000421976   0.0000451742  -0.0000157211  -0.0000303150
       -0.0000140573   0.0000178242   0.0000241361   0.0000758047  -0.0000451434
        0.0000658242   0.0000366940  -0.0000561391   0.0000260243   0.0000069342
       -0.0000255600  -0.0000132307   0.0000282747   0.0000056475   0.0000180229
        0.0000208611   0.0000526273   0.0000535414  -0.0000544717   0.0000233031
       -0.0000098902  -0.0000960878  -0.0000275617  -0.0000391705  -0.0000382797
        0.0000065822   0.0000745847   0.0000256483   0.0000502481   0.0000527716
       -0.0000392282   0.0000909350   0.0000344667  -0.0000090852   0.0000890067
       -0.0000540048   0.0000506688  -0.0000354394  -0.0000217785   0.0000191926
        0.0000034952   0.0000248857  -0.0000462169   0.0000481786   0.0000815982
       -0.0000292629  -0.0000172318   0.0001936872   0.0000286830  -0.0000933506
        0.0000006877  -0.0001511468  -0.0003959178   0.0002053427   0.0001002689
        0.0004744043  -0.0019952392  -0.0009246549
        0.2242425812  -0.0774090070   0.0285810412  -0.2797123252   0.1389837621
       -0.0238549619   0.0398752320  -0.0610272849   0.0018810580  -0.0047053374
        0.0032267718   0.0043184410  -0.0022913008   0.0061828236  -0.0048361862
        0.0024417718  -0.0008115972   0.0002549100  -0.0017727987  -0.0010001286
        0.0005539562   0.0004082966  -0.0001107695  -0.0003958850   0.0001180591
       -0.0004223046  -0.0000308079  -0.0004985686   0.0004976844   0.0000923391
        0.0007007806   0.0004614931   0.0000781987  -0.0002240272  -0.0007648853
       -0.0000746634   0.0001128519   0.0004310716  -0.0000017185  -0.0003085787
        0.0000354681  -0.0000356312   0.0002388164  -0.0000433633  -0.0000028355
       -0.0000816709  -0.0000015105  -0.0000047069   0.0000786657   0.0000242620
       -0.0000093240  -0.0000640832  -0.0000008304   0.0000014121   0.0001090026
       -0.0000052425   0.0000141214  -0.0000889607   0.0000344112  -0.0000216280
       -0.0000104178  -0.0000341194   0.0000219285  -0.0000085748   0.0000541971
        0.0000275506  -0.0000034829  -0.0000127951  -0.0000016518   0.0000135321
       -0.0000047875   0.0000191306  -0.0000077165   0.0000208616   0.0000206269
       -0.0000271957   0.0000245485  -0.0000163583  -0.0000146519  -0.0000357380
       -0.0000152047   0.0000003404  -0.0000118861  -0.0000646753   0.0000066336
        0.0000116543   0.0000259829   0.0000112409   0.0000112296  -0.0000147542
        0.0000035135  -0.0000053763  -0.0000121980  -0.0000083879  -0.0000171021
       -0.0000120164  -0.0000001311   0.0000087003   0.0000096810  -0.0000696188
       -0.0000006382   0.0000006639   0.0000425671   0.0000422969  -0.0000236212
        0.0000186919   0.0000322361  -0.0000288361   0.0000208091  -0.0000534630
        0.0000538140  -0.0000326369  -0.0000191670   0.0000114057   0.0000428950
       -0.0000034832  -0.0000037676  -0.0000323453  -0.0005741116  -0.0000654890
        0.0000216131   0.0006539257   0.0000276591   0.0004428420  -0.0005563707
        0.0000708049  -0.0005830156  -0.0001651619  -0.0001630767   0.0000683493
        0.0004180800   0.0000420270  -0.0002078888   0.0000405949   0.0003234932
        0.0010846199   0.0031193204  -0.0065271966   0.0216529833  -0.0075663340
       -0.0016445965  -0.0012446057  -0.0020377983   0.0005407206  -0.0006324539
        0.0002684122  -0.0002284905   0.0000067182   0.0000375432  -0.0000550369
        0.0000000138  -0.0000028235   0.0000194033   0.0000080515  -0.0000052354
       -0.0000185910   0.0000184671  -0.0000095393   0.0000179187   0.0000056121
        0.0000110582   0.0000062194  -0.0000160585   0.0000074902  -0.0000065485
        0.0000077246  -0.0000154097  -0.0000038136   0.0000051147   0.0000070337
        0.0000042694  -0.0000026700  -0.0000042616  -0.0000163400   0.0000090406
       -0.0000186059  -0.0000102585   0.0000117254  -0.0000085826   0.0000009190
        0.0000038527   0.0000044673  -0.0000040729  -0.0000025959  -0.0000041477
       -0.0000055623  -0.0000128155  -0.0000118897   0.0000123167  -0.0000057113
        0.0000015785   0.0000215825   0.0000053396   0.0000091077   0.0000079333
       -0.0000018810  -0.0000137728  -0.0000060506  -0.0000095668  -0.0000126308
        0.0000104444  -0.0000234988  -0.0000086060   0.0000041031  -0.0000195853
        0.0000162779  -0.0000136348   0.0000120596   0.0000056075  -0.0000034147
       -0.0000119464  -0.0000278851   0.0000379037  -0.0000008889  -0.0000154010
        0.0000052020  -0.0000083557  -0.0000671406  -0.0000070770   0.0000465916
        0.0000271559   0.0000108082   0.0008887207  -0.0000612668  -0.0001017856
       -0.0000393720  -0.0017286712   0.0012124776
       -0.1501127684   0.0285911026  -0.0541691912   0.1867688299  -0.0238549619
        0.1231520648  -0.0265335277   0.0016372476  -0.0610918352  -0.0274950859
        0.0037525896  -0.0067852078  -0.0028006176  -0.0055022080  -0.0025678552
       -0.0015996638  -0.0002997768  -0.0016321143   0.0011310191   0.0004806238
       -0.0002358588  -0.0002843958   0.0000363379   0.0002600473   0.0000000472
        0.0002369422   0.0000471671   0.0003472043  -0.0002451260  -0.0000533523
       -0.0004679112  -0.0002920070  -0.0000386478   0.0001258771   0.0005068624
        0.0000536228  -0.0001059585  -0.0003218760  -0.0000274473   0.0002079400
       -0.0000016373   0.0000144422  -0.0001585015   0.0000268758   0.0000216591
        0.0000581547   0.0000006146   0.0000041211  -0.0000552393  -0.0000151513
       -0.0000008374   0.0000367247  -0.0000074231   0.0000051168  -0.0000705640
        0.0000007013  -0.0000124272   0.0000595574  -0.0000217794   0.0000083720
        0.0000052260   0.0000278925  -0.0000181075   0.0000043018  -0.0000349993
       -0.0000204069   0.0000045995   0.0000073495   0.0000046594  -0.0000096667
        0.0000046402  -0.0000112137   0.0000024658  -0.0000109228  -0.0000124330
        0.0000164213  -0.0000186139   0.0000076416   0.0000088531   0.0000245324
        0.0000084778  -0.0000018008   0.0000090097   0.0000483407   0.0000011592
       -0.0000022492  -0.0000195895  -0.0000077594  -0.0000123592   0.0000072556
       -0.0000024624   0.0000009847   0.0000108521   0.0000135830   0.0000176903
        0.0000078983  -0.0000022959  -0.0000149805  -0.0000115364   0.0000473306
       -0.0000010909   0.0000022187  -0.0000252868  -0.0000261703   0.0000153685
       -0.0000117210  -0.0000249380   0.0000256549  -0.0000175941   0.0000388160
       -0.0000370311   0.0000256180   0.0000147602  -0.0000070169  -0.0000272846
        0.0000028705   0.0000062244   0.0000325461   0.0003441640   0.0000215148
        0.0000167026  -0.0004630208   0.0000008504  -0.0002992526   0.0004209798
       -0.0000305504   0.0003936667   0.0001759672   0.0001097974  -0.0001204563
       -0.0002985197  -0.0000273116   0.0001130518  -0.0000615819  -0.0002173440
        0.0040994080  -0.0052478322  -0.0002301386   0.0160933803  -0.0010911541
        0.0052659329  -0.0006682018   0.0012823000  -0.0007432862  -0.0013121406
        0.0000612615  -0.0002982085  -0.0000032359   0.0000207461  -0.0000008014
       -0.0000061602  -0.0000255176  -0.0000112687   0.0000048416  -0.0000114688
        0.0000101023   0.0000033734   0.0000020582  -0.0000162994  -0.0000030437
       -0.0000058208  -0.0000040946   0.0000114238  -0.0000050149   0.0000037784
       -0.0000047714   0.0000115801   0.0000040618  -0.0000059443  -0.0000020190
       -0.0000050138   0.0000012558   0.0000028609   0.0000081468  -0.0000071714
        0.0000089626   0.0000041517  -0.0000091952   0.0000056040  -0.0000011755
       -0.0000024124  -0.0000032192   0.0000024691   0.0000002791   0.0000013950
        0.0000037865   0.0000102094   0.0000083966  -0.0000076407   0.0000050174
       -0.0000027087  -0.0000142452  -0.0000043506  -0.0000088924  -0.0000051660
        0.0000043155   0.0000121589   0.0000035039   0.0000055450   0.0000095078
       -0.0000056571   0.0000148021   0.0000073742  -0.0000014636   0.0000130602
       -0.0000091445   0.0000113546  -0.0000086585  -0.0000017238   0.0000032618
       -0.0000067915   0.0000200269  -0.0000394700  -0.0000117660  -0.0000026233
       -0.0000029603   0.0000031120   0.0000213957   0.0000031832  -0.0000162309
        0.0000234735  -0.0000231811   0.0011573834  -0.0004098146   0.0000783320
        0.0014316012   0.0004996904  -0.0008080471
       -0.0601998275   0.0147615601  -0.0099586729  -0.2525238285   0.0398752320
       -0.0265335277   0.6222795160  -0.1038071633   0.0610050536  -0.1149564966
       -0.0390039411  -0.1000031982  -0.0424152246   0.0016235084  -0.0251457410
        0.0185654287  -0.0045577224   0.0038032771  -0.0096186474   0.0019037219
       -0.0012087915   0.0013021710  -0.0005411499  -0.0023404501  -0.0000474986
       -0.0016249819  -0.0001992388  -0.0024620388   0.0020669199   0.0003017545
        0.0034341112   0.0017085165   0.0004030935  -0.0008521179  -0.0033913811
       -0.0003263132   0.0005804296   0.0025604416   0.0001818752  -0.0015127130
        0.0002711890  -0.0002474483   0.0010377543  -0.0002347322   0.0001652938
       -0.0004708369   0.0002452235  -0.0001675122   0.0003448484   0.0001331988
       -0.0000669915  -0.0004193754   0.0000094425  -0.0000140144   0.0003662624
       -0.0001115989   0.0001064489  -0.0006036992  -0.0000207700  -0.0000151903
       -0.0000587588  -0.0001104096   0.0000603817  -0.0000113194   0.0001972717
        0.0000825441  -0.0000084029  -0.0000287499   0.0000091273   0.0000310885
       -0.0000101329   0.0000433768  -0.0000087534   0.0000366224   0.0000603007
       -0.0000715875   0.0000857081  -0.0000238498  -0.0000494674  -0.0001034316
       -0.0000463601   0.0000094142  -0.0000175209  -0.0002375681   0.0000204648
        0.0000257779   0.0000576752   0.0000267268   0.0000247855  -0.0000236294
        0.0000238606   0.0000011769  -0.0000152195  -0.0000249968  -0.0000674330
       -0.0000681486  -0.0000110659   0.0000242917   0.0000498982  -0.0002074848
       -0.0000396977   0.0000293776   0.0002211176   0.0000908920  -0.0000198814
       -0.0000617178   0.0000705161  -0.0000756591   0.0000572638  -0.0001064418
        0.0001116103  -0.0000740867  -0.0000226150   0.0000038386   0.0003569968
       -0.0000191942   0.0000040588  -0.0004297463  -0.0026107667  -0.0000960576
        0.0004084702   0.0034315331   0.0001209513   0.0024477322  -0.0028698661
        0.0004378074  -0.0028742090  -0.0010158993  -0.0009725854   0.0005194778
        0.0015257838   0.0002312338   0.0007123734   0.0001700117   0.0026291284
       -0.0467460773   0.0164574732   0.0125104900  -0.1195266667   0.0696660458
        0.0864833705   0.0065823848   0.0037298088   0.0107327182  -0.0050576000
        0.0025275545  -0.0016071512  -0.0000480664   0.0001900285  -0.0001032449
        0.0000114277   0.0001061867   0.0000570304   0.0000550121   0.0000065111
       -0.0000930356   0.0000827663   0.0000122219  -0.0000689784  -0.0000004400
        0.0000170508   0.0000477895  -0.0000514431   0.0000069373  -0.0000241225
        0.0000342785  -0.0000265231  -0.0000472525   0.0000138813   0.0000205939
        0.0000116285  -0.0000101740  -0.0000150414  -0.0000450043   0.0000316422
       -0.0000446097  -0.0000265077   0.0000374907  -0.0000219692  -0.0000074705
        0.0000168879   0.0000084279  -0.0000219157  -0.0000008172  -0.0000118153
       -0.0000130518  -0.0000303133  -0.0000354064   0.0000359615  -0.0000074398
        0.0000109389   0.0000633199   0.0000328567   0.0000267879   0.0000261096
        0.0000012718  -0.0000501309  -0.0000231688  -0.0000258413  -0.0000279470
        0.0000214174  -0.0000429945  -0.0000245140   0.0000176072  -0.0000480851
        0.0000325003  -0.0000267179   0.0000259587   0.0000041431  -0.0000024892
        0.0000518981  -0.0000310867   0.0000784423   0.0000282302  -0.0000268469
        0.0000989193  -0.0000264247  -0.0001198259  -0.0000353002  -0.0001011388
       -0.0001843156   0.0000589029  -0.0049608065   0.0028042225  -0.0016731184
        0.0069067345  -0.0055351268  -0.0085172357
        0.0148342775   0.0128342505   0.0032897630   0.0399604237  -0.0610272849
        0.0016372476  -0.1038071633   0.2590867340   0.2006074931  -0.0159231638
       -0.0846212674  -0.0728161559  -0.0282925033   0.0134414147   0.0075001400
       -0.0044159684  -0.0170682510  -0.0210894956   0.0017376178  -0.0006885893
        0.0008431679  -0.0002782145  -0.0000218695   0.0004660142   0.0002438552
        0.0002381898  -0.0000918604   0.0003934516  -0.0003905619  -0.0000447868
       -0.0006245619  -0.0005049450  -0.0000076247   0.0002482848   0.0007710959
        0.0000826444  -0.0001898535  -0.0004712562   0.0000022320   0.0003243760
        0.0000404332   0.0000411860  -0.0002623280   0.0000569656   0.0000062764
        0.0000801133  -0.0000182574   0.0000080184  -0.0000837201  -0.0000528927
        0.0000370187   0.0000816394  -0.0000132562   0.0000118900  -0.0000983937
        0.0000328764  -0.0000502835   0.0000753001  -0.0000116905   0.0000102850
        0.0000176503   0.0000126399  -0.0000031057  -0.0000031346  -0.0000276579
       -0.0000236953   0.0000095171  -0.0000043246   0.0000040173  -0.0000100398
        0.0000166615  -0.0000057391  -0.0000013936  -0.0000104508  -0.0000209213
        0.0000227067  -0.0000300616   0.0000098618   0.0000078979   0.0000325732
        0.0000113162  -0.0000002091   0.0000044535   0.0000353090  -0.0000046635
       -0.0000055289  -0.0000136383  -0.0000086585  -0.0000083028   0.0000056903
       -0.0000066262   0.0000009300   0.0000093799   0.0000074116   0.0000171728
        0.0000081319   0.0000008916  -0.0000058260  -0.0000107002   0.0000542752
        0.0000158954  -0.0000121283  -0.0000400519  -0.0000295148   0.0000121044
        0.0000077393  -0.0000105783   0.0000097170  -0.0000085679   0.0000264165
       -0.0000297822   0.0000234586  -0.0000082456   0.0000096827  -0.0000418524
        0.0000071577   0.0000005966   0.0000765469   0.0003833128   0.0000515939
       -0.0000060372  -0.0007437295  -0.0000086882  -0.0005196984   0.0006308179
        0.0000088313   0.0005786325   0.0002962407   0.0002092052  -0.0004093600
       -0.0004682141  -0.0002641671  -0.0002388485  -0.0003196520  -0.0005417122
        0.0465137699  -0.0040730118   0.0099120515   0.0466236212  -0.1180483507
       -0.1014151556  -0.0063352593  -0.0056330003  -0.0142027193   0.0026621137
        0.0061095203  -0.0025439349   0.0000619708  -0.0000043289   0.0000165112
        0.0000214326  -0.0000192919  -0.0000281479  -0.0000226440   0.0000256299
        0.0000082881  -0.0000270159   0.0000014897  -0.0000248942   0.0000033056
       -0.0000146466  -0.0000040390   0.0000157022  -0.0000007793  -0.0000002047
       -0.0000017650   0.0000060839   0.0000117400  -0.0000031909  -0.0000055596
       -0.0000030504   0.0000045359   0.0000001841   0.0000102336  -0.0000038549
        0.0000083112   0.0000082564  -0.0000079291   0.0000049754   0.0000018297
       -0.0000024523  -0.0000025868   0.0000052683   0.0000002709   0.0000023129
        0.0000032187   0.0000057829   0.0000078589  -0.0000072486   0.0000007320
       -0.0000013238  -0.0000135974  -0.0000081252  -0.0000053568  -0.0000048799
       -0.0000002221   0.0000085787   0.0000048415   0.0000040019   0.0000052822
       -0.0000051718   0.0000074238   0.0000020207  -0.0000039619   0.0000087936
       -0.0000092304   0.0000046500  -0.0000054314   0.0000001752  -0.0000031612
        0.0000037944   0.0000216640  -0.0000525431  -0.0000087838  -0.0000017555
       -0.0000304963   0.0000075347   0.0000192704  -0.0000046689  -0.0000053219
        0.0000984208  -0.0000314704   0.0026744534   0.0060325008  -0.0025229227
        0.0043017015  -0.0059190799  -0.0089789505
       -0.0099950883   0.0032141506   0.0159914396  -0.0265383869   0.0018810580
       -0.0610918352   0.0610050536   0.2006074931   0.4889401295  -0.0577840591
       -0.0835871011  -0.2189337440  -0.0704669153   0.0211171913   0.0030874336
        0.0038956136  -0.0203763033  -0.0405857472  -0.0013411563   0.0000574442