$hessian                                                                        
        0.5015425230  -0.0155996850  -0.0364427192  -0.0891606723  -0.0286430736
       -0.0369665810  -0.0198527512  -0.0160181943  -0.0141934548   0.0077476835
        0.0057272010   0.0085593230  -0.0007992049   0.0007703890   0.0008551114
       -0.0006830418   0.0000219373  -0.0004906838   0.0000427155   0.0003208922
       -0.0000645971   0.0001278831  -0.0005458301  -0.0006689584  -0.0007170602
        0.0011133782   0.0012655244   0.0003773088  -0.0007868249  -0.0006482089
       -0.0000952086   0.0000780025   0.0003340403   0.0000148386   0.0000308939
       -0.0001353750  -0.0000314433  -0.0000620361  -0.0000130585   0.0000121844
       -0.0000189090   0.0000018986   0.0000709862   0.0000655108   0.0000016783
       -0.0000879585   0.0001124871  -0.0001508370   0.0000072922   0.0000112532
        0.0000028494   0.0000552913   0.0000012589  -0.0000177060   0.0000081107
       -0.0000349161   0.0000125275  -0.0000682991   0.0000238358  -0.0000153531
        0.0000667393  -0.0000377312  -0.0000000472  -0.0000084776   0.0000013713
       -0.0000003383   0.0000106203  -0.0000083921  -0.0000038694  -0.0000042531
       -0.0000002909  -0.0000051125   0.0000101116  -0.0000054460  -0.0000028569
       -0.0000057779   0.0000148989   0.0000102939   0.0000038845  -0.0000055561
       -0.0000088336  -0.0000110332  -0.0000122260  -0.0000000093  -0.0000055331
       -0.0000030052  -0.0000086356   0.0000065768  -0.0000130273  -0.0000131189
        0.0000025036  -0.0000002538  -0.0000033730  -0.0000182354  -0.0000243614
       -0.0000348230   0.0000068032  -0.0000137982  -0.0000246279   0.0000026250
       -0.0000350024  -0.0000103305   0.0000450596   0.0000398223   0.0000092298
        0.0000050663   0.0000122393  -0.0000008231   0.0000016957  -0.0000128350
        0.0000003742   0.0000046050  -0.0000121709  -0.0000018850   0.0000009415
        0.0000367941   0.0000028164  -0.0000257726  -0.0000134181   0.0000017438
       -0.0000067984  -0.0000099765   0.0000036909   0.0000685698  -0.0000047512
        0.0000004489  -0.0000491811   0.0000124125  -0.0000005459   0.0000068974
       -0.0000086131   0.0000013152  -0.0000079932  -0.0000008882  -0.0000015831
       -0.0000077481   0.0000231183  -0.0000035618   0.0000049337  -0.0000074821
        0.0000015694  -0.0000053169  -0.0000172339   0.0000008828   0.0000268397
        0.0000011306   0.0000135155  -0.0012225051  -0.0005779517   0.0011675842
        0.0001920932   0.0004825667   0.0002489751  -0.0001957016  -0.0000926121
        0.0001054219  -0.0000972246   0.0008786212   0.0001144784   0.0005589739
        0.0001395543  -0.0006401682  -0.0079299908   0.0005149178  -0.0144922937
       -0.1272755926   0.0917904077   0.0698687381  -0.1886443521  -0.0934125917
        0.0739771714  -0.0711129177   0.0570157280  -0.0511411394   0.0005321159
       -0.0005570579  -0.0011369451   0.0005837722   0.0006011089  -0.0007580282
       -0.0042891162  -0.0031469833   0.0012360708   0.0001523348   0.0000624428
        0.0002054713  -0.0000449427   0.0001303464   0.0000438083   0.0000754248
        0.0000319343   0.0001102144   0.0000141045   0.0000131662   0.0000542861
        0.0000410775  -0.0000833591   0.0000318925   0.0000082867  -0.0000037327
        0.0000105946   0.0000245026  -0.0000491724   0.0000397853  -0.0000077627
        0.0000057899   0.0000020256  -0.0000042473   0.0000022182   0.0000002312
       -0.0000060481   0.0000031063  -0.0000029308  -0.0000055071   0.0000044558
       -0.0000000963  -0.0000055358   0.0000055824   0.0000030851  -0.0000063337
        0.0000057447   0.0000061009   0.0000057880   0.0000030607   0.0000020105
        0.0000009538   0.0000050395  -0.0000014208   0.0000051810   0.0000000973
        0.0000011109  -0.0000011035   0.0000058573  -0.0000018049  -0.0000079991
       -0.0000002429   0.0000092985   0.0000006161   0.0000133624   0.0000116068
        0.0000130711   0.0000148862   0.0000134643  -0.0000159421   0.0000063701
        0.0000351582   0.0000027353   0.0000204822   0.0000191111  -0.0000146513
       -0.0000019089   0.0000021921  -0.0000131935  -0.0000004632   0.0000002270
       -0.0000018508  -0.0000034732  -0.0000008402  -0.0000031629  -0.0000052250
       -0.0000006491   0.0000001132  -0.0000072702  -0.0000000025   0.0000130420
        0.0000161240   0.0000081932   0.0000075697  -0.0001315850  -0.0000809241
        0.0000032738   0.0000532148  -0.0000410912   0.0000411214  -0.0002154556
       -0.0001768994
       -0.0155996850   0.5036353639  -0.0316387204  -0.0294984629  -0.0789234045
       -0.0327921306  -0.0140358305  -0.0102933322  -0.0095560164  -0.0039224763
       -0.0143400548  -0.0192865963   0.0007150654   0.0002237812  -0.0011569134
        0.0012031071  -0.0004681633   0.0004715394  -0.0002038735  -0.0002891641
        0.0001532429   0.0005037071   0.0002569155   0.0006138394  -0.0009632152
       -0.0012208139   0.0008376629  -0.0006830121   0.0008236278  -0.0008184651
       -0.0000139856  -0.0001663528   0.0002391594   0.0000859246  -0.0001300558
       -0.0000799303   0.0001196726   0.0000404473   0.0000083320  -0.0000276136
        0.0000301065  -0.0000019616  -0.0001010467  -0.0000458862  -0.0000102551
        0.0000356482  -0.0000340152  -0.0000921414   0.0000198919  -0.0000516770
        0.0000103113  -0.0000584646   0.0000141788  -0.0000047813   0.0000341384
       -0.0001242618   0.0000039744   0.0000266651   0.0001215070  -0.0000040067
        0.0000057129   0.0000100981   0.0000062509  -0.0000023534  -0.0000031419
       -0.0000025286   0.0000030994  -0.0000003135   0.0000028931   0.0000005692
       -0.0000026732   0.0000016608  -0.0000030735   0.0000016370   0.0000019880
       -0.0000094906  -0.0000024389  -0.0000109380  -0.0000025677   0.0000009132
        0.0000069255   0.0000006327   0.0000010672   0.0000022182   0.0000012356
       -0.0000062560   0.0000048280  -0.0000000750   0.0000172707   0.0000074159
       -0.0000127325  -0.0000030670   0.0000044921  -0.0000059403   0.0000074180
        0.0000188169  -0.0000264926   0.0000041665   0.0000181133  -0.0000039588
       -0.0000077889   0.0000071949  -0.0000614692  -0.0000391949   0.0000012253
        0.0000189322   0.0000338779   0.0000005878   0.0000359494  -0.0000303308
        0.0000044170  -0.0000183799   0.0000501043  -0.0000026110   0.0000027763
       -0.0000522962   0.0000018812  -0.0000030183   0.0000225381   0.0000001952
       -0.0000042307  -0.0000042415   0.0000042195   0.0000303287  -0.0000118297
       -0.0000026050  -0.0000314163   0.0000103870   0.0000008327  -0.0000049282
        0.0000055677   0.0000010082   0.0000169756   0.0000052537   0.0000021183
       -0.0000007901  -0.0000099282  -0.0000028260   0.0000448138   0.0000333755
        0.0000036421  -0.0000372224  -0.0000201252   0.0000007895  -0.0000025482
        0.0000522715   0.0000048527   0.0011210289  -0.0007826214   0.0012669430
       -0.0004840348   0.0000829801  -0.0008352255   0.0003803204  -0.0000491079
       -0.0000524704  -0.0001609239  -0.0009252214  -0.0004716670   0.0002846353
       -0.0010098582   0.0012249479   0.0087317661   0.0068639660   0.0119337162
        0.0916722843  -0.1421062374  -0.0736264954  -0.0934070669  -0.1041124139
        0.0479179338   0.0570955837  -0.1568603524   0.1062107709   0.0007692994
        0.0005384531  -0.0002805124  -0.0003307950   0.0003760262  -0.0010089299
       -0.0030457463  -0.0016512543   0.0008103654  -0.0002450173   0.0000653617
       -0.0003288400   0.0000845964  -0.0000737721  -0.0000530309  -0.0001585358
        0.0000313776  -0.0001559874   0.0000137647   0.0000051250  -0.0000105647
       -0.0000701538   0.0000852721   0.0000162062  -0.0000055762   0.0000196838
        0.0000036779  -0.0000777125   0.0000941295   0.0000040318  -0.0000125004
        0.0000245245  -0.0000005946  -0.0000001596   0.0000047800   0.0000025588
        0.0000031326   0.0000003019   0.0000014651   0.0000017319  -0.0000003598
        0.0000010289  -0.0000001587   0.0000009983  -0.0000007896   0.0000031537
       -0.0000026774  -0.0000042757  -0.0000009106   0.0000013021   0.0000010851
       -0.0000006626  -0.0000015739   0.0000009345  -0.0000017136   0.0000011970
        0.0000025948  -0.0000039674   0.0000033189  -0.0000010006   0.0000044525
        0.0000013969  -0.0000056084   0.0000030387  -0.0000022308  -0.0000038353
        0.0000041885   0.0000050606  -0.0000075929   0.0000281694  -0.0000118843
       -0.0000314302   0.0000100604   0.0000147414  -0.0000095634   0.0000031769
        0.0000034067  -0.0000018307  -0.0000018222   0.0000035039  -0.0000009158
       -0.0000022909  -0.0000007831  -0.0000003724  -0.0000015023  -0.0000020596
       -0.0000001364  -0.0000002473  -0.0000009244  -0.0000003863   0.0000048279
        0.0000077209   0.0000544625   0.0000403423   0.0001138459   0.0001341136
        0.0001056066  -0.0000941049   0.0000817860   0.0000798450   0.0002178962
        0.0002402318
       -0.0364427192  -0.0316387204   0.4671763552  -0.0444579167  -0.0380688998
       -0.1138122392   0.0031752841   0.0026539884   0.0042998577  -0.0022164022
       -0.0154443323  -0.0162287976  -0.0000590393   0.0008979240  -0.0010572118
        0.0011114301  -0.0005409521   0.0001323770  -0.0001174207  -0.0002704971
        0.0001008031   0.0001817782  -0.0000198480   0.0004554975  -0.0004298553
        0.0000084890   0.0003244716   0.0003940692  -0.0000778805  -0.0017209893
       -0.0006800566  -0.0004641455  -0.0000730266  -0.0000684642  -0.0000602329
        0.0000643689  -0.0000690860   0.0000540600  -0.0000093195   0.0000597421
        0.0000383133   0.0000102507   0.0000199073  -0.0000536075  -0.0000172166
       -0.0000724489  -0.0000172410   0.0000618702   0.0000226959   0.0000020081
        0.0000081296  -0.0000295744   0.0000065381   0.0000097292   0.0000064573
       -0.0000231922   0.0000017035   0.0000193806   0.0000256015  -0.0000128580
       -0.0000007083   0.0000025254   0.0000076291  -0.0000064797  -0.0000041051
       -0.0000060574   0.0000027859   0.0000004037  -0.0000001687   0.0000001313
       -0.0000004646  -0.0000017091  -0.0000029178   0.0000042656   0.0000003682
       -0.0000054524  -0.0000038410  -0.0000040423   0.0000007324   0.0000028644
       -0.0000028570  -0.0000054257   0.0000034346   0.0000006808  -0.0000084982
        0.0000032216  -0.0000022790   0.0000012657   0.0000003764   0.0000034107
        0.0000053324   0.0000030900  -0.0000005206   0.0000009137  -0.0000127928
       -0.0000037744  -0.0000062992  -0.0000069138   0.0000099068   0.0000058945
       -0.0000172910  -0.0000285794  -0.0000013634  -0.0000088042  -0.0000020662
        0.0000008601   0.0000153116   0.0000010192   0.0000142921  -0.0000025173
        0.0000035659   0.0000073573   0.0000045513   0.0000030234   0.0000137051
       -0.0000096583  -0.0000085443   0.0000019005   0.0000080094   0.0000060585
        0.0000100933  -0.0000021396  -0.0000003876  -0.0000024245   0.0000042773
       -0.0000029834   0.0000040892   0.0000018146   0.0000028694  -0.0000107562
       -0.0000003486   0.0000025339   0.0000022499  -0.0000052306  -0.0000027045
       -0.0000007236   0.0000011908   0.0000021097  -0.0000057706   0.0000083116
       -0.0000082400   0.0000017372   0.0000163684   0.0000275753  -0.0000035582
       -0.0000130324  -0.0000130984  -0.0004900066  -0.0002583418   0.0003392974
        0.0001024632   0.0002847454   0.0005901089  -0.0003949152  -0.0000028542
        0.0000928300  -0.0001121146   0.0015016480   0.0000114780   0.0009873207
       -0.0003628927  -0.0011629333  -0.0159020957  -0.0003915380  -0.0218226812
        0.0694619224  -0.0734992595  -0.0988842278   0.0736339051   0.0476731436
       -0.0792744409  -0.0511469478   0.1057341563  -0.1400068630   0.0005983813
        0.0007242100   0.0005149187   0.0009519378   0.0004067736   0.0006355764
        0.0021308053   0.0014411109  -0.0000893666  -0.0000722488  -0.0000023555
       -0.0002386895   0.0000753596  -0.0000135273  -0.0000013238  -0.0001143352
       -0.0000000866  -0.0000458515  -0.0000484914  -0.0000032832   0.0000179804
        0.0000262845  -0.0000075794  -0.0000286242   0.0000306477   0.0000113704
       -0.0000008028   0.0000142428   0.0000032772  -0.0000287272   0.0000005062
       -0.0000110440  -0.0000020183   0.0000005337   0.0000000817   0.0000053366
        0.0000039465   0.0000008723   0.0000007691   0.0000016411   0.0000003531
        0.0000009062  -0.0000025566   0.0000007540   0.0000021319   0.0000031595
       -0.0000007345  -0.0000026333   0.0000016640   0.0000020433   0.0000058204
       -0.0000005320  -0.0000030001   0.0000016069   0.0000008687  -0.0000018455
        0.0000066680  -0.0000009602  -0.0000020426   0.0000009293   0.0000025889
       -0.0000019840  -0.0000008770  -0.0000014832   0.0000040496   0.0000038895
        0.0000042094   0.0000171225   0.0000069569  -0.0000202225   0.0000208611
        0.0000089311  -0.0000082868   0.0000012530   0.0000158351   0.0000014835
        0.0000017956  -0.0000004874   0.0000001479  -0.0000006841  -0.0000007517
       -0.0000002723  -0.0000010236  -0.0000016452   0.0000006725   0.0000006061
       -0.0000002796   0.0000018342   0.0000008415  -0.0000012099  -0.0000324022
       -0.0000517189   0.0000148278  -0.0000412330  -0.0001471761  -0.0000615824
        0.0000017506   0.0001002441  -0.0000288461  -0.0000098978  -0.0001685923
       -0.0002884303
       -0.0891606723  -0.0294984629  -0.0444579167   0.4660346672   0.0112489701
       -0.0377850639  -0.1362100555  -0.0444752669   0.0417954628  -0.1009995088
        0.0431438517   0.0422353177   0.0000277574   0.0060062864   0.0001462764
        0.0041631710  -0.0007536478   0.0025426999  -0.0005496411  -0.0004007768
        0.0003517050   0.0006575746  -0.0014004732   0.0048636889  -0.0174584263
        0.0077431629   0.0165610048   0.0006129550   0.0024778534  -0.0018367889
       -0.0006914942  -0.0007331423   0.0004126978   0.0001360265   0.0002912447
       -0.0000217600  -0.0001778024  -0.0000307873  -0.0000139045   0.0002434737
        0.0001417316   0.0000120829  -0.0001002271  -0.0001475751  -0.0000201052
        0.0003966298   0.0000169718  -0.0001329189   0.0000259396   0.0000132712
        0.0000099482   0.0000478463  -0.0000160920  -0.0000147967  -0.0000150700
        0.0000813449  -0.0000008238   0.0000151960  -0.0000626882  -0.0000009460
       -0.0000164479   0.0000072955  -0.0000009777   0.0000061588  -0.0000039493
        0.0000012762   0.0000004220  -0.0000029505  -0.0000030860  -0.0000000980
       -0.0000015140  -0.0000010337   0.0000006698  -0.0000007902   0.0000021887
        0.0000043707  -0.0000028871   0.0000014560   0.0000027533   0.0000024996
       -0.0000010593   0.0000047779  -0.0000061996  -0.0000040770   0.0000066115
       -0.0000036716  -0.0000023155  -0.0000035371  -0.0000015739  -0.0000006014
        0.0000037031   0.0000016100  -0.0000004905   0.0000232330   0.0000088463
        0.0000032406   0.0000070889  -0.0000227593   0.0000221949   0.0000099084
       -0.0000241383   0.0000023429   0.0000026885   0.0000099554  -0.0000017611
       -0.0000083171  -0.0000249986   0.0000038735  -0.0000163765   0.0000101159
       -0.0000016301   0.0000186758  -0.0000311799   0.0000031573   0.0000617625
        0.0000459886   0.0000037479  -0.0000145318  -0.0001012242   0.0000056568
       -0.0000010772   0.0000970758  -0.0000024148  -0.0000673159  -0.0000297174
       -0.0000046780   0.0000359740  -0.0000095447   0.0000052498  -0.0000123218
        0.0000287901  -0.0000009467   0.0000266904  -0.0000095779   0.0000013818
        0.0000103312  -0.0000050063   0.0000000495   0.0000153710  -0.0000172475
        0.0000032268  -0.0000117397   0.0001167988  -0.0000031880  -0.0001484526
       -0.0001771569  -0.0000107647   0.0072521172  -0.0088424223   0.0094509161
       -0.0022364276  -0.0012830517   0.0036766221  -0.0005701896   0.0003382593
       -0.0003504983  -0.0040796972   0.0014516482   0.0013871878  -0.0100306094
        0.0181722227  -0.0180502125  -0.0738589441   0.0218980591  -0.0179991461
        0.0072528916   0.0062052707   0.0103383377  -0.0144617086  -0.0116041819
       -0.0153221649  -0.0068986095  -0.0041014514  -0.0103847925  -0.0175490269
       -0.0069873985   0.0110806009   0.0067663712   0.0027938766  -0.0027040456
       -0.0161187800  -0.0105116724   0.0057581605  -0.0012363820  -0.0008535974
       -0.0009720158   0.0000840405  -0.0002896541  -0.0000410964  -0.0006354023
       -0.0000934031  -0.0007334181  -0.0006550141   0.0005395115   0.0005573913
        0.0000472595  -0.0000153885   0.0000356042   0.0000143897   0.0000141206
        0.0000057660  -0.0000390721   0.0000381143   0.0000603673  -0.0000117634
        0.0000185286   0.0000188376  -0.0000043672   0.0000010431  -0.0000024863
       -0.0000005730   0.0000011911   0.0000002459   0.0000000606   0.0000008543
        0.0000000438  -0.0000000996   0.0000004523   0.0000000031   0.0000002800
        0.0000016883   0.0000011053   0.0000007850   0.0000008195   0.0000013388
        0.0000014242   0.0000028080  -0.0000000831  -0.0000004690   0.0000000942
        0.0000005649  -0.0000002076   0.0000001177   0.0000026595  -0.0000001832
        0.0000012254   0.0000008511   0.0000009800  -0.0000030295  -0.0000058280
       -0.0000051541  -0.0000022409  -0.0000022112   0.0000026351   0.0000323716
       -0.0000141188  -0.0000204376   0.0000000172  -0.0000105586   0.0000029893
       -0.0000001367   0.0000007470   0.0000000205   0.0000034705   0.0000000003
        0.0000014504   0.0000010521   0.0000003283  -0.0000005690   0.0000026263
       -0.0000003277  -0.0000030407  -0.0000034167  -0.0000005094   0.0000667798
       -0.0007453401   0.0008946585  -0.0000551212  -0.0001394643  -0.0001109633
       -0.0005084201   0.0009551498  -0.0008576519   0.0005464804  -0.0004974080
       -0.0003760875
       -0.0286430736  -0.0789234045  -0.0380688998   0.0112489701   0.4493983146
       -0.0244798831  -0.0446297600  -0.0942031216   0.0272415601   0.0387653124
       -0.1047382591  -0.0326068163   0.0164246075  -0.0220982505  -0.0147339983
       -0.0014133293  -0.0039626151   0.0016702266   0.0003914533  -0.0006611106
       -0.0004186424  -0.0022961499  -0.0004184999   0.0022515431   0.0010815003
        0.0082210355  -0.0001632074   0.0022868479  -0.0017230027  -0.0009317205
       -0.0007542954  -0.0000016624   0.0002641937   0.0000911545   0.0001703694
       -0.0001671360  -0.0000862132  -0.0000041155  -0.0000252001   0.0001470762
        0.0001002226   0.0000016645  -0.0000940399  -0.0000903012   0.0000075428
        0.0002187833  -0.0000062644   0.0000454964   0.0000163603  -0.0000109240
        0.0000021434  -0.0000004315  -0.0000032115  -0.0000024227   0.0000068432
       -0.0000040946   0.0000011067   0.0000183078   0.0000095803   0.0000003631
       -0.0000150406   0.0000109818   0.0000012143   0.0000007484  -0.0000028315
       -0.0000024364   0.0000025623  -0.0000009002  -0.0000002006   0.0000009132
       -0.0000022524   0.0000004776  -0.0000033551   0.0000018951   0.0000015613
       -0.0000062938  -0.0000045823  -0.0000080054  -0.0000002132   0.0000047945
        0.0000013972   0.0000013993  -0.0000007841  -0.0000024688  -0.0000010960
       -0.0000006099  -0.0000024685  -0.0000040291   0.0000111246   0.0000070002
       -0.0000001423   0.0000126983   0.0000112946  -0.0000022833  -0.0000251939
        0.0000132623   0.0000151240  -0.0000028534  -0.0000060306   0.0000001186
       -0.0000144688  -0.0000088033  -0.0000074885  -0.0000119297  -0.0000105209
       -0.0000001522  -0.0000004549   0.0000019343  -0.0000003918  -0.0000057729
        0.0000000677   0.0000049943   0.0000047185  -0.0000007553   0.0000378332
        0.0000052090   0.0000071811  -0.0000023926  -0.0000514841   0.0000018316
       -0.0000024420   0.0000606284   0.0000008956  -0.0000427583  -0.0000236940
       -0.0000053829   0.0000195664  -0.0000025050   0.0000041337  -0.0000095776
        0.0000225722  -0.0000008434   0.0000214831  -0.0000029205   0.0000022288
        0.0000061047  -0.0000083651  -0.0000010407   0.0000192507  -0.0000025830
        0.0000068939  -0.0000174433   0.0000731164  -0.0000099589  -0.0000964242
       -0.0001036126  -0.0000042788  -0.0031722148  -0.0124888744   0.0151135356
       -0.0005172577   0.0026982495   0.0035788971  -0.0004962310  -0.0004168200
        0.0004396477   0.0021853242   0.0046263308   0.0020076402   0.0090247343
       -0.0084284373   0.0077170685   0.0256870494  -0.1107378106   0.0573758477
       -0.0089661366  -0.0106601640  -0.0164008316  -0.0093908693  -0.0081749997
       -0.0099242753   0.0087674257   0.0074426021   0.0127414128   0.0136848741
        0.0085607628  -0.0082701709  -0.0156392291  -0.0129216160   0.0122182472
       -0.0127912787  -0.0086160615   0.0049800019   0.0000807953   0.0010408884
       -0.0003424194   0.0007975615  -0.0008366144  -0.0006781870  -0.0000004553
        0.0000274006   0.0000750799  -0.0005228912   0.0002313484   0.0005702883
       -0.0000004381  -0.0000293899   0.0000482388   0.0000097815   0.0000156502
        0.0000171591   0.0000045268   0.0000519976   0.0000078274   0.0000003526
        0.0000114358  -0.0000019406  -0.0000017733   0.0000039992   0.0000010670
        0.0000015002   0.0000014780   0.0000016063   0.0000012267   0.0000007149
        0.0000006234  -0.0000013645   0.0000017654  -0.0000009360   0.0000026941
        0.0000019027  -0.0000017401  -0.0000016535   0.0000031359   0.0000049664
       -0.0000041698   0.0000007599   0.0000004303  -0.0000007728   0.0000001865
        0.0000074254  -0.0000034717  -0.0000012623   0.0000007735   0.0000036128
        0.0000005931  -0.0000017993  -0.0000055471   0.0000026236   0.0000032281
       -0.0000131260   0.0000266510  -0.0000026035   0.0000014365  -0.0000169152
       -0.0000230724   0.0000050099   0.0000163021   0.0000047248   0.0000019172
        0.0000000458  -0.0000007183   0.0000003467   0.0000032891  -0.0000004892
        0.0000003676   0.0000008955   0.0000002019  -0.0000002978   0.0000022771
        0.0000001320  -0.0000019852  -0.0000024223   0.0000007124   0.0001762621
       -0.0004331707   0.0003606355  -0.0002326699  -0.0007628407  -0.0007208513
       -0.0000337430  -0.0001859778   0.0002239747  -0.0013377208  -0.0010505345
       -0.0010174528
       -0.0369665810  -0.0327921306  -0.1138122392  -0.0377850639  -0.0244798831
        0.4611276328   0.0404393657   0.0262864740  -0.0842248109   0.0429804595
       -0.0377415031  -0.0873439897  -0.0005845741  -0.0036528434   0.0025478512
        0.0033449845   0.0012461799   0.0040527792   0.0001584945  -0.0005678773
       -0.0002846282   0.0040616913   0.0021752893   0.0012245163   0.0155889063
       -0.0072015807  -0.0148737174  -0.0035848981  -0.0021551054   0.0000093820
        0.0004721096   0.0002703419   0.0001640462  -0.0002318590  -0.0002398292
       -0.0000390291   0.0000859726  -0.0000162150   0.0000332405  -0.0000880385
       -0.0000479732  -0.0000067938   0.0000334665   0.0000843986   0.0000210171
       -0.0003353090  -0.0001141523  -0.0000918729  -0.0000169213  -0.0000265618
        0.0000091941  -0.0000414464   0.0000056660  -0.0000030754   0.0000182530
       -0.0000794277   0.0000118935   0.0000076771   0.0000702430  -0.0000198985
        0.0000173275  -0.0000036433   0.0000098583  -0.0000088436  -0.0000005332
       -0.0000021825   0.0000046140  -0.0000012896   0.0000006295  -0.0000023537
       -0.0000018159  -0.0000028978  -0.0000004716   0.0000014847  -0.0000001525
       -0.0000097376   0.0000003789  -0.0000024802  -0.0000010640   0.0000000334
       -0.0000009748  -0.0000083805  -0.0000019550   0.0000019833  -0.0000085061
        0.0000022913  -0.0000023056   0.0000057990   0.0000034565   0.0000027661
       -0.0000030460  -0.0000050167  -0.0000040151  -0.0000162431  -0.0000120007
       -0.0000169870  -0.0000235830   0.0000075314   0.0000101662  -0.0000002584
       -0.0000076674  -0.0000095499  -0.0000116494  -0.0000096858   0.0000067063
        0.0000155568   0.0000285379  -0.0000020482   0.0000243410  -0.0000148036
        0.0000044060  -0.0000120009   0.0000296940  -0.0000057238  -0.0000314094
       -0.0000330619  -0.0000003877   0.0000097138   0.0000428364   0.0000014690
        0.0000013222  -0.0000327865   0.0000051635   0.0000439865   0.0000051009
       -0.0000015957  -0.0000247195   0.0000102929   0.0000001686   0.0000003875
       -0.0000018447   0.0000030809   0.0000002229   0.0000062438  -0.0000037371
       -0.0000127075   0.0000055070  -0.0000030063   0.0000046227   0.0000163829
       -0.0000012186  -0.0000037113  -0.0000503611   0.0000116754   0.0000732957
        0.0000765543  -0.0000063002   0.0015329269   0.0159489239  -0.0189983252
        0.0032344213   0.0027401300   0.0009834301  -0.0004560818   0.0004044133
       -0.0004863131   0.0011785992   0.0028174268   0.0037023510  -0.0063252736
        0.0042238476  -0.0010749100  -0.0232030107   0.0594747696  -0.1085214915
       -0.0071731796  -0.0105516838  -0.0151658195   0.0039600440   0.0036207943
        0.0068241986  -0.0129801870  -0.0073300272  -0.0191174275   0.0138231142
        0.0055070291  -0.0087675776   0.0141905452   0.0122227579  -0.0116049807
       -0.0142444503  -0.0090430684   0.0081123324  -0.0011042019   0.0005979265
       -0.0014635739  -0.0002060274   0.0004057102   0.0000695704  -0.0008187304
        0.0000969245  -0.0005900517   0.0004445552  -0.0003543606  -0.0004124287
        0.0000247678  -0.0000129172  -0.0000254015  -0.0000052961  -0.0000104793
        0.0000018131  -0.0000024480   0.0000148891  -0.0000267174  -0.0000065611
        0.0000052184  -0.0000032439  -0.0000020659  -0.0000009236   0.0000042380
        0.0000013833   0.0000005481   0.0000002342  -0.0000001626   0.0000006608
        0.0000013085  -0.0000041358   0.0000018842   0.0000037502   0.0000005567
       -0.0000000438  -0.0000013122   0.0000027749   0.0000030340   0.0000056567
       -0.0000021466  -0.0000002300   0.0000017405   0.0000019171   0.0000003153
        0.0000058817  -0.0000043082  -0.0000011207  -0.0000007428  -0.0000011974
       -0.0000010636   0.0000004623   0.0000011461   0.0000065354   0.0000069033
        0.0000140113   0.0000136941   0.0000101372   0.0000060159   0.0000005312
        0.0000044520  -0.0000011404   0.0000053682   0.0000074851  -0.0000029445
        0.0000025432   0.0000004183  -0.0000045327  -0.0000009493   0.0000003868
       -0.0000021508  -0.0000030406  -0.0000007657   0.0000001338  -0.0000041703
        0.0000003393   0.0000045849  -0.0000023019   0.0000010848  -0.0001842780
        0.0004612453  -0.0004808280  -0.0001160315  -0.0007968028  -0.0003916199
        0.0002591005  -0.0001850746   0.0000273788   0.0005907508  -0.0013622341
       -0.0011360303
       -0.0198527512  -0.0140358305   0.0031752841  -0.1362100555  -0.0446297600
        0.0404393657   0.4824652854  -0.0262317666   0.0291495886  -0.0179645607
       -0.0056432156   0.0118902027   0.0000124498  -0.0001408646  -0.0003367360
        0.0001086939  -0.0005043921   0.0002010963  -0.0001009453  -0.0000777349
        0.0001407746  -0.0005404875  -0.0003412816   0.0009743171  -0.0015129053
        0.0028467454   0.0010417072   0.0008264534  -0.0001439061  -0.0001525130
       -0.0002910960  -0.0002283823  -0.0000196478   0.0000519119   0.0001287776
        0.0000354593  -0.0000588720  -0.0000441059   0.0000004294   0.0000697265
        0.0000258079   0.0000068016  -0.0000100763  -0.0000447763  -0.0000023348
        0.0001452730   0.0000637553   0.0000116846   0.0000084777   0.0000155084
        0.0000027441   0.0000323625   0.0000118702  -0.0000012618  -0.0000042915
       -0.0000005048  -0.0000019886  -0.0000411586  -0.0000011641  -0.0000015728
        0.0000430744  -0.0000291987  -0.0000024181  -0.0000075817   0.0000010070
        0.0000001197   0.0000043697  -0.0000035812  -0.0000017458  -0.0000031093
        0.0000008656  -0.0000022600   0.0000058401  -0.0000037018  -0.0000030952
       -0.0000001529   0.0000125740   0.0000112255   0.0000038865  -0.0000072712
       -0.0000042983  -0.0000031690  -0.0000042200  -0.0000005389   0.0000009487
       -0.0000015726  -0.0000062154   0.0000038245  -0.0000047769  -0.0000069430
        0.0000056317   0.0000032222  -0.0000040891  -0.0000024902  -0.0000122509
       -0.0000175746   0.0000144761  -0.0000035379  -0.0000162391   0.0000033626
       -0.0000046547  -0.0000137332   0.0000306422   0.0000184480   0.0000021214
       -0.0000059961  -0.0000030479  -0.0000007056  -0.0000128911   0.0000005827
       -0.0000015530   0.0000006377  -0.0000185339   0.0000000035  -0.0000047073
        0.0000375867  -0.0000011597  -0.0000245014  -0.0000378546   0.0000008867
       -0.0000002332   0.0000209548  -0.0000011375   0.0000070111  -0.0000100501
       -0.0000004623  -0.0000136854  -0.0000011704  -0.0000002828  -0.0000006225
        0.0000061364   0.0000006488   0.0000053591  -0.0000030000  -0.0000003669
        0.0000004614   0.0000031748   0.0000000327   0.0000025486  -0.0000075038
       -0.0000022826  -0.0000109215   0.0000275680   0.0000032955  -0.0000115102
       -0.0000688835  -0.0000043578  -0.0009443408   0.0012642653  -0.0013831495
        0.0002027440  -0.0000741510  -0.0002523191  -0.0000448340   0.0000533622
       -0.0000302679   0.0004497561  -0.0001613041  -0.0000053159  -0.0008460457
        0.0010180116  -0.0001068873   0.0059016209   0.0012015618  -0.0006571348
        0.0006240744   0.0006438396   0.0007765600  -0.0022581664  -0.0021919279
       -0.0025054417   0.0002999873  -0.0002633554   0.0010912539  -0.1189786959
        0.0894376380   0.0677042903  -0.0738965971   0.0579785172  -0.0584561362
       -0.1167389611  -0.0615307287  -0.0921144246  -0.0009125500   0.0004868843