$hessian                                                                        
        0.5204958124  -0.0200340548  -0.0098191086  -0.0955953817  -0.0482576488
       -0.0345325820  -0.0215553050  -0.0236006914  -0.0158733300  -0.0048994943
        0.0004802243   0.0006808354  -0.0003251751  -0.0009618672  -0.0007152067
       -0.0001709257  -0.0000126112   0.0000486095   0.0000421526  -0.0000318461
       -0.0000108905  -0.0000305683  -0.0000201463   0.0000127441  -0.0000024829
       -0.0000146818   0.0000064970   0.0000107092  -0.0000051988  -0.0000072127
       -0.0000179127   0.0000814040   0.0000229987  -0.0000241486   0.0000026066
        0.0000031813   0.0000797996  -0.0000301170  -0.0000186496  -0.0000293709
       -0.0000127375  -0.0000138522   0.0000220359   0.0000006271   0.0000013780
       -0.0000460032  -0.0000004166   0.0000008984   0.0000766745  -0.0000001207
       -0.0000024770  -0.0000504596  -0.0000005425   0.0000010888   0.0000170243
       -0.0000003838  -0.0000083804  -0.0000326312   0.0000088725   0.0000038145
       -0.0000082637   0.0000717458   0.0000720677   0.0000156837  -0.0000038151
        0.0000005312  -0.0000080087   0.0000017571  -0.0000115969  -0.0000268089
        0.0000125525  -0.0000156739   0.0000223746  -0.0000092419  -0.0000092511
       -0.0001598211   0.0000494500  -0.0000325473   0.0001934715  -0.0003495964
       -0.0002214672   0.0000984801  -0.0000748419  -0.0000491846  -0.0015278083
        0.0022106982   0.0011835799   0.0074242254   0.0081814892   0.0048217569
       -0.0005634155   0.0010923987   0.0007536851  -0.0005331127   0.0003058578
        0.0012942459   0.0005085630   0.0000122035   0.0000182101   0.0000729819
        0.0003187408  -0.0001605048  -0.0001686036   0.0000450937  -0.0000032388
        0.0000285124  -0.0000716134  -0.0000104977  -0.0000081068   0.0000118397
        0.0000043447   0.0000163707  -0.0000090055  -0.0000065167  -0.0000082983
       -0.0000024188  -0.0000019313   0.0000035850   0.0000017153  -0.0000020364
       -0.0000191971  -0.0000119980  -0.0000086923  -0.0000245912   0.0000133125
        0.0000093255   0.0000058888   0.0000052786   0.0000026880  -0.0000007216
       -0.0000023937  -0.0000039652   0.0000160876   0.0000026906  -0.0000005768
       -0.0000043403   0.0000048363  -0.0000204444   0.0000482924   0.0000717691
        0.0000243052  -0.0004244980  -0.0002390671  -0.0000153347   0.0005917664
       -0.0002962367   0.0001892680  -0.2410035182   0.0652075379  -0.0664108250
       -0.1202124509   0.0323662105   0.1067435674  -0.0429348393  -0.0162874889
        0.0124414385   0.0009157463  -0.0012788894  -0.0010230359  -0.0000623459
       -0.0000387919   0.0000832890  -0.0000014695   0.0000112224  -0.0000191389
       -0.0000112109   0.0000044970  -0.0000183859  -0.0000236051   0.0000134903
       -0.0000077282   0.0000079324   0.0000002240   0.0000019500  -0.0000137501
        0.0000035992   0.0000040658  -0.0000114451  -0.0000042415  -0.0000044560
        0.0000069974   0.0000021721   0.0000024234  -0.0000203889  -0.0000019290
        0.0000139059  -0.0000088070  -0.0000084254   0.0000158427   0.0000004208
       -0.0000159948   0.0000249035  -0.0000529222   0.0000365396  -0.0000790944
       -0.0000058509   0.0000238675  -0.0000051416  -0.0000013927   0.0000023490
        0.0000332177  -0.0000226157  -0.0000527573  -0.0000457257   0.0002365114
        0.0006638552   0.0004978443  -0.0003556009   0.0003309817   0.0000919360
        0.0000421096   0.0000363099   0.0000484470   0.0000012043  -0.0000005917
        0.0000022991  -0.0000002441   0.0000037510   0.0000013011  -0.0000014136
        0.0000019614   0.0000011373  -0.0000024010   0.0000028421   0.0000017803
       -0.0000023786   0.0000004852  -0.0000000377  -0.0000022226   0.0000016964
       -0.0000000716  -0.0000000339   0.0000008614   0.0000000550  -0.0000057162
       -0.0000295554   0.0000040640   0.0000148357   0.0000155695   0.0000100833
        0.0000058284   0.0000547713   0.0000091856
       -0.0200340548   0.4749405588  -0.0046747655  -0.0474481510  -0.1405740588
       -0.0579002086  -0.0084536349  -0.0040381430  -0.0045040552   0.0005555762
        0.0040036229  -0.0025258523  -0.0001405432  -0.0000885401   0.0000690934
       -0.0000339546  -0.0000144907   0.0000469156   0.0000968561   0.0000512793
       -0.0000468367  -0.0000205784  -0.0000161659   0.0000277013  -0.0000232518
       -0.0000048915   0.0000028967   0.0000250794  -0.0000027706   0.0000004119
       -0.0000576154  -0.0000214035   0.0000223766  -0.0000177065   0.0000008971
       -0.0000013095   0.0000876347   0.0000052712  -0.0000005360  -0.0000096603
       -0.0000171793  -0.0000192425   0.0000186196   0.0000042387   0.0000015396
       -0.0000377722  -0.0000000230   0.0000010399   0.0000544695   0.0000002273
       -0.0000035585  -0.0000374540  -0.0000002455   0.0000012360   0.0000183368
       -0.0000046882  -0.0000050485  -0.0000007445   0.0000121746   0.0000057488
       -0.0000499386   0.0000049753  -0.0000249271   0.0000149783   0.0000124942
        0.0000043784  -0.0000161330   0.0000086623  -0.0000054875  -0.0000304055
        0.0000326298  -0.0000361575   0.0001004210  -0.0000024346   0.0000480400
       -0.0000324028  -0.0000247538  -0.0000882368  -0.0000055894  -0.0005175936
       -0.0003918266  -0.0001560522  -0.0005138739   0.0007609228   0.0027340265
        0.0007438361  -0.0043819236  -0.0059255023  -0.0197833713  -0.0146925190
       -0.0009965912  -0.0008620008   0.0011035522   0.0001681939  -0.0004779157
       -0.0001567325  -0.0001780490  -0.0000451099  -0.0002150197  -0.0001164893
       -0.0001557306   0.0000082827   0.0002115343   0.0001050209   0.0000984603
        0.0000019615   0.0000445480  -0.0000097427  -0.0000254640  -0.0000298967
       -0.0000153982  -0.0000185496   0.0000114880   0.0000086960   0.0000153461
        0.0000196848   0.0000136718   0.0000072016  -0.0000186651  -0.0000069185
       -0.0000107093   0.0000184696   0.0000123179   0.0000595880  -0.0000017024
       -0.0000046606  -0.0000153699  -0.0000016945  -0.0000038201  -0.0000033389
        0.0000071931   0.0000044646  -0.0000112093  -0.0000052997  -0.0000047135
        0.0000985396  -0.0000062563   0.0000139028  -0.0001226998  -0.0001443798
       -0.0000566174   0.0000794107  -0.0000012138  -0.0001259810  -0.0000194365
        0.0001196782  -0.0000272137   0.0659116274  -0.0624948269   0.0212382736
        0.0314054978  -0.0527750868  -0.0428989301  -0.0179299219  -0.1966580921
        0.1081466928   0.0009455902  -0.0003740425   0.0018671757  -0.0000656130
       -0.0000608881   0.0000050477   0.0000034912   0.0000017366  -0.0000158483
       -0.0000050407   0.0000011229  -0.0000171406  -0.0000168663   0.0000011941
       -0.0000074359   0.0000043481   0.0000048309   0.0000074612  -0.0000134536
        0.0000028189   0.0000044637  -0.0000099865  -0.0000030033  -0.0000054181
        0.0000051043  -0.0000033550  -0.0000038002  -0.0000182167  -0.0000050534
        0.0000022195  -0.0000101574  -0.0000055367   0.0000122720   0.0000071631
       -0.0000065992   0.0000063681  -0.0000307446   0.0000189982  -0.0000461139
       -0.0001545467  -0.0001659338  -0.0000593049   0.0000597625   0.0000684940
        0.0000248109  -0.0000225992   0.0000465292   0.0000313733  -0.0005053448
       -0.0007887243  -0.0004386885   0.0000242927   0.0002206599  -0.0000574072
        0.0000590859   0.0000210591  -0.0000502893   0.0000068588   0.0000083461
        0.0000036032  -0.0000019554   0.0000086900   0.0000034742   0.0000040322
        0.0000033460   0.0000033026   0.0000058250   0.0000021311   0.0000003440
       -0.0000060884   0.0000104173   0.0000032118  -0.0000060210   0.0000065797
        0.0000006960   0.0000127621   0.0000258539   0.0000099570  -0.0000132736
        0.0000043364  -0.0000103822   0.0000527303   0.0000080624  -0.0000131625
        0.0000029366   0.0001034775  -0.0000731660
       -0.0098191086  -0.0046747655   0.4888840757  -0.0367019147  -0.0631363488
       -0.1039008412  -0.0054517964  -0.0045046296  -0.0021158069   0.0001486177
       -0.0021816139   0.0046343328  -0.0001313497  -0.0000764113  -0.0000400926
        0.0000003780  -0.0000740872   0.0000129587   0.0000266164   0.0000326470
       -0.0000058255  -0.0000155165  -0.0000165519   0.0000281312  -0.0000146786
       -0.0000030924  -0.0000013026   0.0000115794   0.0000023629   0.0000014876
       -0.0000217395  -0.0000118080   0.0000123029  -0.0000107896   0.0000016982
       -0.0000025044   0.0000470099   0.0000018484   0.0000015823   0.0000009524
       -0.0000061196  -0.0000048696   0.0000091973   0.0000031881   0.0000015163
       -0.0000194004  -0.0000012207  -0.0000006960   0.0000262595  -0.0000003142
       -0.0000010674  -0.0000183634  -0.0000003155  -0.0000001820   0.0000079584
       -0.0000024340  -0.0000018464   0.0000007835   0.0000079683   0.0000033973
       -0.0000255034   0.0000142027  -0.0000052909   0.0000121868   0.0000003481
       -0.0000023289  -0.0000184036   0.0000002803  -0.0000016111  -0.0000080061
        0.0000151019  -0.0000160116   0.0000745836  -0.0000268956   0.0000258422
       -0.0000432179   0.0000353787   0.0000035528   0.0001496410  -0.0002623052
       -0.0002984224  -0.0000597719   0.0006050762  -0.0009036297   0.0017682692
       -0.0046410758   0.0036777331  -0.0052635036  -0.0143788013  -0.0089710451
       -0.0003527920   0.0008348385  -0.0016323969   0.0005222286  -0.0000395206
       -0.0005338315  -0.0002379924  -0.0000454642  -0.0001290382  -0.0000529001
       -0.0000791590   0.0000621451   0.0000906044  -0.0000024914   0.0000270526
        0.0000000213   0.0000278193   0.0000163781  -0.0000143379  -0.0000158870
       -0.0000110357  -0.0000062417   0.0000030343   0.0000024738   0.0000087888
        0.0000053879   0.0000035687   0.0000038920  -0.0000040740  -0.0000025616
        0.0000079835   0.0000013162  -0.0000000905   0.0000174592  -0.0000034516
       -0.0000016895   0.0000001273   0.0000027361   0.0000006213   0.0000093688
        0.0000045480   0.0000015869  -0.0000021228  -0.0000130520  -0.0000108952
        0.0000172192   0.0000186690   0.0000071653  -0.0000510707  -0.0000544954
       -0.0000278020   0.0001512750   0.0001064353   0.0000257694  -0.0006631278
        0.0002725876  -0.0001204146  -0.0659895241   0.0217815527  -0.0662623852
        0.1064241090  -0.0427609880  -0.1945834708   0.0143326354   0.1131036331
       -0.1160193561   0.0009612652   0.0013232191  -0.0009512474   0.0000092638
       -0.0000276683   0.0000200858   0.0000039738   0.0000044955  -0.0000141121
       -0.0000035145  -0.0000003038  -0.0000089028  -0.0000070350   0.0000018897
       -0.0000039512   0.0000023678   0.0000010675   0.0000014136  -0.0000058003
        0.0000004034   0.0000020168  -0.0000058646  -0.0000024192  -0.0000031185
        0.0000036122  -0.0000040726  -0.0000041223  -0.0000074935  -0.0000015264
        0.0000043782  -0.0000007761   0.0000006387   0.0000071325  -0.0000046802
       -0.0000010068   0.0000075015  -0.0000752304  -0.0000119145  -0.0000356679
        0.0001201078   0.0001176935   0.0000660881  -0.0001561390  -0.0001135464
       -0.0000855454  -0.0000127271   0.0000427241   0.0000057011  -0.0004178372
       -0.0006153980  -0.0004077821   0.0006256877  -0.0005300376  -0.0004558197
        0.0000888068   0.0000057135   0.0000066271   0.0000024398   0.0000067355
        0.0000042386   0.0000001385   0.0000026993   0.0000019266   0.0000027412
        0.0000004516   0.0000026924   0.0000044538  -0.0000004543   0.0000008329
       -0.0000004959   0.0000039566   0.0000036034   0.0000020365   0.0000016658
        0.0000021209   0.0000073347   0.0000108929   0.0000070728  -0.0000233605
       -0.0000198850  -0.0000123207   0.0000060588  -0.0000029624   0.0000152891
        0.0000040932  -0.0000583367  -0.0000014630
       -0.0955953817  -0.0474481510  -0.0367019147   0.6402143188  -0.0048413090
       -0.0037483847  -0.3168472741   0.0248267650   0.0187101222  -0.0325455203
       -0.0709289302  -0.0490919392   0.0008832321  -0.0018436766  -0.0013710823
       -0.0005718203   0.0000916604  -0.0000285566  -0.0001844839   0.0000833769
        0.0001940856   0.0001023871   0.0000082865   0.0000089766   0.0000155371
       -0.0000209545  -0.0000103811  -0.0000024187  -0.0000065862   0.0000169756
        0.0000278383   0.0001486479   0.0000851121   0.0000333917   0.0000121041
        0.0000033138  -0.0000024458  -0.0000432792  -0.0000263169   0.0000240592
        0.0000023839  -0.0000052121  -0.0000034781   0.0000085501   0.0000071001
        0.0000052975   0.0000042576   0.0000048084  -0.0000267381   0.0000009480
       -0.0000008757   0.0000174498  -0.0000004860   0.0000007361  -0.0000030871
       -0.0000042455  -0.0000076987   0.0000130771  -0.0000025867  -0.0000070615
        0.0000422141   0.0001363227   0.0001032511  -0.0000011740   0.0000066069
       -0.0000219783   0.0000246099  -0.0000178668  -0.0000228052   0.0001169274
       -0.0000018113  -0.0000055330  -0.0001554321   0.0002338394  -0.0000278521
       -0.0005527008   0.0000232713   0.0000967385  -0.0500763105   0.0254686086
        0.0175744049  -0.0004324108  -0.0004866485  -0.0004426590   0.0573890878
        0.0244490739   0.0177476597  -0.1406476743   0.0473156765   0.0341162759
       -0.0268858836   0.0204043994   0.0137692050   0.0011781575   0.0028736083
       -0.0006721168  -0.0010644215  -0.0002056457  -0.0009836800   0.0010089423
       -0.0001886766  -0.0000253979  -0.0004840219   0.0000529760   0.0002644352
        0.0000920165  -0.0002134479  -0.0000024985  -0.0000059566   0.0000560713
        0.0000393569   0.0000448983  -0.0000283830  -0.0000295775  -0.0000223915
       -0.0000278714  -0.0000169426   0.0000012671   0.0000345977   0.0000088174
       -0.0000348521  -0.0000442115  -0.0000352328  -0.0000625192   0.0000614587
        0.0000277117   0.0000234634  -0.0000228207  -0.0000075594  -0.0000151624
        0.0000166015   0.0000107769   0.0000361011   0.0000293830   0.0000195114
       -0.0000738464  -0.0000434504  -0.0000313770   0.0002411164   0.0002274589
        0.0000675704  -0.0010398280   0.0002326936  -0.0014716484  -0.0026510289
       -0.0016923552   0.0007614944  -0.0175329342  -0.0205042289  -0.0153199355
        0.0071692913   0.0101356697   0.0075124158  -0.0019857677  -0.0073312831
       -0.0017982291  -0.0188994622   0.0022837357   0.0020394928   0.0000286819
       -0.0000464093  -0.0002014127  -0.0000055009   0.0000164998   0.0000059818
        0.0000208248  -0.0000028438   0.0000109931   0.0000158711   0.0000122796
        0.0000000953  -0.0000121378  -0.0000025934  -0.0000029341   0.0000042370
       -0.0000020240  -0.0000040068   0.0000038107   0.0000031843   0.0000038438
       -0.0000004555   0.0000060707   0.0000120224   0.0000171139   0.0000049085
        0.0000094591   0.0000214025   0.0000047302  -0.0000115024  -0.0000061735
        0.0000143259   0.0000080830   0.0000358672  -0.0002165327   0.0000575923
        0.0001732646  -0.0000672532  -0.0002703509   0.0001507880  -0.0003074193
        0.0000009400   0.0002138644   0.0000467527   0.0000512762  -0.0007194633
       -0.0026849669  -0.0019914002   0.0000301489  -0.0001787952   0.0006907717
       -0.0000434466  -0.0000212590  -0.0000461668  -0.0000102373  -0.0000255978
       -0.0000154105   0.0000000347   0.0000059127   0.0000036114  -0.0000110453
        0.0000039711   0.0000055288  -0.0000114305   0.0000008007  -0.0000020404
       -0.0000035746  -0.0000021258   0.0000011886  -0.0000061080  -0.0000088130
       -0.0000057326  -0.0000014197  -0.0000200742  -0.0000128351   0.0000229477
        0.0000072261   0.0000041151  -0.0003071319   0.0000090312  -0.0000211602
        0.0001010127   0.0001708868   0.0004435479
       -0.0482576488  -0.1405740588  -0.0631363488  -0.0048413090   0.4670828701
        0.2261861376  -0.0394444215  -0.0761493072  -0.0202405781  -0.0221100845
        0.0147911503   0.0113255464  -0.0019674800  -0.0002979429  -0.0054966897
       -0.0010588125   0.0000204551  -0.0000299857  -0.0000896342  -0.0001641445
        0.0000890208   0.0000271344  -0.0000066539  -0.0000508212   0.0000460848
       -0.0000033905   0.0000049425  -0.0000931856  -0.0000207473  -0.0000202483
       -0.0000842497   0.0003388453  -0.0000563545   0.0000392920   0.0000149741
       -0.0000104414  -0.0000891910  -0.0000694265  -0.0000354827   0.0000390490
        0.0000115039   0.0000253949  -0.0000345160  -0.0000065080  -0.0000177129
        0.0000767244   0.0000008404  -0.0000007157  -0.0001064458   0.0000002483
        0.0000014992   0.0000692063  -0.0000022281  -0.0000016317  -0.0000373327
        0.0000140440   0.0000169299   0.0000090291  -0.0000038499  -0.0000201931
        0.0001029037   0.0002137529  -0.0000024025   0.0000402967  -0.0000196297
        0.0000122269   0.0000398075  -0.0000290435  -0.0000062956   0.0000073764
       -0.0000577859   0.0000495767  -0.0000327836  -0.0001344895  -0.0000972532
        0.0005649540   0.0000191571   0.0001755271   0.0239687054  -0.0086947113
       -0.0026485906  -0.0002526181  -0.0001885502  -0.0000482667  -0.0193941513
       -0.0429154028  -0.0305321206   0.0997187872  -0.1801649992  -0.0891374806
        0.0141030498  -0.0003344057  -0.0005642511  -0.0024479329  -0.0016820382
       -0.0015713053   0.0002880247  -0.0002980301  -0.0000876417   0.0000003244
       -0.0002281856   0.0001836928  -0.0005324736  -0.0001226663  -0.0000621521
        0.0001201416  -0.0002343365  -0.0000514876   0.0000031589   0.0000621177
        0.0000411516   0.0000599949  -0.0000331377  -0.0000267328  -0.0000484782
       -0.0000199562  -0.0000141343   0.0000023748   0.0000155924   0.0000003761
       -0.0000507455  -0.0000576077  -0.0000455729  -0.0001371290   0.0000459269
        0.0000332715   0.0000350200   0.0000173573   0.0000170615  -0.0000173302
       -0.0000116945  -0.0000075096   0.0000431172   0.0000253082   0.0000204757
       -0.0001285058  -0.0000204338  -0.0000291850   0.0002721223   0.0003409487
        0.0001320461   0.0008731212   0.0002162820   0.0000599762  -0.0021581981
        0.0018202807  -0.0005216006  -0.0009535661   0.0050941917   0.0036128388
       -0.0012749758  -0.0104316722  -0.0087691949  -0.0139163143  -0.0259509036
       -0.0124353375   0.0210615737  -0.0008302148  -0.0020513520  -0.0000148353
        0.0001289430  -0.0001099078   0.0000001874  -0.0000182061   0.0000367287
        0.0000255991  -0.0000124192   0.0000250588   0.0000171167   0.0000287584
        0.0000125525  -0.0000075072  -0.0000036944  -0.0000075254   0.0000172639
       -0.0000044024  -0.0000082593   0.0000120607   0.0000043645   0.0000040074
        0.0000027135   0.0000014490   0.0000028925   0.0000429341   0.0000389325
       -0.0000096705   0.0000298974   0.0000285795  -0.0000169637  -0.0000033715
        0.0000464214  -0.0000154313  -0.0001083106  -0.0001140172   0.0002139004
        0.0001338058   0.0002559775   0.0000873338   0.0001387863   0.0002009534
        0.0002594465  -0.0000643925   0.0002146572   0.0001044136  -0.0019285572
       -0.0006191633  -0.0054741020  -0.0002517920  -0.0001457442   0.0005092064
       -0.0001057875  -0.0000406675   0.0001632829   0.0000045729  -0.0000194607
       -0.0000123853   0.0000002983   0.0000032964   0.0000039944  -0.0000091081
        0.0000042417   0.0000050554  -0.0000181556  -0.0000014954  -0.0000012990
       -0.0000054744  -0.0000041898  -0.0000008026  -0.0000024867  -0.0000112198
       -0.0000088821  -0.0000075480  -0.0000410821  -0.0000245628   0.0000302612
       -0.0000028674   0.0000079505  -0.0000809360   0.0000355164  -0.0000209290
        0.0001009045  -0.0003411559   0.0001142758
       -0.0345325820  -0.0579002086  -0.1039008412  -0.0037483847   0.2261861376
        0.3020982218  -0.0257612298  -0.0195221300  -0.0622611446  -0.0155728579
        0.0106383182   0.0069975578  -0.0012762002  -0.0054468615   0.0038961870
        0.0010014847   0.0001673541  -0.0000380033   0.0000148519  -0.0000971710
       -0.0000979907   0.0000003520   0.0000313468  -0.0000625019   0.0000248055
       -0.0000140313  -0.0000330812   0.0000679284   0.0000043328  -0.0000221386
        0.0001299687  -0.0000147728   0.0002476798   0.0000189517  -0.0000047079
        0.0000250860  -0.0000778310  -0.0000456743  -0.0000357742   0.0000294483
        0.0000136980   0.0000198677  -0.0000258586  -0.0000058226  -0.0000128731
        0.0000621768  -0.0000009866  -0.0000021953  -0.0000895475  -0.0000017780
        0.0000019304   0.0000585560  -0.0000001264  -0.0000021947  -0.0000318358
        0.0000104991   0.0000126442   0.0000061239  -0.0000025859  -0.0000166018
       -0.0000810483  -0.0000030335   0.0003460630  -0.0001127800  -0.0000199791
       -0.0000111295   0.0000335358   0.0000123841  -0.0000008161   0.0000387334
       -0.0000314745   0.0000038375  -0.0000956982   0.0000640438  -0.0001621799
       -0.0013426938  -0.0000395999   0.0000096236   0.0169229940  -0.0029785284
       -0.0068575580  -0.0002022232  -0.0000874568  -0.0001070347  -0.0143828812
       -0.0305633913  -0.0207892775   0.0747371324  -0.0909067932  -0.1115952852
        0.0042092655  -0.0008981939   0.0004390825  -0.0001383380  -0.0001505042
       -0.0007067752  -0.0004861527   0.0000818768   0.0000055004   0.0001462568
       -0.0002514225   0.0001630259  -0.0001965441  -0.0000686447  -0.0000461879
        0.0000222907  -0.0000560270  -0.0000049178   0.0000075221   0.0000159154
        0.0000084875   0.0000205638  -0.0000094761  -0.0000084757  -0.0000241691
       -0.0000073366  -0.0000056626  -0.0000071743   0.0000092152   0.0000026557
        0.0000022107  -0.0000245193  -0.0000163014  -0.0000509178   0.0000165802
        0.0000089770   0.0000128526   0.0000113900   0.0000076224  -0.0000062709
       -0.0000122756  -0.0000080617   0.0000063416   0.0000066695   0.0000039797
       -0.0000712308   0.0000081880  -0.0000032526   0.0001103455   0.0001219834
        0.0000547073   0.0000295111   0.0000319476  -0.0000358313  -0.0017201596
        0.0006719284  -0.0000842999  -0.0078352976  -0.0076595583  -0.0051362111
       -0.0086505790  -0.0217545881  -0.0158979320   0.0051963732   0.0069635369
        0.0094163125   0.0148866797  -0.0014598935  -0.0003317497  -0.0000987399
        0.0001074109  -0.0001505717  -0.0000045197   0.0000026974   0.0000393656
        0.0000245920  -0.0000139339   0.0000214302   0.0000444848  -0.0000094053
        0.0000326840  -0.0000054247  -0.0000054241  -0.0000058622   0.0000145123
       -0.0000044195  -0.0000070505   0.0000103254   0.0000029238   0.0000040861
        0.0000006020  -0.0000016204   0.0000019647   0.0000070353   0.0000150168
        0.0000242808   0.0000176031   0.0000213479  -0.0000128335  -0.0000002040
        0.0000185985  -0.0000269724   0.0000344151  -0.0000281217   0.0001103764
        0.0000778363   0.0002131153   0.0000704249   0.0001076991   0.0001129764
        0.0001404493  -0.0000444571   0.0001318029   0.0001167078  -0.0013991099
       -0.0054230866   0.0038809997   0.0000645113   0.0000258767   0.0002171943
       -0.0000937412  -0.0000370385   0.0000440858   0.0000033887  -0.0000090557
       -0.0000034754  -0.0000005460  -0.0000033693  -0.0000011816  -0.0000006905
       -0.0000017004   0.0000008163  -0.0000053015  -0.0000011922  -0.0000005657
        0.0000027709  -0.0000028922  -0.0000004959   0.0000032613  -0.0000031093
       -0.0000027769  -0.0000041778  -0.0000193050  -0.0000117831   0.0000226017
       -0.0000030028  -0.0000018847  -0.0000815765   0.0000512917  -0.0000183546
        0.0000260791  -0.0001641739   0.0000641732
       -0.0215553050  -0.0084536349  -0.0054517964  -0.3168472741  -0.0394444215
       -0.0257612298   0.6545057125   0.0026644197  -0.0004322619  -0.1403303191
       -0.0525448355  -0.0353981644  -0.0264825417  -0.0209419762  -0.0142664219
       -0.0012491492  -0.0012773882   0.0011402292   0.0001215506  -0.0005306086
       -0.0002738012   0.0000988514  -0.0000376163   0.0000269002  -0.0000268131
       -0.0000749963   0.0000273539  -0.0000727423  -0.0000584704   0.0000390152
       -0.0006479015   0.0012075083   0.0004040019   0.0001484130   0.0000391575
        0.0000203814   0.0001041055  -0.0003621053  -0.0002287485   0.0000064689
        0.0000035743  -0.0000601182   0.0000528331   0.0000237765   0.0000195394
       -0.0000895728  -0.0000054726  -0.0000037357   0.0001249001  -0.0000054052
        0.0000085379  -0.0000857454   0.0000037592   0.0000005239   0.0000180653
       -0.0000055493  -0.0000527244  -0.0001056384   0.0000054865   0.0000331153
       -0.0004848925   0.0008360830   0.0009768504  -0.0000602781  -0.0000184230
       -0.0000835580  -0.0000399582  -0.0000101043  -0.0000830267   0.0000935293
       -0.0000205740  -0.0000697211   0.0001047992  -0.0005096370  -0.0003481724
       -0.0012640401   0.0004619729  -0.0015249795   0.0577944548  -0.0210109858
       -0.0146317462  -0.0008966985   0.0032256044   0.0021656431  -0.0453342611
       -0.0241298302  -0.0167265303  -0.0398798738   0.0644174272   0.0444101978
        0.0018523505   0.0023069668   0.0012306354  -0.0004938492  -0.0006559289
       -0.0002640230   0.0004182969  -0.0002506573  -0.0000849872  -0.0003298755
        0.0000233017   0.0000158664   0.0002555296  -0.0000192811   0.0000202067
       -0.0000422990   0.0000876221   0.0000076221   0.0000204990  -0.0000188795
       -0.0000132556  -0.0000201989   0.0000122165   0.0000094345   0.0000064674
        0.0000038769   0.0000025054  -0.0000062845  -0.0000158187  -0.0000051157
        0.0000173894   0.0000283286   0.0000166217   0.0000255472  -0.0000364488
       -0.0000186514  -0.0000188572   0.0000043894   0.0000015890   0.0000139944
       -0.0000149190  -0.0000060152  -0.0000104649  -0.0000188196  -0.0000099210
        0.0000174983   0.0000137194   0.0000167061  -0.0000795917  -0.0000964933
       -0.0000199087   0.0001657413   0.0001839804  -0.0001043457  -0.0013534836
        0.0006907691  -0.0000525741  -0.0012231290  -0.0016215470  -0.0014230863
        0.0001608221   0.0012995833   0.0015406697  -0.0006029162   0.0011533292
       -0.0002785734  -0.1153326857   0.0935751898   0.0648411674  -0.0000579209
        0.0002909396  -0.0006716410   0.0000020534   0.0000414356   0.0000275290
       -0.0000015112   0.0000254120   0.0000075055  -0.0000129443   0.0001216433
        0.0000144397  -0.0000013311  -0.0000211060  -0.0000040601  -0.0000073619
        0.0000045958   0.0000061008  -0.0000147688  -0.0000051032   0.0000000659
       -0.0000042716   0.0000225563   0.0000357701  -0.0000053446   0.0000538436
        0.0000984781  -0.0000020377  -0.0000133169   0.0000038635   0.0000005141
        0.0000248026   0.0000227563  -0.0000801478  -0.0005304257   0.0005669528
       -0.0003892309  -0.0000213146   0.0001284628  -0.0003954222   0.0001174302
       -0.0001305162   0.0000966423   0.0007757397   0.0005797050  -0.0001137109
       -0.0005065113  -0.0001770908  -0.0001588527  -0.0002001562   0.0000937563
        0.0000420323   0.0000308599   0.0000252849   0.0000010683  -0.0000059453
       -0.0000039321  -0.0000034970  -0.0000117887  -0.0000049783   0.0000010709
       -0.0000076594  -0.0000054316   0.0000025429  -0.0000039919  -0.0000009009
        0.0000037801  -0.0000045635  -0.0000019850   0.0000006167   0.0000012431
        0.0000031219  -0.0000024321   0.0000046742   0.0000067800  -0.0000201052
       -0.0000128114  -0.0000064578  -0.0000265461  -0.0000515131  -0.0000034820
       -0.0000140633  -0.0002001838   0.0000917830
       -0.0236006914  -0.0040381430  -0.0045046296   0.0248267650  -0.0761493072
       -0.0195221300   0.0026644197   0.4800024227   0.2555928494  -0.1090254652
       -0.1958417027  -0.1045172516  -0.0099745485  -0.0004586032  -0.0016088043
        0.0015469299  -0.0015595460   0.0008016926   0.0001152275  -0.0001461815
        0.0001687669   0.0002806785   0.0000318448   0.0000173130  -0.0000557957
       -0.0000254239   0.0000081537   0.0000158019   0.0000198190   0.0000875117
       -0.0002386492  -0.0000086879   0.0000372458   0.0001439116   0.0000093356
       -0.0000232151  -0.0000641582   0.0000239033   0.0000018508   0.0000904690
        0.0000395460   0.0000329046  -0.0000129928   0.0000172801   0.0000128020
        0.0000213175  -0.0000027802  -0.0000085495  -0.0000952042   0.0000015503
        0.0000002620   0.0000492535  -0.0000035707  -0.0000022310  -0.0000269457
       -0.0000258623  -0.0000157318   0.0000727834  -0.0000155837   0.0000100764
       -0.0000589207   0.0000789979  -0.0001056216   0.0000143999  -0.0000293478
       -0.0000397399  -0.0000495612   0.0000402673   0.0000349917   0.0001320481
        0.0000483964  -0.0000799193   0.0001487918  -0.0002347275  -0.0001043299
        0.0013260131   0.0006592163  -0.0002964979   0.0251285121  -0.0447549200
       -0.0315637309   0.0027278557   0.0002551254  -0.0040840931  -0.0242999865
       -0.0115938631  -0.0051310633   0.0188669091   0.0188634629   0.0121960038
        0.0023525438  -0.0003001103  -0.0054373156   0.0004059886  -0.0002999047
        0.0001890890   0.0003181312   0.0001321665   0.0002937829  -0.0002204774
        0.0000664822   0.0000001966   0.0001423890  -0.0000331958  -0.0000953287
       -0.0000089526   0.0000528420  -0.0000027679  -0.0000103251  -0.0000151775
       -0.0000076722  -0.0000040420   0.0000021217   0.0000044865   0.0000138367
        0.0000016849   0.0000009629   0.0000012284  -0.0000058818   0.0000000474
        0.0000087508   0.0000130656   0.0000101780   0.0000165753  -0.0000224869
       -0.0000088008  -0.0000049170  -0.0000001940   0.0000003242   0.0000132030
        0.0000008787   0.0000014277  -0.0000086911  -0.0000040807  -0.0000000406
        0.0000255133   0.0000064458   0.0000100277  -0.0000744920  -0.0000667786