$hessian                                                                        
        0.5198992116  -0.0191136591  -0.0121534937  -0.0957160457  -0.0448720342
       -0.0391953417  -0.0218476684  -0.0219203968  -0.0180056284  -0.0049082386
        0.0001097039   0.0006878029  -0.0002845374  -0.0007227042  -0.0007823947
       -0.0001677718   0.0000557512   0.0001112091  -0.0000151597  -0.0000160995
        0.0000315012  -0.0000003159  -0.0000666801   0.0000833469  -0.0000105234
        0.0000388373  -0.0000307814  -0.0000391119  -0.0000200315   0.0000351579
        0.0000588128   0.0001131664  -0.0001077627  -0.0000739067  -0.0000103981
       -0.0000052543   0.0000944775   0.0000253632   0.0000159382  -0.0000723345
        0.0000060470   0.0000358058   0.0000364062   0.0000075280   0.0000238946
       -0.0000951977  -0.0000000182   0.0000005237   0.0001292758   0.0000004669
        0.0000042904  -0.0000734727   0.0000035754  -0.0000014586   0.0000531721
       -0.0000114312  -0.0000196399  -0.0000660796  -0.0000094926  -0.0000440645
        0.0000709691  -0.0000302314   0.0000838836  -0.0000491531   0.0000187763
       -0.0000457261  -0.0000238541  -0.0000326199   0.0000774889   0.0000027624
        0.0000231919  -0.0000734227   0.0000145110   0.0000118415  -0.0000006646
       -0.0000022067   0.0000858366  -0.0000509580   0.0001890099  -0.0003268678
       -0.0002368704   0.0001793352   0.0000601806   0.0000472824  -0.0016186957
        0.0019891617   0.0013372577   0.0073594805   0.0076476557   0.0055755463
       -0.0004090855   0.0009593839   0.0009196147  -0.0004707716   0.0001914355
        0.0012028612   0.0005567476  -0.0000153598  -0.0000092941   0.0000520728
        0.0002805779  -0.0001193351  -0.0002176252   0.0000590144   0.0000105944
        0.0000616894  -0.0001246094  -0.0000471676   0.0000110740   0.0000300940
        0.0000171498   0.0000079498   0.0000087509  -0.0000025623   0.0000239175
        0.0000297155   0.0000174097   0.0000217026  -0.0000549726  -0.0000413746
       -0.0000609658   0.0000336728   0.0000281951  -0.0000489425  -0.0000319088
       -0.0000186794   0.0000131033   0.0000566902   0.0000422810   0.0000340856
       -0.0000442819  -0.0000268432   0.0000147211  -0.0000041730   0.0000050634
        0.0000064079  -0.0000128039  -0.0000313460   0.0000704375   0.0000989207
        0.0000497498  -0.0004141430  -0.0001842821  -0.0000298148   0.0005840107
       -0.0002970160   0.0001601529  -0.2405173003   0.0720114544  -0.0595086956
       -0.1199545789   0.0223286633   0.1092435115  -0.0430971863  -0.0180615013
        0.0111638956   0.0009394568  -0.0011690105  -0.0011354976  -0.0000387776
       -0.0000452292   0.0000806917  -0.0000072137   0.0000151743  -0.0000274078
       -0.0000140640   0.0000150484   0.0000034163  -0.0000225800  -0.0000155908
       -0.0000308221   0.0000010211  -0.0000071575   0.0000005143  -0.0000057618
       -0.0000006438   0.0000021766  -0.0000036340   0.0000011232   0.0000005221
       -0.0000005731   0.0000080119   0.0000049934  -0.0000040696  -0.0000284578
        0.0000012384  -0.0000079603  -0.0000055264  -0.0000061032  -0.0000147034
       -0.0000357940   0.0000212866  -0.0000673579   0.0000305346  -0.0000909178
        0.0000081031   0.0000138765  -0.0000088769   0.0000020848  -0.0000102289
        0.0000311069  -0.0000036171  -0.0000706434   0.0000123536   0.0002569430
        0.0006530583   0.0005497404  -0.0003234590   0.0002946800   0.0000948248
        0.0000291488   0.0000304793   0.0000534399   0.0000019176  -0.0000018807
       -0.0000003208  -0.0000012606   0.0000027858  -0.0000030106  -0.0000028577
        0.0000034935  -0.0000054554  -0.0000060118   0.0000010799   0.0000000290
       -0.0000034531  -0.0000076028  -0.0000010125  -0.0000057557  -0.0000044627
        0.0000084361   0.0000004295  -0.0000042430   0.0000071222  -0.0000066705
       -0.0000331818   0.0000066541   0.0000127218   0.0000114791   0.0000034800
       -0.0000025168   0.0000569447   0.0000045637
       -0.0191136591   0.4760020066  -0.0057080865  -0.0436017446  -0.1281944815
       -0.0601100432  -0.0081151683  -0.0031926279  -0.0047683593   0.0008889228
        0.0042455009  -0.0027343202  -0.0004762367  -0.0000779062   0.0000538680
        0.0000638066  -0.0000277205   0.0001942896   0.0000814847  -0.0000122733
        0.0000735120  -0.0000317063   0.0000148115   0.0000230239   0.0000686140
        0.0000672476  -0.0001248391  -0.0000503023  -0.0000875385   0.0001776294
        0.0000040041   0.0000378043  -0.0000384943  -0.0001241449   0.0000148172
        0.0000042752   0.0001523501  -0.0000260124  -0.0000157440  -0.0000550942
       -0.0000043700   0.0000334435   0.0000642297   0.0000297323   0.0000527181
       -0.0001263064  -0.0000055029  -0.0000087310   0.0001314009  -0.0000039586
        0.0000094842  -0.0000710449   0.0000087197  -0.0000041651   0.0000766408
       -0.0000192363  -0.0000510420  -0.0000678024   0.0000094890  -0.0000364296
        0.0000043199  -0.0000362054   0.0000339204  -0.0001030881   0.0001047684
       -0.0001890386   0.0000602099  -0.0001069279   0.0001600932  -0.0000375780
       -0.0000102144   0.0000356118   0.0001548902   0.0000501879  -0.0000689614
        0.0000540124  -0.0000942952  -0.0003249086  -0.0003911464  -0.0003332152
       -0.0002530772   0.0000000412  -0.0003716055   0.0009206764   0.0024002381
        0.0015798460  -0.0045989056  -0.0055396169  -0.0167817246  -0.0154895355
       -0.0007316275  -0.0010897268   0.0011734369   0.0000104332  -0.0004113390
       -0.0001780927   0.0000279515  -0.0000590023  -0.0002033913  -0.0001991032
       -0.0001780457   0.0000124522   0.0002150777   0.0001223592   0.0001050269
        0.0000093208   0.0000079900  -0.0000296220   0.0000032477  -0.0000320216
       -0.0000222663  -0.0000347217   0.0000411008   0.0000227743   0.0000469623
        0.0000325572   0.0000226917   0.0000472831  -0.0000662015  -0.0000420058
       -0.0000355340   0.0000575244   0.0000536882   0.0000404482  -0.0000299760
       -0.0000284147   0.0000048893   0.0000130191   0.0000114869   0.0000485167
       -0.0000192374  -0.0000105162  -0.0000168774   0.0000000266   0.0000119935
        0.0000878010  -0.0000319572   0.0000031122  -0.0001076643  -0.0001263596
       -0.0000522756   0.0000147791   0.0000630784  -0.0001273511   0.0000678031
        0.0001201351   0.0000119361   0.0726215907  -0.0671003358   0.0214598545
        0.0212877436  -0.0459928590  -0.0291521219  -0.0200032078  -0.2168933044
        0.0983931251   0.0008910240  -0.0006912572   0.0018959136  -0.0000217930
       -0.0001190856   0.0000011444  -0.0000110798   0.0000175973  -0.0000145463
       -0.0000089749   0.0000037230   0.0000021897  -0.0000217862   0.0000107663
       -0.0000063177  -0.0000065464  -0.0000055838   0.0000135474  -0.0000051629
       -0.0000020189  -0.0000036627  -0.0000081098   0.0000064107   0.0000060751
       -0.0000078285   0.0000029518  -0.0000027699  -0.0000001681   0.0000029717
        0.0000218089  -0.0000007807  -0.0000060497  -0.0000203587  -0.0000174566
       -0.0000099776  -0.0000032406  -0.0000291811  -0.0000116982  -0.0000415561
       -0.0001628560  -0.0001686408  -0.0000627164   0.0000928220   0.0000598185
        0.0000461709   0.0000164413  -0.0000247351   0.0001037260  -0.0004384197
       -0.0006498124  -0.0004298214  -0.0000210879   0.0002246312  -0.0000276523
        0.0000281744   0.0000167463  -0.0000429255   0.0000099122   0.0000083130
       -0.0000008088  -0.0000020978   0.0000059049  -0.0000065897  -0.0000003010
        0.0000087901  -0.0000097662  -0.0000014497  -0.0000005358  -0.0000035270
       -0.0000090232   0.0000002312   0.0000012460  -0.0000142267  -0.0000077849
        0.0000088886   0.0000125489   0.0000095586   0.0000138812  -0.0000110324
        0.0000012329  -0.0000063412   0.0000534491  -0.0000039846  -0.0000277278
       -0.0000106474   0.0001149776  -0.0000876489
       -0.0121534937  -0.0057080865   0.4881813603  -0.0412847033  -0.0652145868
       -0.1155879868  -0.0063937403  -0.0047024777  -0.0029111894  -0.0001533495
       -0.0019455070   0.0041852651   0.0001533982  -0.0000806849  -0.0000490833
        0.0000155465  -0.0001728810   0.0000171403   0.0000175169   0.0000339088
        0.0000524581   0.0000698587  -0.0000234099   0.0000416204  -0.0000590169
        0.0000385961  -0.0000370479  -0.0000515540   0.0000026238   0.0000338388
        0.0000433827  -0.0000270731   0.0000412008  -0.0000315925  -0.0000040511
       -0.0000118628   0.0000832264   0.0000104927   0.0000030839  -0.0000293607
       -0.0000025482   0.0000159328   0.0000372783   0.0000177570   0.0000372538
       -0.0000841061  -0.0000017844  -0.0000026935   0.0000853320  -0.0000028234
        0.0000020440  -0.0000445743   0.0000055538   0.0000018295   0.0000445531
       -0.0000161931  -0.0000310728  -0.0000314857   0.0000034877  -0.0000136676
        0.0000370140   0.0000218776  -0.0000215180  -0.0000104349  -0.0000111659
       -0.0000234639  -0.0000693444  -0.0000114359   0.0000071122   0.0000750449
        0.0000216311  -0.0000628570   0.0000127180  -0.0000397064  -0.0000254602
        0.0000113755   0.0001353894   0.0000324419   0.0002968324  -0.0003864039
       -0.0005611352   0.0000501830   0.0007329841  -0.0006125723   0.0018344048
       -0.0050315220   0.0025733797  -0.0057465195  -0.0153132456  -0.0120247174
       -0.0004441468   0.0008179103  -0.0014078546   0.0004980912   0.0000356445
       -0.0005377834  -0.0001689257  -0.0000241673  -0.0001585568  -0.0000645420
       -0.0001452005   0.0000676544   0.0000536482   0.0000259984   0.0000400701
        0.0000226428  -0.0000182383  -0.0000031741   0.0000017549  -0.0000130344
       -0.0000116215  -0.0000140586   0.0000253365   0.0000126988   0.0000312980
        0.0000208018   0.0000143044   0.0000323487  -0.0000408334  -0.0000296576
       -0.0000172050   0.0000313509   0.0000300656   0.0000141213  -0.0000187290
       -0.0000162465   0.0000034417   0.0000151407   0.0000116938   0.0000402148
       -0.0000191520  -0.0000154399   0.0000113988   0.0000004936   0.0000042893
        0.0000040799  -0.0000017089  -0.0000004721  -0.0000406069  -0.0000404190
       -0.0000290173   0.0000808045   0.0001429000   0.0000128878  -0.0006094111
        0.0002571707  -0.0001103556  -0.0590679520   0.0218933684  -0.0618972414
        0.1088363128  -0.0289027632  -0.2017577234   0.0129404564   0.1034915317
       -0.0958678423   0.0010946276   0.0013747756  -0.0006076053   0.0000089480
       -0.0000465673   0.0000114328  -0.0000123256   0.0000015899  -0.0000123608
       -0.0000011619  -0.0000001657   0.0000139145   0.0000014479   0.0000021827
       -0.0000110934  -0.0000057471  -0.0000027766   0.0000051533  -0.0000050707
       -0.0000033482  -0.0000026933  -0.0000059432   0.0000036846   0.0000048747
       -0.0000057853   0.0000040990  -0.0000058247  -0.0000093752  -0.0000118428
        0.0000098311  -0.0000008828   0.0000004403  -0.0000045096  -0.0000173051
       -0.0000085301   0.0000102955  -0.0000865968  -0.0000219740  -0.0000072047
        0.0001200918   0.0000626930   0.0000312679  -0.0001295498  -0.0001006288
       -0.0000906979  -0.0000022941   0.0000294507   0.0000837587  -0.0004557626
       -0.0006204691  -0.0005183102   0.0005824295  -0.0004550230  -0.0004907917
        0.0000763240   0.0000003244   0.0000017436   0.0000039259   0.0000063098
        0.0000014093  -0.0000010297   0.0000019926  -0.0000033978  -0.0000007675
        0.0000050106  -0.0000063442  -0.0000015663  -0.0000018997  -0.0000024859
       -0.0000036541  -0.0000020497   0.0000020225  -0.0000049788  -0.0000047937
        0.0000089261   0.0000072487   0.0000022757   0.0000087212  -0.0000239764
       -0.0000222825  -0.0000100296   0.0000116317  -0.0000101816   0.0000068771
       -0.0000010575  -0.0000444127  -0.0000271908
       -0.0957160457  -0.0436017446  -0.0412847033   0.6407827048  -0.0025352997
       -0.0052786011  -0.3178666719   0.0213574085   0.0233058809  -0.0343986118
       -0.0641273128  -0.0548025687   0.0020902803  -0.0015434949  -0.0016786844
       -0.0008027506  -0.0008798069  -0.0011102472  -0.0004631187   0.0003818165
       -0.0001196983   0.0002917124  -0.0001584059   0.0002182467  -0.0003457229
       -0.0001625305   0.0003693274   0.0001237769   0.0003572758  -0.0004097649
        0.0001291623  -0.0000692657   0.0001454512   0.0002744350   0.0000087627
        0.0000042136  -0.0002170219  -0.0000115853  -0.0000037952   0.0001123559
        0.0000069256  -0.0000596759  -0.0001122382  -0.0000287752  -0.0000632013
        0.0001685708   0.0000060150   0.0000067244  -0.0001604411   0.0000014179
        0.0000019961   0.0001003115   0.0000026803  -0.0000019415  -0.0000875601
        0.0000316553   0.0000685360   0.0000967135   0.0000026867   0.0000598313
        0.0000416144   0.0003041214  -0.0000775657   0.0000838423  -0.0002726722
        0.0003200551  -0.0002139908   0.0001658324  -0.0003131661   0.0003942517
       -0.0000037351  -0.0000473553  -0.0000058776   0.0001409881  -0.0001424505
       -0.0005715161   0.0011110790   0.0007518263  -0.0489097127   0.0231939408
        0.0183306580  -0.0003414053  -0.0004702142  -0.0004313350   0.0569103745
        0.0224382576   0.0200692989  -0.1393405826   0.0425025661   0.0385562677
       -0.0272473925   0.0188390384   0.0158694154   0.0010553848   0.0028690566
       -0.0003268747  -0.0011641658   0.0000428422  -0.0010115532   0.0012736303
       -0.0001717260  -0.0000570883  -0.0005823812   0.0000421003   0.0002755367
        0.0000997661  -0.0002483554  -0.0000211355   0.0000222468   0.0000631943
        0.0000521198   0.0000470246  -0.0000172177  -0.0000202861  -0.0000686024
       -0.0000328457  -0.0000217904  -0.0000137476   0.0000519316   0.0000221159
       -0.0000457638  -0.0000784758  -0.0000663217  -0.0000638429   0.0001013653
        0.0000622852  -0.0000027606  -0.0000365276  -0.0000205402  -0.0000500507
        0.0000286473   0.0000185770   0.0000402641   0.0000371444   0.0000199481
       -0.0000651587  -0.0000463724  -0.0000444852   0.0002438354   0.0002661032
        0.0000781070  -0.0012416446   0.0001473284  -0.0014067805  -0.0026021255
       -0.0017034959   0.0005189918  -0.0177087816  -0.0188347117  -0.0171840921
        0.0072779353   0.0092494140   0.0083759866  -0.0020425591  -0.0072934417
       -0.0024403742  -0.0189052130   0.0018453194   0.0024289188  -0.0000665843
       -0.0000278680  -0.0000840578   0.0000099146  -0.0000229851  -0.0000197502
       -0.0000017692   0.0000009783  -0.0000087794   0.0000011935  -0.0000090644
       -0.0000002139  -0.0000002204   0.0000002716  -0.0000061522   0.0000045907
        0.0000008452   0.0000033632   0.0000013275   0.0000012740  -0.0000052131
        0.0000146501   0.0000002258   0.0000136583   0.0000393454  -0.0000231585
       -0.0000262162   0.0000406383   0.0000328589  -0.0000004549   0.0000019303
        0.0000507891  -0.0000134054  -0.0000513002  -0.0003711056   0.0001947253
        0.0001674240  -0.0000018011  -0.0003407420   0.0002071796  -0.0002299226
        0.0000061139   0.0001800452   0.0000336641   0.0001049209  -0.0006887586
       -0.0025645455  -0.0023374410   0.0000841152  -0.0001971175   0.0006734320
       -0.0000454253  -0.0000605981  -0.0000484599  -0.0000179995  -0.0000296496
       -0.0000175220  -0.0000006856   0.0000010990   0.0000065147  -0.0000064225
        0.0000007945   0.0000134453  -0.0000120504   0.0000004803  -0.0000013229
       -0.0000048370  -0.0000000461   0.0000007786  -0.0000062799  -0.0000030963
       -0.0000134590  -0.0000020479  -0.0000170677  -0.0000192429   0.0000184580
        0.0000150546   0.0000023386  -0.0002925328   0.0000532722  -0.0000053258
        0.0001233654   0.0000975164   0.0004442284
       -0.0448720342  -0.1281944815  -0.0652145868  -0.0025352997   0.4192924178
        0.2374816249  -0.0378130396  -0.0718430347  -0.0220641829  -0.0197232663
        0.0124890490   0.0121093571  -0.0018153387   0.0008507314  -0.0058283418
       -0.0012597518   0.0006569798   0.0002633957  -0.0000254696  -0.0002859611
        0.0002911668  -0.0000902490   0.0000590766  -0.0001714660   0.0001897390
        0.0000020073  -0.0000988143  -0.0001454294  -0.0001342673   0.0001283493
       -0.0001028688   0.0003952859  -0.0002942154  -0.0000256399  -0.0000067077
       -0.0000268611  -0.0000938433   0.0000140113   0.0000172113   0.0000522470
        0.0000048095   0.0000111067  -0.0000886430  -0.0000133481  -0.0000280489
        0.0001420866   0.0000025251   0.0000032966  -0.0002219944  -0.0000011214
       -0.0000064782   0.0001511464  -0.0000035666  -0.0000026326  -0.0000785180
        0.0000066184   0.0000268260   0.0000540983  -0.0000074106  -0.0000123850
        0.0000684871  -0.0000957199  -0.0001035939   0.0000083190   0.0001132354
       -0.0001244288   0.0001553713  -0.0000149886   0.0001382098  -0.0001435681
       -0.0001571836   0.0001780553  -0.0000234750   0.0000140716  -0.0000382319
        0.0007885270  -0.0005591166  -0.0000557472   0.0220301931  -0.0080203524
       -0.0018393558  -0.0003563629  -0.0002619606  -0.0001442794  -0.0179380599
       -0.0364776485  -0.0322183451   0.0909778081  -0.1604963212  -0.0939930284
        0.0135830083   0.0000568932  -0.0006790997  -0.0023863274  -0.0014318067
       -0.0016908466   0.0005221952  -0.0005295006  -0.0000738930  -0.0002213121
       -0.0001520568   0.0001294272  -0.0003275966  -0.0001140804  -0.0000550633
        0.0000223527  -0.0000868650  -0.0000115642   0.0000060290   0.0000390829
        0.0000407053   0.0000212539  -0.0000379426  -0.0000326240   0.0000054346
       -0.0000344071  -0.0000291449   0.0000100031   0.0000279561   0.0000118729
       -0.0000128816  -0.0000273358  -0.0000351264  -0.0001195835   0.0000024564
        0.0000109312   0.0000631329  -0.0000149979  -0.0000100933   0.0000430562
        0.0000188152   0.0000127867  -0.0000119879   0.0000344104   0.0000225062
       -0.0001143651  -0.0000198077  -0.0000435511   0.0001624452   0.0001986471
        0.0000951863   0.0010588753   0.0003918061   0.0000173117  -0.0019275194
        0.0015957686  -0.0002268114  -0.0001649381   0.0054885343   0.0045826764
       -0.0004017949  -0.0075619561  -0.0080437288  -0.0144127579  -0.0251438628
       -0.0155524382   0.0194969119  -0.0004638098  -0.0021481186  -0.0000083486
        0.0000682842  -0.0001107258  -0.0000125108   0.0000166736   0.0000430245
        0.0000255542   0.0000003550   0.0000244621  -0.0000049344  -0.0000354887
       -0.0000473589  -0.0000180772  -0.0000020915  -0.0000178866   0.0000123092
       -0.0000078986  -0.0000161923   0.0000106956   0.0000033973   0.0000061044
       -0.0000059953  -0.0000021789   0.0000033951   0.0000280261   0.0000348815
       -0.0000122312   0.0000281962   0.0000210992  -0.0000240625  -0.0000125663
        0.0000008439  -0.0000628923  -0.0001653395  -0.0000435022   0.0002512119
        0.0001025874   0.0002351901   0.0001312188   0.0001093972   0.0001224415
        0.0002370029  -0.0000734725   0.0002025167   0.0000767226  -0.0017581735
        0.0004251099  -0.0058129479  -0.0002598238  -0.0002383995   0.0004741334
       -0.0001065438  -0.0000086557   0.0001638783  -0.0000058060  -0.0000214048
       -0.0000188966   0.0000042238   0.0000021184   0.0000027909  -0.0000152483
        0.0000043489   0.0000066328  -0.0000167235  -0.0000021412  -0.0000008066
       -0.0000109676  -0.0000006491  -0.0000027478  -0.0000108168  -0.0000174362
       -0.0000164805  -0.0000035851  -0.0000439261  -0.0000323363   0.0000234618
       -0.0000030853   0.0000057842  -0.0000988544  -0.0000029914  -0.0000201408
        0.0000845308  -0.0002709809   0.0000944677
       -0.0391953417  -0.0601100432  -0.1155879868  -0.0052786011   0.2374816249
        0.3475730865  -0.0289097692  -0.0199146019  -0.0663136095  -0.0166988941
        0.0093481679   0.0085283398  -0.0021221890  -0.0051974808   0.0027398201
        0.0007945045   0.0007682172   0.0004476398   0.0001430633  -0.0001975029
       -0.0000040190  -0.0001004328   0.0000527148  -0.0001716827   0.0001513408
        0.0000530018  -0.0000752675   0.0000232819  -0.0001069374   0.0000752715
        0.0000336961   0.0001314594   0.0001176775   0.0000153011  -0.0000590711
        0.0000283435  -0.0000837904   0.0000975563   0.0000450328   0.0000249251
        0.0000012220   0.0000036838  -0.0000660070  -0.0000204755  -0.0000149898
        0.0000899656   0.0000083634   0.0000135785  -0.0001434749   0.0000032278
       -0.0000090965   0.0000963529  -0.0000037362   0.0000023250  -0.0000423707
       -0.0000044850   0.0000235835   0.0000436977  -0.0000101114  -0.0000107364
       -0.0001696988  -0.0000679066   0.0002585114  -0.0000531128   0.0000773881
       -0.0000856372   0.0001353369   0.0000228514   0.0000692662  -0.0000902655
       -0.0000894143   0.0000750068   0.0000090652   0.0001522789  -0.0001727996
       -0.0009949850  -0.0003444064  -0.0001462857   0.0189219499  -0.0029065912
       -0.0063713806  -0.0002972062  -0.0000849106  -0.0002255900  -0.0161268489
       -0.0320921060  -0.0271090007   0.0839425617  -0.0954836238  -0.1305313066
        0.0057966515  -0.0010622183   0.0002733575  -0.0003219675  -0.0000845201
       -0.0009236978  -0.0003335692  -0.0001001696   0.0000518065   0.0000902728
       -0.0002482187   0.0001370146  -0.0001956906  -0.0000745300  -0.0000453379
       -0.0000292632   0.0000095306   0.0000391174   0.0000000648   0.0000147553
        0.0000176404   0.0000033956  -0.0000278708  -0.0000247147  -0.0000018930
       -0.0000470846  -0.0000376442   0.0000006203   0.0000602310   0.0000353448
        0.0000291465  -0.0000423585  -0.0000365942  -0.0000372592   0.0000238568
        0.0000197214   0.0000297522  -0.0000506197  -0.0000347936   0.0000230609
        0.0000326965   0.0000237225  -0.0000142980   0.0000338206   0.0000201272
       -0.0000966888   0.0000030235  -0.0000189968   0.0000637775   0.0000657127
        0.0000235240   0.0002526444   0.0001434343  -0.0000926645  -0.0017925317
        0.0006662534   0.0000255220  -0.0079697390  -0.0065756463  -0.0054583165
       -0.0087317857  -0.0208552847  -0.0187970703   0.0038486004   0.0034869632
        0.0086918758   0.0168571573  -0.0014223132  -0.0006448197  -0.0000581606
        0.0001114635  -0.0001519214  -0.0000086441  -0.0000048739   0.0000360298
        0.0000306973   0.0000008737   0.0000296591   0.0000422930  -0.0000947344
       -0.0000287825  -0.0000105744  -0.0000020965  -0.0000165178   0.0000071834
       -0.0000073346  -0.0000096455   0.0000105444   0.0000000176   0.0000045246
       -0.0000037791   0.0000007377   0.0000006822   0.0000019962  -0.0000579689
       -0.0000384693   0.0000133391   0.0000176449  -0.0000086618   0.0000047768
        0.0000042780  -0.0000438782   0.0000572570   0.0000117605   0.0001687512
        0.0000542529   0.0002759464   0.0001440615   0.0000965751   0.0000809135
        0.0001664781  -0.0000463110   0.0001751216   0.0001240391  -0.0015470444
       -0.0057226345   0.0028736654   0.0000356116  -0.0000584162   0.0002656245
       -0.0001210510  -0.0000157062   0.0000589801  -0.0000043745  -0.0000142977
       -0.0000093650   0.0000042385   0.0000005283   0.0000012722  -0.0000092010
        0.0000020575   0.0000046105  -0.0000091265  -0.0000019223  -0.0000010340
       -0.0000041437  -0.0000017216  -0.0000014229  -0.0000057831  -0.0000109927
       -0.0000086544  -0.0000021345  -0.0000316356  -0.0000230418   0.0000205237
       -0.0000033583  -0.0000008436  -0.0001084566   0.0000273707  -0.0000163266
        0.0000369827  -0.0001351336   0.0000642846
       -0.0218476684  -0.0081151683  -0.0063937403  -0.3178666719  -0.0378130396
       -0.0289097692   0.6545365364   0.0014262397  -0.0030072171  -0.1345842467
       -0.0484106153  -0.0415706741  -0.0302906340  -0.0176251102  -0.0165352180
       -0.0017970732   0.0001347045   0.0027487311   0.0006810490  -0.0006407615
        0.0001420353  -0.0003810538   0.0000973238  -0.0002973594   0.0006309669
        0.0003231864  -0.0004293715  -0.0004174709  -0.0005338823   0.0006841618
       -0.0008059420   0.0012770713  -0.0007631686  -0.0000515675  -0.0001636595
        0.0000136717   0.0002866776   0.0002191397   0.0001215303  -0.0000381027
       -0.0000097234  -0.0000026337   0.0000832348   0.0000219733   0.0000909939
       -0.0001728692   0.0000319195   0.0000493903   0.0001241845   0.0000310680
       -0.0000087867  -0.0001696574  -0.0000102252   0.0000099491   0.0001574972
       -0.0000662967  -0.0000582018   0.0000356011  -0.0000136908  -0.0000450411
       -0.0005341117   0.0001849322   0.0007546246  -0.0002225757   0.0005264401
       -0.0005504693   0.0004953098  -0.0000953614   0.0005924384  -0.0005220781
       -0.0002538177   0.0001716508   0.0000930875  -0.0003153523   0.0001122592
       -0.0000207183  -0.0006634538  -0.0022601123   0.0563040465  -0.0193886272
       -0.0143055913  -0.0011298354   0.0027330479   0.0020710151  -0.0443615219
       -0.0220185356  -0.0187429360  -0.0405966562   0.0597113246   0.0505396382
        0.0020492809   0.0021940597   0.0014470187  -0.0006331437  -0.0009041808
       -0.0002848293   0.0003208080  -0.0002356727  -0.0001199841  -0.0005043595
        0.0000522932   0.0000045093   0.0003612406  -0.0000371488   0.0000105491
        0.0000000809   0.0001555324  -0.0000313127   0.0000370538  -0.0000431837
       -0.0000179782  -0.0000192768   0.0000105310   0.0000264219  -0.0000463622
        0.0000046372  -0.0000144650  -0.0000698214  -0.0000500372  -0.0000211274
        0.0000016640   0.0000206041  -0.0000350681   0.0000042463  -0.0000190845
        0.0000268274  -0.0000684757   0.0000708792   0.0000352435  -0.0000524499
        0.0000104184   0.0000282018  -0.0000143995  -0.0000287237  -0.0000405296
        0.0000669325   0.0000677836   0.0000348036  -0.0000319187  -0.0001035213
        0.0000329593   0.0002644646   0.0001583309  -0.0000955637  -0.0014674555
        0.0009338020   0.0000672651  -0.0011797578  -0.0014877601  -0.0016515196
        0.0002664588   0.0010455293   0.0018269873  -0.0004824956   0.0012146384
        0.0000427804  -0.1151703799   0.0868855429   0.0736789455   0.0001043655
        0.0002670698  -0.0003812068   0.0000363413  -0.0000115892   0.0000069929
        0.0000173399   0.0000278290  -0.0000101267  -0.0000345290  -0.0001336224
       -0.0001749273   0.0000249876   0.0000139918  -0.0000235757  -0.0000020295
        0.0000139081   0.0000154219   0.0000192936  -0.0000148533  -0.0000027309
        0.0000295951   0.0000130961   0.0000341744   0.0000018600  -0.0001653007
       -0.0000982076  -0.0000069666   0.0000358226   0.0000510772   0.0000472654
       -0.0000503019  -0.0000297912  -0.0003790797  -0.0005723047   0.0009378245
       -0.0004338568  -0.0001161389   0.0002276221  -0.0004569994   0.0000422402
       -0.0001037563  -0.0000423259   0.0008847950   0.0003076650  -0.0001477994
       -0.0004644537  -0.0002530827  -0.0001762185  -0.0001055273   0.0001944836
        0.0000842835   0.0000475454   0.0000441579  -0.0000072966   0.0000098990
        0.0000232580   0.0000031963  -0.0000192493   0.0000036234   0.0000243946
       -0.0000199269   0.0000315112   0.0000308755   0.0000093369   0.0000143373
        0.0000285644   0.0000138695   0.0000011322   0.0000293333   0.0000358511
       -0.0000182903   0.0000030761   0.0000450178   0.0000124570  -0.0000306456
       -0.0000051545  -0.0000227117  -0.0000012849  -0.0000405552  -0.0000166913
       -0.0000154110  -0.0002376144   0.0000574254
       -0.0219203968  -0.0031926279  -0.0047024777   0.0213574085  -0.0718430347
       -0.0199146019   0.0014262397   0.4215249853   0.2667286133  -0.0995523804
       -0.1675524708  -0.1087066706  -0.0079914079  -0.0000820488  -0.0018221241
        0.0013032927  -0.0009798717   0.0010212048   0.0001442666  -0.0001880346
        0.0002191177   0.0001601050   0.0001343873  -0.0001302754   0.0001135458
       -0.0000113662  -0.0000225716  -0.0000057045  -0.0000815925   0.0001109649
       -0.0002255356  -0.0000523669   0.0000303998   0.0001387671  -0.0000181514
        0.0000445458  -0.0000059919  -0.0000145470  -0.0000443550   0.0001517803
        0.0000112380  -0.0000085103  -0.0000103773   0.0000159170   0.0000162759
        0.0000294622   0.0000014094  -0.0000035262  -0.0000973381   0.0000077614
       -0.0000021478   0.0000049797  -0.0000006336   0.0000026741  -0.0000239341
       -0.0000117851  -0.0000213366   0.0001138405   0.0000176973   0.0000628415
        0.0000865865   0.0002468523  -0.0002436191   0.0000405636  -0.0000106613
        0.0000578974  -0.0000425551  -0.0000261253   0.0000012699   0.0000218921
        0.0000665646   0.0000338119  -0.0000288976  -0.0003910104   0.0000086941
        0.0012556812  -0.0000172416   0.0000896370   0.0232894566  -0.0384241867
       -0.0331118096   0.0023150375   0.0007851674  -0.0044022897  -0.0221264459
       -0.0104970729  -0.0052219513   0.0180147331   0.0156327987   0.0121648574
        0.0017556122   0.0008221650  -0.0057534231   0.0005815669  -0.0002716105
        0.0002162812   0.0002001115   0.0003238726   0.0003044380  -0.0000878925
        0.0000570755   0.0000027214   0.0000413170  -0.0000132011  -0.0000934628
        0.0000475901   0.0000321710  -0.0000340759  -0.0000032931  -0.0000315875
       -0.0000079574   0.0000108471  -0.0000016512   0.0000132551  -0.0000633066
       -0.0000366610  -0.0000357688  -0.0000190042   0.0000176595   0.0000164801
        0.0000003664  -0.0000508121  -0.0000576068   0.0000047417   0.0000580123
        0.0000657350  -0.0000347622  -0.0000186922  -0.0000161933  -0.0000512249
        0.0000620346   0.0000527352   0.0000021969   0.0000250210   0.0000056142
        0.0000227645   0.0000281045   0.0000090327  -0.0000087273  -0.0000013785