$hessian                                                                        
        0.6292434220   0.0441332698   0.0664258315  -0.0900425415  -0.0589425399
        0.0103278910  -0.0090145235  -0.0229115250   0.0069513792   0.0184895955
        0.0140144361   0.0010459484  -0.0120352325  -0.0015030078  -0.0006405431
        0.0011625089  -0.0014892572   0.0005993911  -0.0016993815   0.0069214497
       -0.0000699565   0.0005893495  -0.0001521772  -0.0000427323   0.0023402460
       -0.0005863243   0.0000299440  -0.0041260035  -0.0002292303   0.0002048246
        0.0006413834   0.0045827451  -0.0000629914   0.0014252681  -0.0032641807
       -0.0001228751  -0.0010480494   0.0009236977   0.0001784515  -0.0058285300
       -0.0010415821  -0.0001095130   0.0013476345   0.0049100288   0.0001909543
       -0.0015491027  -0.0025746480  -0.0000518669   0.0034084708   0.0004649042
        0.0001497292  -0.0003498959  -0.0057022510  -0.0004342287   0.0078437165
        0.0070477948   0.0002496286  -0.0057155327  -0.0102856239   0.0007247854
        0.0037911270  -0.0029144850  -0.0002815839  -0.0010956874   0.0012473833
       -0.0004434144   0.0010071852  -0.0009134691  -0.0004410773  -0.0004793715
        0.0011323041  -0.0004871468   0.0003800812  -0.0005933636   0.0003746520
       -0.0003271833   0.0002059260   0.0002352418  -0.0001427683  -0.0008269728
        0.0006586112  -0.0754085254  -0.0152689729  -0.0092529439  -0.1966147255
        0.1229621497  -0.0573223333  -0.2615376693  -0.0955902217  -0.0082161056
        0.0016834664   0.0225321006  -0.0073345087  -0.0044481879  -0.0035257397
       -0.0016752301  -0.0000765261  -0.0001041246  -0.0000301005  -0.0000625853
       -0.0001428732  -0.0000387428   0.0001294204   0.0001024753  -0.0000425852
        0.0001557454   0.0000863079  -0.0000005025   0.0000736360   0.0000357328
       -0.0000254118   0.0000595585   0.0000708412  -0.0000383768   0.0001157506
        0.0001240545  -0.0000301085  -0.0001473990  -0.0000487374  -0.0001344050
        0.0000820444   0.0001039711  -0.0000428524  -0.0000617350  -0.0000268366
        0.0000008427  -0.0000204193   0.0000403883  -0.0000203787   0.0000124574
       -0.0000292800  -0.0000038106  -0.0000390668  -0.0000528855  -0.0000490533
       -0.0043737481  -0.0025095915  -0.0015354462   0.0022623239  -0.0004120603
        0.0006327189
        0.0441332698   0.5588181154  -0.1268076437   0.0210833958  -0.2618249831
        0.0710050868  -0.0792402106  -0.0430578316  -0.0000405923   0.0144643429
       -0.0073361059   0.0018700146  -0.0058828511   0.0010501002  -0.0013230730
        0.0009999415  -0.0010948382   0.0006010477  -0.0012472531   0.0030958924
       -0.0001006313   0.0005900393  -0.0002704204  -0.0001137938   0.0008665445
       -0.0000123071  -0.0000038012  -0.0015988711  -0.0000483424   0.0001072582
        0.0002752940   0.0019890124  -0.0000252894   0.0007782629  -0.0015267303
       -0.0000261727  -0.0006643050   0.0005036047   0.0000620280  -0.0020717256
       -0.0007605376  -0.0000355173   0.0005515955   0.0021006491   0.0000467346
       -0.0003925295  -0.0012171376  -0.0000397927   0.0010148504   0.0001662559
       -0.0000787262  -0.0000719401  -0.0020529790  -0.0001067651   0.0028172771
        0.0026703017   0.0002370638  -0.0016129165  -0.0045369607   0.0004309893
        0.0014268499  -0.0013111945  -0.0003253487  -0.0012583460   0.0005115230
        0.0006128367   0.0009922827   0.0010428573  -0.0003037018   0.0002200541
       -0.0005579248   0.0005613453   0.0006006459   0.0002292535  -0.0011113307
       -0.0008799494   0.0004944352   0.0007203409   0.0000354019  -0.0006456137
       -0.0000689086   0.0400971501   0.0272657400  -0.0011353173   0.0430101403
       -0.1528887643   0.0357964450  -0.0956536654  -0.0841450994   0.0011143550
        0.0004501551  -0.0189457861   0.0044716852  -0.0028617790   0.0011018566
        0.0028051623  -0.0000235959  -0.0000037404  -0.0000141688  -0.0000043650
       -0.0000532043  -0.0000152294   0.0000570030   0.0000427766  -0.0000278850
        0.0000739646   0.0000322845   0.0000049351   0.0000243601   0.0000159655
       -0.0000280418   0.0000226018   0.0000277079   0.0000317406   0.0000348094
        0.0000525855  -0.0000151674  -0.0000353401   0.0000127064   0.0000149445
       -0.0000342159  -0.0000438836   0.0000120829   0.0000639072   0.0000079885
        0.0000355421  -0.0000166347  -0.0000087879  -0.0000208790   0.0000575577
        0.0000291755   0.0000256988   0.0000178798  -0.0000189997  -0.0000147229
       -0.0031994381   0.0006377984   0.0021112403   0.0219903549  -0.0195364136
        0.0091039225
        0.0664258315  -0.1268076437   0.1510558666  -0.0150370369   0.0551933420
       -0.0647235793   0.0231820928   0.0098990551   0.0026181601  -0.0009304587
        0.0013678904  -0.0072794014   0.0003365536  -0.0002615279  -0.0000835053
       -0.0000348831   0.0000709613   0.0000308818   0.0002592994  -0.0001639674
       -0.0000196642  -0.0001726658   0.0000849528   0.0000464169   0.0000446057
       -0.0000712603   0.0000052249  -0.0000411404  -0.0000184102  -0.0000059955
       -0.0000191941  -0.0000298382  -0.0000017954  -0.0001028203   0.0000731755
       -0.0000044736   0.0001140103  -0.0000274427   0.0000004645  -0.0000838765
        0.0001246978   0.0000046527  -0.0000257722  -0.0000757593  -0.0000051474
       -0.0001258436   0.0000464230   0.0000079706   0.0001278668   0.0000039439
        0.0000193382  -0.0000142677  -0.0000870439  -0.0000013988   0.0000879123
       -0.0000098526   0.0000068501  -0.0000952253   0.0001513190  -0.0001181188
       -0.0000694591  -0.0000463284   0.0001112380   0.0002740039   0.0001584980
       -0.0002262119  -0.0001035533  -0.0002476931   0.0000440934  -0.0000654813
        0.0002595506  -0.0002010107  -0.0001112478  -0.0001319690   0.0003360525
        0.0001767479  -0.0000954278  -0.0001544370  -0.0000004986   0.0000242635
        0.0001696634  -0.0235007808  -0.0092475738   0.0004659235  -0.0340370349
        0.0489381279  -0.0634697981  -0.0079812911   0.0011559005  -0.0311249271
        0.0000230395   0.0102117295  -0.0014819544  -0.0013943177   0.0020505326
        0.0073878164  -0.0000094257  -0.0000239830  -0.0000042260  -0.0000065785
       -0.0000052131   0.0000005194   0.0000041230  -0.0000034141   0.0000021594
        0.0000032986   0.0000049646   0.0000014685   0.0000105647  -0.0000004222
        0.0000038469   0.0000090978   0.0000080532  -0.0000055340   0.0000029847
        0.0000051259   0.0000008654  -0.0000174447  -0.0000075898  -0.0000132461
        0.0000301366   0.0000356541  -0.0000050934  -0.0000284257   0.0000058488
       -0.0000062791   0.0000015069   0.0000069897   0.0000019210  -0.0000185965
       -0.0000129157  -0.0000087937  -0.0000128443  -0.0000018889  -0.0000045768
       -0.0011142056   0.0017886615   0.0079593015  -0.0059593059   0.0057075040
       -0.0013315277
       -0.0900425415   0.0210833958  -0.0150370369   0.6531700078   0.0077771190
        0.0917452252  -0.3095846501  -0.1315673377  -0.0057252433  -0.0680400892
        0.0072711985  -0.0142004882   0.0121727652   0.0029676365  -0.0000433368
       -0.0040102818   0.0017448866  -0.0009692612   0.0024372827  -0.0058063559
        0.0000745861  -0.0009191274   0.0002699077   0.0001454058  -0.0020722976
        0.0003764420   0.0001056681   0.0037198065   0.0002006974  -0.0002702671
       -0.0008147329  -0.0043043073   0.0000574266  -0.0014376715   0.0031202900
        0.0000051135   0.0010697335  -0.0008793909  -0.0000627075   0.0050403527
        0.0012398434   0.0000986298  -0.0012226604  -0.0044831255  -0.0002169317
        0.0012070505   0.0024211507   0.0000513966  -0.0027843928  -0.0004129286
        0.0000691326   0.0002546325   0.0050090496   0.0002908796  -0.0067292842
       -0.0062459898  -0.0004168831   0.0049334736   0.0093649336  -0.0005922023
       -0.0032065693   0.0028502977   0.0006754976   0.0016652753  -0.0013802399
       -0.0003943728  -0.0013770677  -0.0004687989   0.0007079063   0.0000268311
       -0.0001524431  -0.0002148558  -0.0006262797   0.0001718881   0.0006828812
        0.0009669450  -0.0005802026  -0.0006424187  -0.0000556934   0.0011126270
       -0.0003443746  -0.0145857433  -0.0075294609   0.0013983058   0.0329880710
        0.0173617336   0.0009259624  -0.0059552815  -0.0265785630   0.0063601879
       -0.1977033869   0.1080424655  -0.0613487309  -0.0055800321  -0.0046701455
       -0.0005239071   0.0000380272  -0.0000745413   0.0000044812   0.0000150933
        0.0000041378   0.0000285572   0.0000025232  -0.0000472699   0.0000260065
       -0.0000747935   0.0000035756   0.0000366048   0.0000162042  -0.0000258378
        0.0000320903   0.0000210455   0.0000197208  -0.0000299239  -0.0000240600
        0.0000004732   0.0000318919  -0.0000037340  -0.0000094690  -0.0000078828
       -0.0000709802   0.0000453391  -0.0000413738  -0.0000286274   0.0000132005
        0.0000489856  -0.0000142550   0.0000654709   0.0000062218  -0.0000396229
       -0.0000023171  -0.0000578427   0.0000070706   0.0000138962  -0.0000015881
        0.0003903929  -0.0006007707  -0.0001161106  -0.0031387278   0.0032681189
       -0.0023513043
       -0.0589425399  -0.2618249831   0.0551933420   0.0077771190   0.5622634898
       -0.1411579508  -0.0573148307  -0.1218147153   0.0159427706  -0.0247454441
        0.0103960519  -0.0060707446   0.0204595175  -0.0012572486   0.0041206128
       -0.0012602453   0.0028918715  -0.0011794729   0.0032018138  -0.0101240563
       -0.0000015807  -0.0012346041   0.0005777673   0.0002745951  -0.0030368204
        0.0004319278   0.0001070332   0.0053596254   0.0001862601  -0.0003965799
       -0.0010222244  -0.0063028038   0.0000760386  -0.0021943936   0.0047082141
        0.0000361802   0.0017999453  -0.0014035893  -0.0001042117   0.0075827459
        0.0018759068   0.0001634224  -0.0017627694  -0.0068646516  -0.0003436541
        0.0017174610   0.0037313403   0.0000904247  -0.0041566627  -0.0004561182
        0.0000153523   0.0002884620   0.0074462496   0.0005235788  -0.0101573269
       -0.0094869488  -0.0004242074   0.0068505916   0.0145263702  -0.0010904502
       -0.0043183700   0.0031716779   0.0005044813   0.0015796525  -0.0017790498
       -0.0004484417  -0.0018360861  -0.0008836260   0.0006651733  -0.0001754773
        0.0000162303  -0.0002942760  -0.0008302897   0.0002145975   0.0009734770
        0.0011614547  -0.0005983075  -0.0008829155  -0.0000593683   0.0014090734
       -0.0006566157  -0.0225848727  -0.0038508505  -0.0018358502   0.0594843628
       -0.0394156675   0.0215724788  -0.0039010491  -0.0129281385   0.0039187603
        0.1069172451  -0.1184684852   0.0479296423  -0.0267611282  -0.0153255918
        0.0004801246   0.0000429354   0.0000013890   0.0000177360   0.0000037652
        0.0001061486   0.0000484975  -0.0000865432  -0.0000639727   0.0000559555
       -0.0001475937  -0.0000375299   0.0000098462  -0.0000367354  -0.0000354872
        0.0000411680  -0.0000276997  -0.0000311296  -0.0000067695  -0.0000475641
       -0.0000944747   0.0000379751   0.0000772107  -0.0000025358   0.0000328518
       -0.0000519610  -0.0000533939  -0.0000048852  -0.0000038013  -0.0000258622
       -0.0000380589   0.0000305504  -0.0000152385   0.0000157583  -0.0000549302
       -0.0000434818  -0.0000457993   0.0000437027   0.0000055639  -0.0000463211
       -0.0003446026  -0.0000275948  -0.0002198977   0.0027177734  -0.0007445973
        0.0024014062
        0.0103278910   0.0710050868  -0.0647235793   0.0917452252  -0.1411579508
        0.1690332444  -0.0277176371   0.0036514775  -0.0477816370  -0.0060054445
       -0.0027889227   0.0015614694  -0.0037011144   0.0030468770   0.0024155893
       -0.0007023068  -0.0005878936   0.0001234422  -0.0002992247   0.0012885902
       -0.0000300304   0.0000668476  -0.0000502885  -0.0000702306   0.0003667383
       -0.0000722713   0.0000096551  -0.0006115898   0.0000255652   0.0000298849
        0.0000811288   0.0006759716   0.0000082042   0.0001845442  -0.0004928141
        0.0000041177  -0.0001786821   0.0000406689   0.0000284593  -0.0009723154
       -0.0001087598   0.0000716695   0.0001996045   0.0007296454  -0.0000188466
       -0.0003250029  -0.0003853050   0.0000058288   0.0006135576   0.0000750138
       -0.0001204575  -0.0001271997  -0.0009400431  -0.0000462523   0.0013351988
        0.0011613103   0.0002772735  -0.0009993147  -0.0016457663   0.0003181900
        0.0007475809  -0.0010483563  -0.0010164951  -0.0008104326   0.0001615393
        0.0001608417   0.0005236792   0.0005883179   0.0000530991   0.0002453925
       -0.0004033363   0.0001665129   0.0002145455   0.0001245548  -0.0004858024
       -0.0002553467   0.0000794005   0.0003220027   0.0000631754  -0.0000828465
        0.0000314731   0.0052497607  -0.0004184384  -0.0029219083  -0.0127002704
        0.0141965105  -0.0054806588  -0.0000465086   0.0000005817   0.0016492587
       -0.0623457824   0.0459666175  -0.0606088890   0.0078887735   0.0049649820
        0.0017306397  -0.0000111431  -0.0000210371   0.0000014072  -0.0000007000
       -0.0000329406  -0.0000058773   0.0000308939   0.0000132929  -0.0000092893
        0.0000291131   0.0000175873  -0.0000270117   0.0000194459   0.0000047855
       -0.0000347893   0.0000202298   0.0000130837   0.0000418104   0.0000152871
        0.0000258429  -0.0000069785  -0.0000230741  -0.0000223601   0.0000477218
       -0.0000172993   0.0000058906  -0.0000203806  -0.0000106268   0.0000344044
        0.0000680709  -0.0000194441   0.0000296405  -0.0000068770   0.0000146666
        0.0000213724   0.0000075233  -0.0000127034   0.0000035142   0.0000054299
        0.0001617413  -0.0002387939  -0.0002944593  -0.0022518576   0.0025459991
        0.0055376308
       -0.0090145235  -0.0792402106   0.0231820928  -0.3095846501  -0.0573148307
       -0.0277176371   0.6091066302   0.0777672425   0.0643475771  -0.1408720708
        0.0829978526  -0.0415203053  -0.0732617300   0.0097504983  -0.0112910066
        0.0074253224  -0.0086483581   0.0011098415  -0.0100234541   0.0152097400
       -0.0000113990   0.0023921977  -0.0013501594   0.0000135805   0.0054045605
       -0.0007533273  -0.0002150368  -0.0097133888  -0.0005458245   0.0006177465
        0.0019053287   0.0113985093  -0.0001419045   0.0038640820  -0.0084557911
       -0.0001346419  -0.0030676723   0.0025584523   0.0002743539  -0.0133144539
       -0.0033050220  -0.0002964468   0.0031902852   0.0120778786   0.0006158982
       -0.0029832228  -0.0065328071  -0.0001726998   0.0072255298   0.0009957252
        0.0000592398  -0.0005992585  -0.0134111563  -0.0008687732   0.0175984725
        0.0166452036   0.0007836001  -0.0134700230  -0.0235647566   0.0012406102
        0.0107886275  -0.0030737427  -0.0008817813  -0.0043444721   0.0009431277
       -0.0001491328   0.0022229948  -0.0012968312  -0.0016220655  -0.0004942817
        0.0013670045  -0.0004380144   0.0010679970  -0.0008207884  -0.0003585554
       -0.0014756938   0.0008910640   0.0009448892  -0.0002422628  -0.0018765378
        0.0007217924   0.0159468984   0.0151819764  -0.0068335301  -0.0243691831
        0.0015788627  -0.0044471705   0.0009604001  -0.0009546225  -0.0005239674
       -0.0265430410  -0.0084253402  -0.0036333363  -0.0457697451  -0.0288644455
        0.0077783412  -0.0001339227  -0.0000080762  -0.0000173299  -0.0000738250
       -0.0001407180  -0.0000754110   0.0000964974   0.0001470990  -0.0000695653
        0.0002264924   0.0000610627  -0.0000578852   0.0000447418   0.0000708969
       -0.0000631533   0.0000291081   0.0000388961   0.0000072910   0.0001082711
        0.0001340595  -0.0000700285  -0.0001333415  -0.0000267849  -0.0001231672
        0.0000892177  -0.0001730574  -0.0004433602  -0.0000003391  -0.0000125752
       -0.0000488043  -0.0000073023   0.0000264430  -0.0000507111   0.0000647729
       -0.0000277380   0.0000553906  -0.0000610059  -0.0000828454  -0.0001025315
        0.0003425296  -0.0014355540  -0.0000304653  -0.0005480940   0.0005003063
        0.0006575728
       -0.0229115250  -0.0430578316   0.0098990551  -0.1315673377  -0.1218147153
        0.0036514775   0.0777672425   0.5880390541  -0.1509235820   0.0779163192
       -0.1387209763   0.0409824470   0.0115430272   0.0099613968  -0.0021856019
       -0.0064797523   0.0015587087   0.0001729636   0.0023775695  -0.0040932144
        0.0002718778  -0.0010017279   0.0001803271  -0.0000771192  -0.0019227107
        0.0002716929   0.0000277240   0.0032744761   0.0000699143  -0.0001438466
       -0.0005387960  -0.0037030652   0.0000440528  -0.0011440847   0.0027127625
        0.0000919292   0.0008391675  -0.0004409924  -0.0001628102   0.0048189451
        0.0006945034   0.0000368738  -0.0010160055  -0.0039890405  -0.0001915081
        0.0012432499   0.0020460845   0.0000475394  -0.0028051041  -0.0003400856
       -0.0001195278   0.0002738817   0.0048398148   0.0004222491  -0.0061597511
       -0.0057615685  -0.0002674837   0.0050986379   0.0077663007  -0.0002363784
       -0.0031963578   0.0010397804   0.0006818876  -0.0027361541  -0.0013415702
        0.0001274362   0.0000987791   0.0013659510  -0.0004674918   0.0006952087
       -0.0012595820   0.0008494722   0.0005039917   0.0005086986  -0.0012621035
       -0.0004408070   0.0001675611   0.0007133352   0.0004701884   0.0004310100
       -0.0004728253   0.0248530104  -0.0247421268   0.0124116911  -0.0138022969
        0.0061459053  -0.0048544620  -0.0013708543  -0.0050158646   0.0030522320
        0.0144478053   0.0055712349   0.0003468317  -0.0277470154  -0.2742216240
        0.0853057134   0.0000714896   0.0000073464   0.0000093564   0.0000320471
        0.0001201396   0.0000221751  -0.0000937757  -0.0000710188   0.0000217819
       -0.0001261866  -0.0000580030   0.0000198086  -0.0000544702  -0.0000259147
        0.0000253456  -0.0000539850  -0.0000685624   0.0000297773  -0.0000744220
       -0.0001231343   0.0000136940   0.0000490863   0.0000387999   0.0000620812
       -0.0003136269  -0.0001954970  -0.0000848407   0.0000421426  -0.0000011210
        0.0000067577  -0.0000549646  -0.0000616226  -0.0000144318  -0.0000106682
        0.0000125976  -0.0000094066  -0.0000912993  -0.0000074596   0.0000294435
       -0.0008464950  -0.0051225048   0.0025910896   0.0001439083   0.0006875110
       -0.0004946801
        0.0069513792  -0.0000405923   0.0026181601  -0.0057252433   0.0159427706
       -0.0477816370   0.0643475771  -0.1509235820   0.1684328693  -0.0491290288
        0.0418379815  -0.0680825844  -0.0097248859  -0.0002561159  -0.0021627831
        0.0017875415  -0.0008446191   0.0055207469  -0.0019866436   0.0031905856
        0.0003858429   0.0005568447  -0.0003740158  -0.0010507420   0.0009870507
       -0.0000660226   0.0000120349  -0.0017314324  -0.0000541800   0.0002339904
        0.0003077325   0.0020782759  -0.0000238744   0.0007158243  -0.0015774781
        0.0000917479  -0.0006425377   0.0004086984  -0.0000818220  -0.0023911237
       -0.0006084016  -0.0000130294   0.0005487495   0.0022012143   0.0000956479
       -0.0005364321  -0.0012037233  -0.0000246934   0.0012526672   0.0001459967
        0.0000322027  -0.0000318846  -0.0024040119  -0.0002907820   0.0030799870
        0.0029501466   0.0000440025  -0.0018683812  -0.0042797538   0.0011110478
        0.0018097797  -0.0011335929  -0.0014928137  -0.0006263317  -0.0004379711
        0.0003746117   0.0000722349  -0.0016994801  -0.0016572884  -0.0007356629
        0.0007300117  -0.0003104129   0.0001482929  -0.0000855691   0.0000210137
       -0.0001453510   0.0000887690   0.0000641492  -0.0003304187  -0.0002434833
       -0.0002593656  -0.0032386469   0.0122396868  -0.0032812554  -0.0012369132
       -0.0024237555  -0.0029603669  -0.0002439530   0.0033800180   0.0049562181
       -0.0095506039  -0.0030402903   0.0000091800   0.0079377138   0.0846932460
       -0.0587310031  -0.0000371467  -0.0000021194  -0.0000653695  -0.0000178748
       -0.0000527000  -0.0000298527   0.0000371961   0.0000350446  -0.0000672926
        0.0000642152   0.0000268234   0.0000309812   0.0000161720   0.0000166191
       -0.0000335125   0.0000145900   0.0000306940   0.0000029861   0.0000339167
        0.0000684110  -0.0000056038  -0.0000119093   0.0000356638   0.0000284140
       -0.0001417366  -0.0004232139  -0.0000815421  -0.0000182025  -0.0000119973
        0.0000517187   0.0000018466  -0.0000165784   0.0000425952   0.0000132807
       -0.0000182727   0.0000754120  -0.0000574120  -0.0000323482   0.0001264883
       -0.0004486687   0.0023344418   0.0041047923  -0.0000761671  -0.0001812305
        0.0000207732
        0.0184895955   0.0144643429  -0.0009304587  -0.0680400892  -0.0247454441
       -0.0060054445  -0.1408720708   0.0779163192  -0.0491290288   0.5920854570
        0.0032308773   0.0772900662  -0.2228002602  -0.0785029145  -0.0128795950
       -0.0723960409   0.0125614209  -0.0099892260   0.0162768005  -0.0146311970
       -0.0004832802  -0.0064394448   0.0022901149   0.0008039588  -0.0092465092
        0.0006799274   0.0004517781   0.0170678437   0.0012364180  -0.0011498391
       -0.0033583600  -0.0204448097   0.0002576745  -0.0068907118   0.0150194169
        0.0001656712   0.0049387103  -0.0044123254  -0.0004475638   0.0221523464
        0.0055864624   0.0005178822  -0.0053294668  -0.0205385922  -0.0011045535
        0.0050664657   0.0111611755   0.0002900200  -0.0123773959  -0.0016246833
       -0.0002097950   0.0010471436   0.0224760019   0.0015677798  -0.0287636050
       -0.0265319746  -0.0011698311   0.0223454691   0.0367999282  -0.0019657164
       -0.0252148575  -0.0125849994   0.0031816085   0.0032553086  -0.0038102250
        0.0009835300  -0.0040256111   0.0025075960   0.0019528997   0.0010953010
       -0.0033523870   0.0015239913  -0.0014062832   0.0021555796  -0.0007408629
        0.0017846015  -0.0012437302  -0.0010178813   0.0001233240   0.0036285656
       -0.0025986961  -0.0612016166   0.0097579120   0.0031603990  -0.0338777013
       -0.0251231981   0.0021550561   0.0008322906   0.0005161838   0.0002314058
       -0.0042636747  -0.0025648154  -0.0005001057   0.0024353027   0.0011286507
        0.0030314695   0.0002787081  -0.0002095678   0.0000372336   0.0001148487
        0.0002115333   0.0001215713  -0.0001704055  -0.0002420882   0.0001319611
       -0.0004221811  -0.0000967003   0.0001099948  -0.0000985663  -0.0001186099
        0.0000921906  -0.0000575659  -0.0000637227   0.0000432663  -0.0001658975
       -0.0002093475   0.0001102146   0.0002464490   0.0001193601   0.0002620999
        0.0000575129  -0.0002789938   0.0001766273   0.0000969302   0.0000821196
        0.0001448267   0.0000289584  -0.0000541029   0.0000548045  -0.0000167921
        0.0000409644  -0.0000482678   0.0001487760   0.0000978250   0.0000674410
        0.0019943153   0.0211845879  -0.0062991787  -0.0045273512  -0.0034688545
       -0.0022480975
        0.0140144361  -0.0073361059   0.0013678904   0.0072711985   0.0103960519
       -0.0027889227   0.0829978526  -0.1387209763   0.0418379815   0.0032308773
        0.5217562126  -0.1067092321  -0.0496833348  -0.0928269164   0.0025537206
        0.0040160695   0.0147860555  -0.0026933420   0.0120898146  -0.0115442895
        0.0005016901  -0.0010500527   0.0018481241   0.0000103613  -0.0037523410
        0.0003589085   0.0001711555   0.0071235928   0.0007684508  -0.0004400216
       -0.0013802535  -0.0086968713   0.0001051983  -0.0030969867   0.0065204161
        0.0001383254   0.0025165312  -0.0029215306  -0.0003010918   0.0090313419
        0.0027042883   0.0002595473  -0.0024641205  -0.0089783800  -0.0004763251
        0.0017680260   0.0050690652   0.0001605206  -0.0047846158  -0.0007623837
       -0.0001263372   0.0003229267   0.0095241609   0.0006639739  -0.0134471372
       -0.0115776689  -0.0004071217   0.0097536325   0.0109134296  -0.0007318625
       -0.0366398826  -0.0174596276  -0.0003401971   0.0003386087   0.0000904427
        0.0001145134  -0.0016335913  -0.0003227589   0.0005541216   0.0000450329
       -0.0005392529   0.0001980530  -0.0007114131   0.0005021198   0.0004384251
        0.0009923546  -0.0004253476  -0.0007491337   0.0001818926   0.0012757561
       -0.0006146977   0.0011620888  -0.2252033418   0.0479823928  -0.0538068519
       -0.0249575931  -0.0021018310   0.0004778272  -0.0001764077   0.0002549661
       -0.0038383308   0.0008781195   0.0028461918   0.0207090270  -0.0174372829
        0.0099395378   0.0000896645   0.0000755823   0.0000123236   0.0000531380
        0.0000950643   0.0000483856  -0.0000759268  -0.0001034992   0.0000400879
       -0.0001196347  -0.0000488819   0.0000568273  -0.0001002789  -0.0000807984
        0.0000215556  -0.0000404663  -0.0000319740   0.0000234622  -0.0000885116
       -0.0000901805   0.0000429905   0.0000984149   0.0001785639   0.0001673785
       -0.0001513818  -0.0004420910  -0.0002961209  -0.0000229690   0.0000024592
       -0.0000312720   0.0000317294  -0.0000222389   0.0000094442  -0.0000611181
       -0.0000195041  -0.0000472508   0.0000549131   0.0000953500  -0.0000958072
        0.0010082332  -0.0181932954   0.0059714812  -0.0024300254   0.0010805771
        0.0024580636
        0.0010459484   0.0018700146  -0.0072794014  -0.0142004882  -0.0060707446
        0.0015614694  -0.0415203053   0.0409824470  -0.0680825844   0.0772900662
       -0.1067092321   0.1541545781  -0.0187182282  -0.0011089313  -0.0385869066
       -0.0032148162  -0.0006190963  -0.0001486257  -0.0009128257  -0.0002414240
        0.0030013685   0.0000561192  -0.0003362649   0.0004464974  -0.0003942127
        0.0002727670  -0.0000214202   0.0006174141  -0.0000076957   0.0000279589
       -0.0001048121  -0.0005139911  -0.0000398880  -0.0000204125   0.0002588375
       -0.0000230814  -0.0001250081   0.0000741778  -0.0002766577   0.0010748859
       -0.0000583064  -0.0001310255  -0.0001599633  -0.0005614855   0.0001752194
        0.0004635387   0.0002060477  -0.0000311522  -0.0007902371  -0.0001257355
        0.0001920469   0.0001961182   0.0009971565   0.0000747667  -0.0012235270
       -0.0011080217  -0.0007878397   0.0020203724   0.0021452058   0.0008554538
        0.0018105331   0.0013668820   0.0012798408  -0.0002937899  -0.0003043973
       -0.0002953079   0.0000830490   0.0000882621  -0.0000335710  -0.0000193917
       -0.0000774905   0.0000404260   0.0000603900  -0.0000036101  -0.0001287060
       -0.0000832837   0.0000747518   0.0000520678   0.0000333457  -0.0000133693
        0.0000096230  -0.0016668002   0.0471225811  -0.0603455155   0.0081272675
        0.0042790475   0.0026692278   0.0001534445  -0.0001552303  -0.0010208907
       -0.0013092154   0.0020480477   0.0081330716  -0.0070159622   0.0060609932
       -0.0023141910   0.0000309029  -0.0000110850  -0.0000273733   0.0000139759
        0.0000132470  -0.0000063368  -0.0000177841  -0.0000142325  -0.0000205372
       -0.0000174820  -0.0000117238   0.0001571823  -0.0000049164  -0.0000042855
        0.0000480918  -0.0000124281  -0.0000036140  -0.0000697962  -0.0000145172
       -0.0000098393   0.0000041892   0.0000187344   0.0000307694  -0.0001012688
       -0.0000188889  -0.0003627717  -0.0000348010   0.0000205870  -0.0000024213
        0.0000051227   0.0000067428  -0.0000058939   0.0000134848   0.0000071512
        0.0000051315   0.0000073177   0.0000081173  -0.0000112249   0.0000260866
       -0.0000108365   0.0088232745  -0.0013093644  -0.0012685719   0.0017324770
        0.0081811512
       -0.0120352325  -0.0058828511   0.0003365536   0.0121727652   0.0204595175
       -0.0037011144  -0.0732617300   0.0115430272  -0.0097248859  -0.2228002602
       -0.0496833348  -0.0187182282   0.6642887173   0.0530353233   0.0238225508
       -0.1265398964   0.0769556119   0.0009159556  -0.1363506457   0.0103495038
       -0.0012207582   0.0130779442  -0.0135179560   0.0004828485   0.0088507129
        0.0048990345  -0.0008549213  -0.0192325675  -0.0023168515   0.0012436990
        0.0038646212   0.0275801205  -0.0003288242   0.0108833403  -0.0221034614
       -0.0004637979  -0.0117877341   0.0073636228   0.0015065315  -0.0218946592
       -0.0120849676  -0.0010328129   0.0062716988   0.0263768819   0.0012629386
       -0.0020783760  -0.0163035458  -0.0007514985   0.0086477299   0.0019926203
        0.0002139994   0.0001043839  -0.0224676776  -0.0013115471   0.0214261574
        0.0290013764   0.0023206977  -0.0557228818  -0.0612421318   0.0016956029
       -0.0701820041  -0.0227271318  -0.0002087789   0.0058804064   0.0145533620
       -0.0017074837   0.0029107630  -0.0004545297  -0.0026568548  -0.0014168909
        0.0026765179  -0.0014337855   0.0018483977  -0.0020287451  -0.0000720219
       -0.0030056141   0.0019884864   0.0008704420  -0.0017195563  -0.0007889366
        0.0027819981  -0.0256100923  -0.0585649890   0.0060235120   0.0221510625
       -0.0007453033   0.0026245150   0.0001115849   0.0001420866  -0.0000476089
       -0.0006951969  -0.0005508625  -0.0009419250   0.0009834740  -0.0012789741
       -0.0003679232  -0.0004588622   0.0007253476  -0.0000030769  -0.0000060215
       -0.0002478970  -0.0000948045   0.0002391192   0.0002674986  -0.0001261134
        0.0005281605   0.0001383326  -0.0002074677   0.0000958576   0.0000828556
       -0.0001144350   0.0001387626   0.0000732536   0.0000441737   0.0002150258
        0.0002073312  -0.0000970490  -0.0003296715  -0.0002413398  -0.0003200507
        0.0004559552   0.0003465611  -0.0000175552  -0.0001922377   0.0000878034
        0.0000030522  -0.0000164662   0.0001311167   0.0000050187  -0.0001454220
        0.0002124426   0.0000005904  -0.0000887365  -0.0001956215   0.0002315299
        0.0003593725   0.0018266369  -0.0002433605   0.0000647427   0.0004108352
        0.0003824739
       -0.0015030078   0.0010501002  -0.0002615279   0.0029676365  -0.0012572486
        0.0030468770   0.0097504983   0.0099613968  -0.0002561159  -0.0785029145