 Entering Gaussian System
 *********************************************
 Gaussian 98:
 frequency output generated by the xtb code
 *********************************************
                         Standard orientation:
 --------------------------------------------------------------------
  Center     Atomic     Atomic              Coordinates (Angstroms)
  Number     Number      Type              X           Y           Z
 --------------------------------------------------------------------
    1          6             0       -5.063987   -2.660522   -0.116928
    2          6             0       -4.865482   -1.331321   -0.488774
    3          6             0       -3.618765   -0.761760   -0.450435
    4          6             0       -2.492197   -1.518446   -0.020799
    5          6             0       -1.178031   -1.043695    0.064402
    6          7             0       -0.120643   -1.887250    0.141926
    7          6             0        0.966682   -1.157632    0.053275
    8          6             0        2.318565   -1.612507    0.013447
    9          6             0        2.606604   -2.977254    0.010580
   10          6             0        3.914316   -3.415283   -0.072491
   11          6             0        4.933242   -2.480570   -0.163516
   12          6             0        4.655961   -1.123595   -0.154322
   13          6             0        3.346426   -0.643524   -0.054263
   14          6             0        3.023653    0.775546    0.002795
   15          6             0        4.019035    1.744856    0.052395
   16          6             0        3.737084    3.096573    0.149680
   17          6             0        2.409974    3.526789    0.227425
   18          6             0        1.393414    2.615606    0.175278
   19          6             0        1.650359    1.223294    0.040387
   20          6             0        0.651741    0.253470   -0.017533
   21          7             0       -0.724103    0.305537   -0.010078
   22          6             0       -1.548592    1.434933    0.001042
   23          6             0       -2.438835    1.634852    1.057574
   24          6             0       -3.266531    2.740291    1.058686
   25          6             0       -3.219508    3.652373    0.015412
   26          6             0       -2.337701    3.453611   -1.036943
   27          6             0       -1.504915    2.352219   -1.050729
   28          6             0       -2.712043   -2.890167    0.308837
   29          6             0       -3.965716   -3.434150    0.267977
   30          1             0       -6.052793   -3.091469   -0.143981
   31          1             0       -5.706915   -0.741546   -0.823853
   32          1             0       -3.490479    0.250921   -0.794406
   33          1             0        1.780727   -3.668821    0.067431
   34          1             0        4.139271   -4.470981   -0.073608
   35          1             0        5.959809   -2.808536   -0.241457
   36          1             0        5.485530   -0.439172   -0.230954
   37          1             0        5.056314    1.451016    0.027751
   38          1             0        4.542603    3.814009    0.183190
   39          1             0        2.189433    4.578487    0.335256
   40          1             0        0.373864    2.952169    0.262293
   41          1             0       -2.471318    0.917978    1.864411
   42          1             0       -3.950485    2.893410    1.880009
   43          1             0       -3.869320    4.514072    0.020006
   44          1             0       -2.304614    4.157428   -1.855332
   45          1             0       -0.821250    2.185801   -1.870576
   46          1             0       -1.855581   -3.472109    0.608070
   47          1             0       -4.112512   -4.470281    0.536734
 --------------------------------------------------------------------
     1 basis functions        1 primitive gaussians
     1 alpha electrons        1 beta electrons
 
 Harmonic frequencies (cm**-1), IR intensities (km*mol⁻¹),
 Raman scattering activities (A**4/amu), Raman depolarization ratios,
 reduced masses (AMU), force constants (mDyne/A) and normal coordinates:
                      1                      2                      3
                        a                      a                      a 
 Frequencies --    19.0437                34.1887                37.3787
 Red. masses --    10.7965                10.1147                10.8673
 Frc consts  --     0.0000                 0.0000                 0.0000
 IR Inten    --     0.5892                 2.0478                 2.0396
 Raman Activ --     0.0000                 0.0000                 0.0000
 Depolar     --     0.0000                 0.0000                 0.0000
 Atom AN      X      Y      Z        X      Y      Z        X      Y      Z
   1   6    -0.00  -0.04   0.18     0.02  -0.17  -0.04    -0.06   0.11   0.30
   2   6    -0.02  -0.05   0.13    -0.08  -0.07   0.25    -0.05   0.08   0.20
   3   6    -0.02  -0.04   0.08    -0.11  -0.01   0.28    -0.02   0.03  -0.00
   4   6    -0.01  -0.02   0.08    -0.03  -0.04   0.01     0.00   0.01  -0.10
   5   6    -0.01  -0.01   0.04    -0.04  -0.02  -0.01     0.02  -0.01  -0.22
   6   7    -0.00  -0.01   0.02    -0.03  -0.02  -0.08     0.02  -0.01  -0.25
   7   6    -0.01  -0.01   0.01    -0.03  -0.01  -0.04     0.02  -0.01  -0.19
   8   6    -0.00   0.00  -0.06    -0.03   0.00  -0.02     0.02  -0.01  -0.10
   9   6     0.00   0.00  -0.16    -0.02   0.00  -0.03     0.03  -0.01  -0.13
  10   6     0.00   0.02  -0.25    -0.01   0.01   0.03     0.04   0.00   0.01
  11   6    -0.01   0.03  -0.26    -0.01   0.02   0.10     0.05   0.01   0.18
  12   6    -0.02   0.03  -0.15    -0.02   0.02   0.11     0.04   0.01   0.21
  13   6    -0.01   0.01  -0.04    -0.03   0.01   0.03     0.03  -0.00   0.07
  14   6    -0.02   0.01   0.08    -0.04   0.01   0.02     0.02  -0.00   0.08
  15   6    -0.02   0.00   0.20    -0.05   0.02  -0.02     0.01  -0.01   0.26
  16   6    -0.03  -0.01   0.31    -0.06   0.02  -0.04    -0.00  -0.01   0.24
  17   6    -0.03  -0.02   0.29    -0.07   0.01  -0.02    -0.01  -0.01   0.01
  18   6    -0.03  -0.01   0.18    -0.06  -0.01   0.01    -0.01  -0.00  -0.16
  19   6    -0.02  -0.00   0.09    -0.05  -0.00   0.02     0.01  -0.01  -0.10
  20   6    -0.01  -0.01   0.03    -0.04  -0.01   0.02     0.02  -0.01  -0.18
  21   7    -0.01  -0.01   0.05    -0.04  -0.02   0.05     0.02  -0.01  -0.25
  22   6     0.01   0.00  -0.07     0.01   0.02   0.01     0.01  -0.02  -0.12
  23   6    -0.07   0.08  -0.14     0.16   0.21   0.09     0.12  -0.05  -0.02
  24   6    -0.04   0.10  -0.26     0.25   0.29   0.08     0.09  -0.08   0.08
  25   6     0.07   0.05  -0.30     0.21   0.17  -0.03    -0.06  -0.07   0.08
  26   6     0.14  -0.02  -0.22     0.05  -0.02  -0.12    -0.17  -0.04  -0.02
  27   6     0.11  -0.05  -0.11    -0.04  -0.10  -0.10    -0.14  -0.01  -0.12
  28   6     0.01  -0.01   0.12     0.06  -0.13  -0.26    -0.00   0.03  -0.03
  29   6     0.01  -0.02   0.17     0.09  -0.19  -0.29    -0.03   0.08   0.18
  30   1    -0.00  -0.01   0.06     0.01  -0.06  -0.02    -0.02   0.05   0.14
  31   1    -0.01  -0.02   0.04    -0.04  -0.01   0.13    -0.02   0.03   0.08
  32   1    -0.01  -0.02   0.01    -0.06   0.02   0.15    -0.01   0.00  -0.02
  33   1     0.00  -0.00  -0.05    -0.00  -0.00  -0.02     0.01  -0.00  -0.08
  34   1     0.00   0.01  -0.10    -0.00   0.00   0.01     0.01   0.00  -0.01
  35   1    -0.00   0.01  -0.10    -0.00   0.01   0.05     0.02   0.00   0.09
  36   1    -0.01   0.01  -0.05    -0.01   0.01   0.05     0.01   0.00   0.10
  37   1    -0.01   0.00   0.07    -0.01   0.01  -0.01     0.00  -0.00   0.12
  38   1    -0.01  -0.00   0.12    -0.02   0.01  -0.02    -0.00  -0.00   0.11
  39   1    -0.01  -0.01   0.11    -0.02   0.00  -0.01    -0.01  -0.00  -0.01
  40   1    -0.01  -0.01   0.05    -0.02  -0.00   0.00    -0.01   0.00  -0.10
  41   1    -0.04   0.03  -0.03     0.06   0.09   0.05     0.07  -0.02  -0.01
  42   1    -0.03   0.05  -0.09     0.11   0.13   0.04     0.05  -0.03   0.05
  43   1     0.03   0.02  -0.11     0.08   0.07  -0.01    -0.02  -0.03   0.05
  44   1     0.07  -0.02  -0.07     0.00  -0.03  -0.06    -0.08  -0.01  -0.01
  45   1     0.05  -0.03  -0.01    -0.04  -0.07  -0.04    -0.07   0.00  -0.06
  46   1     0.01   0.00   0.03     0.03  -0.04  -0.13     0.00   0.00  -0.03
  47   1     0.01  -0.00   0.06     0.05  -0.07  -0.15    -0.01   0.03   0.07
                      4                      5                      6
                        a                      a                      a 
 Frequencies --    51.3960                66.8600                67.4981
 Red. masses --    10.1463                10.5788                10.5562
 Frc consts  --     0.0000                 0.0000                 0.0000
 IR Inten    --     2.6966                 0.7858                 5.1825
 Raman Activ --     0.0000                 0.0000                 0.0000
 Depolar     --     0.0000                 0.0000                 0.0000
 Atom AN      X      Y      Z        X      Y      Z        X      Y      Z
   1   6     0.03   0.00  -0.20    -0.14   0.30  -0.01     0.03   0.05   0.03
   2   6     0.05   0.02  -0.13     0.03   0.27  -0.06    -0.01   0.10   0.20
   3   6     0.03   0.04   0.01     0.10   0.10  -0.07    -0.02   0.12   0.17
   4   6     0.01   0.04   0.07     0.01  -0.03  -0.03     0.02   0.09   0.01
   5   6     0.01   0.03   0.13     0.03  -0.11   0.02     0.02   0.08   0.04
   6   7     0.00   0.03   0.24     0.04  -0.12  -0.02     0.01   0.06  -0.05
   7   6     0.01   0.02   0.16     0.04  -0.09   0.03     0.02   0.04  -0.00
   8   6    -0.00   0.00   0.12     0.06  -0.02   0.00     0.01   0.00  -0.04
   9   6    -0.01  -0.00   0.10     0.14  -0.01  -0.03    -0.05  -0.01  -0.14
  10   6    -0.02  -0.01  -0.07     0.16   0.06  -0.04    -0.06  -0.05  -0.11
  11   6    -0.03  -0.02  -0.25     0.12   0.11  -0.02    -0.02  -0.08   0.05
  12   6    -0.02  -0.01  -0.20     0.05   0.09   0.01     0.03  -0.07   0.13
  13   6     0.00  -0.01   0.01     0.02   0.03   0.00     0.04  -0.03   0.05
  14   6     0.02  -0.01   0.07    -0.02   0.02  -0.00     0.07  -0.02   0.04
  15   6     0.03  -0.04   0.28    -0.07   0.08  -0.14     0.10  -0.04  -0.06
  16   6     0.05  -0.03   0.22    -0.14   0.06  -0.12     0.13  -0.03  -0.09
  17   6     0.04   0.01  -0.12    -0.16  -0.01   0.07     0.14   0.00  -0.03
  18   6     0.03   0.03  -0.26    -0.11  -0.07   0.17     0.12   0.02   0.06
  19   6     0.02   0.01  -0.08    -0.03  -0.05   0.11     0.09   0.02   0.09
  20   6     0.02   0.01   0.01     0.01  -0.09   0.10     0.05   0.05   0.11
  21   7     0.02   0.02   0.00     0.03  -0.12   0.11     0.06   0.09   0.20
  22   6     0.00   0.01   0.00     0.03  -0.10   0.06     0.02   0.06   0.11
  23   6     0.16   0.10   0.12     0.12   0.02   0.11    -0.06   0.03   0.05
  24   6     0.12   0.07   0.12     0.12   0.02   0.04    -0.25  -0.11  -0.11
  25   6    -0.10  -0.06  -0.00     0.04  -0.11  -0.08    -0.35  -0.22  -0.21
  26   6    -0.26  -0.15  -0.12    -0.04  -0.23  -0.12    -0.22  -0.15  -0.12
  27   6    -0.20  -0.11  -0.11    -0.03  -0.22  -0.05    -0.03  -0.01   0.05
  28   6    -0.01   0.03   0.05    -0.16   0.00  -0.03     0.07   0.03  -0.18
  29   6     0.01   0.01  -0.09    -0.23   0.17  -0.01     0.08   0.01  -0.17
  30   1     0.01  -0.00  -0.09    -0.06   0.12   0.00     0.01   0.01   0.01
  31   1     0.02   0.01  -0.05     0.03   0.11  -0.02    -0.01   0.04   0.10
  32   1     0.01   0.02   0.02     0.07   0.02  -0.03    -0.02   0.04   0.07
  33   1    -0.00   0.00   0.06     0.05  -0.02  -0.01    -0.02   0.00  -0.07
  34   1    -0.01  -0.00  -0.03     0.06   0.02  -0.02    -0.03  -0.02  -0.06
  35   1    -0.01  -0.01  -0.12     0.04   0.05  -0.00    -0.01  -0.03   0.03
  36   1    -0.01  -0.00  -0.11     0.00   0.04   0.01     0.02  -0.03   0.07
  37   1     0.01  -0.02   0.15    -0.02   0.04  -0.08     0.03  -0.02  -0.04
  38   1     0.02  -0.02   0.12    -0.05   0.03  -0.07     0.04  -0.01  -0.05
  39   1     0.01   0.01  -0.07    -0.06  -0.01   0.03     0.05   0.00  -0.02
  40   1     0.01   0.02  -0.15    -0.03  -0.04   0.09     0.04   0.01   0.03
  41   1     0.09   0.06   0.06     0.05   0.03   0.06    -0.00   0.03   0.03
  42   1     0.07   0.04   0.06     0.06   0.04   0.02    -0.10  -0.04  -0.05
  43   1    -0.04  -0.03  -0.00     0.01  -0.03  -0.04    -0.15  -0.10  -0.10
  44   1    -0.12  -0.07  -0.06    -0.03  -0.09  -0.06    -0.08  -0.07  -0.05
  45   1    -0.09  -0.05  -0.06    -0.02  -0.09  -0.02     0.01   0.01   0.03
  46   1    -0.01   0.01   0.03    -0.07  -0.03  -0.01     0.03   0.00  -0.09
  47   1    -0.00   0.00  -0.04    -0.11   0.06   0.00     0.03  -0.01  -0.09
                      7                      8                      9
                        a                      a                      a 
 Frequencies --    81.1978               100.4546               127.8824
 Red. masses --     9.9485                10.2256                10.7119
 Frc consts  --     0.0000                 0.0000                 0.0000
 IR Inten    --     3.5506                 0.8399                 1.1964
 Raman Activ --     0.0000                 0.0000                 0.0000
 Depolar     --     0.0000                 0.0000                 0.0000
 Atom AN      X      Y      Z        X      Y      Z        X      Y      Z
   1   6     0.05  -0.08  -0.15    -0.08   0.11   0.13     0.05  -0.06   0.18
   2   6     0.06  -0.11  -0.23    -0.04   0.10   0.16    -0.01  -0.11  -0.05
   3   6     0.03  -0.06  -0.07     0.01   0.01   0.00    -0.02  -0.07  -0.25
   4   6    -0.01  -0.00   0.12     0.01  -0.06  -0.10     0.02  -0.00  -0.24
   5   6    -0.01   0.01   0.09     0.00  -0.07   0.01     0.00   0.04  -0.20
   6   7    -0.01   0.00   0.02     0.02  -0.05   0.10    -0.02   0.03  -0.05
   7   6    -0.01   0.00  -0.03     0.01  -0.02   0.18    -0.00   0.03   0.18
   8   6    -0.02  -0.00  -0.11     0.02  -0.00   0.16    -0.02   0.01   0.23
   9   6    -0.05  -0.01  -0.41     0.04   0.00  -0.01    -0.07  -0.00   0.11
  10   6    -0.05  -0.02  -0.34     0.04   0.04  -0.19    -0.10  -0.04  -0.14
  11   6    -0.01  -0.02   0.12     0.02   0.06  -0.16    -0.09  -0.06  -0.19
  12   6     0.01  -0.01   0.36     0.00   0.05   0.04    -0.03  -0.05   0.01
  13   6     0.00  -0.00   0.15     0.00   0.02   0.18    -0.00  -0.01   0.19
  14   6    -0.00  -0.00   0.13    -0.02   0.01   0.18     0.02  -0.01   0.18
  15   6    -0.01   0.01   0.03    -0.02   0.01   0.22     0.02   0.01  -0.09
  16   6    -0.02   0.02  -0.12    -0.03   0.03  -0.08     0.02   0.02  -0.21
  17   6    -0.02   0.03  -0.17    -0.04   0.04  -0.38     0.03   0.02   0.01
  18   6    -0.01   0.02  -0.07    -0.03   0.03  -0.26     0.02   0.01   0.25
  19   6    -0.01   0.00   0.05    -0.02  -0.00   0.03     0.02   0.01   0.26
  20   6    -0.01   0.01   0.05    -0.01  -0.03   0.12     0.01   0.03   0.18
  21   7    -0.02   0.00   0.08    -0.01  -0.06   0.04     0.01   0.04  -0.15
  22   6    -0.01   0.01   0.05    -0.02  -0.07   0.01    -0.00   0.04  -0.11
  23   6     0.01   0.07   0.06    -0.14  -0.12  -0.08     0.11   0.04  -0.02
  24   6     0.05   0.10   0.04    -0.09  -0.08  -0.08     0.12   0.04   0.08
  25   6     0.06   0.06   0.01     0.11   0.03   0.02    -0.01   0.02   0.05
  26   6     0.02  -0.01  -0.01     0.21   0.07   0.10    -0.14   0.01  -0.05
  27   6    -0.02  -0.04   0.01     0.13   0.01   0.08    -0.12   0.02  -0.12
  28   6    -0.02   0.04   0.26    -0.03  -0.09  -0.22     0.10   0.01  -0.11
  29   6     0.00  -0.00   0.14    -0.07  -0.00  -0.11     0.10  -0.00   0.13
  30   1     0.02  -0.04  -0.08    -0.03   0.05   0.08     0.01  -0.02   0.11
  31   1     0.03  -0.05  -0.12    -0.01   0.05   0.08    -0.02  -0.05  -0.01
  32   1     0.01  -0.02  -0.03     0.01  -0.00  -0.00    -0.02  -0.03  -0.10
  33   1    -0.02  -0.00  -0.20     0.02  -0.01  -0.01    -0.03   0.01   0.04
  34   1    -0.02  -0.01  -0.17     0.02   0.01  -0.10    -0.04  -0.01  -0.08
  35   1     0.00  -0.00   0.08     0.01   0.02  -0.09    -0.03  -0.03  -0.11
  36   1     0.01  -0.00   0.21    -0.00   0.02   0.01    -0.00  -0.02  -0.00
  37   1    -0.00   0.01   0.01    -0.01   0.00   0.13     0.00   0.00  -0.07
  38   1    -0.00   0.01  -0.06    -0.01   0.01  -0.03     0.00   0.01  -0.13
  39   1    -0.01   0.01  -0.08    -0.02   0.02  -0.19     0.01   0.01  -0.01
  40   1    -0.00   0.01  -0.03    -0.01   0.02  -0.12     0.01  -0.00   0.11
  41   1     0.00   0.03   0.02    -0.08  -0.05  -0.04     0.06   0.01  -0.00
  42   1     0.02   0.04   0.02    -0.05  -0.04  -0.05     0.06   0.02   0.05
  43   1     0.03   0.03  -0.00     0.05   0.02   0.01    -0.00   0.01   0.03
  44   1     0.00  -0.01  -0.01     0.10   0.04   0.05    -0.07  -0.00  -0.02
  45   1    -0.01  -0.03  -0.00     0.06   0.01   0.04    -0.05   0.01  -0.05
  46   1    -0.01   0.03   0.13    -0.01  -0.05  -0.11     0.04   0.02  -0.04
  47   1    -0.00   0.01   0.07    -0.03  -0.01  -0.06     0.04   0.01   0.08
                     10                     11                     12
                        a                      a                      a 
 Frequencies --   156.3351               179.4774               212.0645
 Red. masses --    11.1632                11.1248                10.8558
 Frc consts  --     0.0000                 0.0000                 0.0000
 IR Inten    --     1.9988                 0.7119                 0.1692
 Raman Activ --     0.0000                 0.0000                 0.0000
 Depolar     --     0.0000                 0.0000                 0.0000
 Atom AN      X      Y      Z        X      Y      Z        X      Y      Z
   1   6    -0.00  -0.00  -0.16    -0.03  -0.12  -0.19     0.20   0.07  -0.02
   2   6    -0.03   0.08   0.12    -0.11  -0.06  -0.02     0.16   0.09   0.01
   3   6    -0.05   0.11   0.27    -0.17   0.07   0.18     0.14   0.11   0.04
   4   6    -0.03   0.08   0.19    -0.11   0.11   0.10     0.10   0.07   0.03
   5   6    -0.01   0.04   0.08    -0.04   0.03  -0.20     0.09   0.02  -0.03
   6   7    -0.03   0.01   0.30    -0.08  -0.04  -0.46     0.05  -0.01  -0.13
   7   6    -0.00  -0.04   0.12    -0.02  -0.08  -0.14     0.03   0.01  -0.09
   8   6     0.01  -0.03   0.11     0.01  -0.06   0.03    -0.02   0.02  -0.03
   9   6     0.04  -0.03  -0.02     0.13  -0.04   0.12    -0.21  -0.02   0.04
  10   6     0.04  -0.01  -0.16     0.16   0.04   0.10    -0.26  -0.14   0.06
  11   6     0.03   0.01  -0.04     0.10   0.07  -0.13    -0.22  -0.19  -0.03
  12   6     0.02   0.00   0.12     0.01   0.05  -0.12    -0.06  -0.14  -0.05
  13   6     0.01  -0.02   0.10    -0.00  -0.03   0.08    -0.00   0.01  -0.01
  14   6     0.01  -0.01   0.03     0.01  -0.03   0.19    -0.01   0.03   0.03
  15   6    -0.03   0.03  -0.09     0.01  -0.03   0.17    -0.12   0.14   0.10
  16   6    -0.09   0.02  -0.08     0.00  -0.01  -0.11    -0.28   0.14  -0.00
  17   6    -0.09  -0.03   0.11    -0.00  -0.01  -0.21    -0.31   0.07  -0.08
  18   6    -0.06  -0.07   0.11     0.00  -0.03   0.07    -0.21  -0.04  -0.01
  19   6     0.01  -0.04  -0.01     0.01  -0.04   0.19    -0.02  -0.00   0.00
  20   6     0.03  -0.05  -0.13     0.03  -0.04   0.08     0.04  -0.01  -0.04
  21   7     0.05  -0.00  -0.36     0.03   0.01  -0.01     0.07  -0.00   0.03
  22   6     0.09   0.02  -0.26     0.07   0.05   0.04     0.10  -0.01   0.05
  23   6     0.13  -0.13  -0.19     0.07   0.03   0.03     0.10  -0.04   0.05
  24   6     0.05  -0.19  -0.04    -0.01  -0.03  -0.02     0.04  -0.09  -0.01
  25   6    -0.03  -0.08   0.06    -0.05  -0.05  -0.04     0.03  -0.12  -0.04
  26   6    -0.03   0.11   0.02     0.03   0.01   0.01     0.11  -0.05   0.01
  27   6     0.03   0.15  -0.15     0.09   0.06   0.05     0.15  -0.02   0.05
  28   6    -0.04   0.06   0.11    -0.08   0.14   0.22     0.17   0.07   0.04
  29   6    -0.00   0.00  -0.14    -0.03   0.02   0.06     0.18   0.06   0.01
  30   1     0.01  -0.02  -0.10     0.01  -0.07  -0.13     0.06   0.02  -0.01
  31   1    -0.01   0.03   0.05    -0.04  -0.03  -0.02     0.04   0.02   0.00
  32   1    -0.03   0.04   0.11    -0.07   0.04   0.09     0.05   0.03   0.01
  33   1     0.01  -0.01  -0.01     0.05  -0.03   0.05    -0.09   0.03   0.02
  34   1     0.01  -0.00  -0.09     0.06   0.01   0.05    -0.09  -0.04   0.03
  35   1     0.01   0.01  -0.02     0.03   0.04  -0.08    -0.07  -0.08  -0.02
  36   1     0.00   0.01   0.06    -0.01   0.03  -0.08     0.00  -0.06  -0.03
  37   1    -0.00   0.03  -0.06     0.00  -0.01   0.08    -0.03   0.07   0.06
  38   1    -0.03   0.02  -0.05    -0.00  -0.00  -0.07    -0.10   0.06  -0.00
  39   1    -0.04  -0.02   0.06    -0.00   0.00  -0.13    -0.11   0.02  -0.05
  40   1    -0.02  -0.04   0.06     0.00  -0.01   0.03    -0.07  -0.05   0.01
  41   1     0.06  -0.06  -0.08     0.03   0.01   0.01     0.04  -0.01   0.02
  42   1     0.02  -0.10   0.00    -0.01  -0.02  -0.01    -0.00  -0.03  -0.02
  43   1    -0.03  -0.04   0.05    -0.04  -0.03  -0.03    -0.01  -0.05  -0.03
  44   1    -0.03   0.06   0.03     0.01   0.00   0.00     0.04  -0.01   0.01
  45   1     0.01   0.09  -0.05     0.04   0.03   0.02     0.05  -0.01   0.02
  46   1    -0.01   0.02   0.04    -0.02   0.06   0.10     0.05   0.03   0.01
  47   1     0.00  -0.01  -0.09     0.01   0.01   0.03     0.05   0.02  -0.00
                     13                     14                     15
                        a                      a                      a 
 Frequencies --   217.6609               237.9249               249.7797
 Red. masses --    10.9997                10.7359                10.5570
 Frc consts  --     0.0000                 0.0000                 0.0000
 IR Inten    --     0.3823                 0.2306                 0.3772
 Raman Activ --     0.0000                 0.0000                 0.0000
 Depolar     --     0.0000                 0.0000                 0.0000
 Atom AN      X      Y      Z        X      Y      Z        X      Y      Z
   1   6     0.10  -0.02   0.13     0.14   0.10  -0.05     0.06  -0.07  -0.01
   2   6    -0.02  -0.05  -0.06     0.15   0.13   0.06    -0.14  -0.03   0.01
   3   6    -0.06   0.06  -0.19     0.16   0.07   0.09    -0.23   0.18  -0.04
   4   6    -0.02   0.15  -0.14     0.09   0.00   0.10    -0.10   0.31  -0.08
   5   6    -0.05   0.13   0.07     0.08   0.00   0.02    -0.04   0.12  -0.01
   6   7    -0.13   0.01   0.19     0.07  -0.01  -0.09    -0.09   0.03  -0.01
   7   6    -0.04  -0.13   0.05     0.05  -0.01  -0.06    -0.03  -0.02   0.07
   8   6    -0.00  -0.16  -0.02     0.06  -0.05  -0.05    -0.02  -0.01   0.06
   9   6     0.17  -0.13  -0.05     0.07  -0.05   0.00     0.01   0.00   0.02
  10   6     0.23  -0.01  -0.02     0.08  -0.07   0.06     0.02   0.02  -0.06
  11   6     0.17   0.05   0.03     0.09  -0.08  -0.03     0.01   0.04   0.00
  12   6     0.03   0.01   0.00     0.08  -0.08  -0.06    -0.02   0.03   0.05
  13   6    -0.03  -0.12  -0.03     0.08  -0.07  -0.00    -0.03   0.01   0.01
  14   6    -0.02  -0.12  -0.05     0.04  -0.08   0.08     0.02   0.02  -0.08
  15   6    -0.08  -0.06   0.02    -0.00  -0.04   0.06     0.02   0.02  -0.12
  16   6    -0.19  -0.09   0.02    -0.06  -0.05  -0.06     0.01   0.01   0.08
  17   6    -0.20  -0.13  -0.03    -0.07  -0.06  -0.05     0.01   0.00   0.08
  18   6    -0.14  -0.18  -0.06    -0.04  -0.09   0.09     0.01   0.02  -0.10
  19   6    -0.01  -0.14  -0.08     0.03  -0.08   0.11     0.03   0.02  -0.06
  20   6     0.02  -0.12  -0.02    -0.01  -0.00   0.03     0.04  -0.00   0.08
  21   7     0.03   0.09   0.07    -0.04   0.03   0.04     0.07   0.01   0.15
  22   6     0.07   0.15   0.08    -0.22  -0.04  -0.09    -0.05  -0.14   0.02
  23   6     0.06   0.18   0.06    -0.34  -0.02  -0.16    -0.15  -0.26  -0.04
  24   6    -0.05   0.11  -0.00    -0.15   0.13  -0.03     0.03  -0.14   0.01
  25   6    -0.15   0.06  -0.05     0.04   0.30   0.13     0.27  -0.05   0.09
  26   6    -0.04   0.11   0.03    -0.17   0.10  -0.00     0.09  -0.19  -0.03
  27   6     0.05   0.18   0.09    -0.36  -0.06  -0.12    -0.07  -0.30  -0.09
  28   6     0.13   0.13  -0.14     0.10   0.01   0.07     0.07   0.31  -0.02
  29   6     0.17   0.04   0.04     0.09   0.04  -0.06     0.17   0.10   0.01
  30   1     0.03  -0.02   0.09     0.04   0.03  -0.04     0.04  -0.06  -0.01
  31   1    -0.03  -0.05  -0.02     0.05   0.05   0.02    -0.07  -0.05   0.01
  32   1    -0.04   0.02  -0.07     0.06   0.01   0.01    -0.12   0.06  -0.02
  33   1     0.08  -0.07  -0.02     0.02  -0.02   0.00     0.01  -0.01   0.01
  34   1     0.09   0.00  -0.01     0.02  -0.02   0.04     0.01   0.01  -0.04
  35   1     0.06   0.04   0.03     0.02  -0.03  -0.01     0.00   0.02   0.00
  36   1    -0.02   0.03   0.01     0.02  -0.02  -0.03    -0.01   0.01   0.03
  37   1    -0.02   0.01   0.02     0.00  -0.00   0.02     0.01   0.01  -0.06
  38   1    -0.06  -0.01   0.02    -0.03  -0.00  -0.04     0.00   0.00   0.05
  39   1    -0.07  -0.04  -0.00    -0.02  -0.02  -0.04     0.00  -0.00   0.05
  40   1    -0.04  -0.07  -0.01    -0.02  -0.05   0.03    -0.00   0.00  -0.06
  41   1     0.02   0.07   0.03    -0.14  -0.02  -0.06    -0.07  -0.09  -0.03
  42   1    -0.02   0.02  -0.01    -0.03   0.04  -0.00     0.00  -0.02  -0.01
  43   1    -0.08  -0.01  -0.04     0.09   0.15   0.09     0.14   0.04   0.06
  44   1    -0.01   0.03   0.00    -0.03   0.03  -0.00     0.03  -0.06  -0.01
  45   1     0.02   0.07   0.03    -0.13  -0.03  -0.06    -0.04  -0.13  -0.03
  46   1     0.06   0.06  -0.06     0.02   0.00   0.03     0.05   0.13  -0.00
  47   1     0.08   0.01   0.03     0.01   0.01  -0.04     0.10   0.03   0.01
                     16                     17                     18
                        a                      a                      a 
 Frequencies --   255.8851               287.7227               307.2723
 Red. masses --    10.4245                10.9412                10.8787
 Frc consts  --     0.0000                 0.0000                 0.0000
 IR Inten    --     4.6027                 0.0578                 2.5589
 Raman Activ --     0.0000                 0.0000                 0.0000
 Depolar     --     0.0000                 0.0000                 0.0000
 Atom AN      X      Y      Z        X      Y      Z        X      Y      Z
   1   6     0.01   0.01   0.06    -0.24  -0.12   0.00    -0.05  -0.01   0.08
   2   6    -0.01  -0.00  -0.00    -0.20  -0.13  -0.03    -0.06  -0.04  -0.04
   3   6    -0.02   0.02  -0.07    -0.19  -0.10  -0.02    -0.06  -0.01  -0.09
   4   6    -0.01   0.05  -0.00    -0.07   0.01  -0.04    -0.04   0.06   0.03
   5   6    -0.03   0.04   0.13    -0.01   0.02   0.03    -0.03   0.06   0.16
   6   7    -0.04   0.03   0.23     0.05   0.04   0.07    -0.00   0.08   0.20
   7   6    -0.04   0.00   0.05     0.08   0.02   0.07    -0.02   0.03  -0.35
   8   6    -0.07  -0.01  -0.26     0.14   0.10  -0.05     0.01   0.05  -0.07
   9   6    -0.05  -0.01  -0.32     0.01   0.07  -0.07     0.01   0.05   0.16
  10   6     0.00   0.04   0.22    -0.04  -0.11   0.04    -0.01   0.03   0.01
  11   6    -0.02   0.07   0.22     0.07  -0.23   0.04     0.00  -0.00  -0.17
  12   6    -0.09   0.05  -0.29     0.21  -0.18  -0.10     0.05   0.00   0.11
  13   6    -0.09   0.01  -0.21     0.25   0.02  -0.08     0.05   0.01   0.10
  14   6    -0.05   0.00   0.12     0.27   0.05  -0.02     0.05   0.01   0.12
  15   6    -0.00  -0.05   0.22     0.11   0.24   0.04     0.05   0.00   0.23
  16   6     0.05  -0.02  -0.10    -0.10   0.21   0.04     0.03   0.03  -0.23
  17   6     0.06   0.04  -0.19    -0.16   0.06  -0.04     0.03  -0.02  -0.03
  18   6     0.02   0.05   0.21     0.00  -0.12  -0.01     0.04  -0.06   0.26
  19   6    -0.03   0.03   0.24     0.20  -0.07   0.02     0.03  -0.02  -0.10
  20   6    -0.00   0.01   0.12     0.11   0.00   0.10    -0.00   0.02  -0.53
  21   7     0.02  -0.00  -0.04     0.09   0.05   0.10    -0.02   0.02   0.00
  22   6     0.03  -0.02  -0.11     0.03   0.04  -0.02    -0.04  -0.04   0.10
  23   6     0.07  -0.11  -0.08    -0.01   0.02  -0.05    -0.08  -0.04   0.07
  24   6     0.09  -0.11   0.02    -0.02   0.01  -0.01     0.01   0.03   0.03
  25   6     0.07  -0.08   0.04    -0.01   0.06   0.03     0.06  -0.02  -0.02
  26   6     0.00  -0.04  -0.02    -0.05   0.04   0.00     0.02  -0.11  -0.03
  27   6     0.02  -0.03  -0.11    -0.04   0.04  -0.03     0.01  -0.10   0.06
  28   6     0.03   0.03  -0.06    -0.18   0.01  -0.06    -0.02   0.03  -0.07
  29   6     0.04   0.00  -0.03    -0.19  -0.03   0.01    -0.00  -0.00  -0.05
  30   1     0.00   0.00   0.04    -0.07  -0.04   0.01    -0.02  -0.00   0.06
  31   1    -0.01  -0.01  -0.00    -0.05  -0.03  -0.01    -0.02  -0.02  -0.02
  32   1    -0.01   0.00  -0.03    -0.08  -0.02   0.00    -0.02  -0.01  -0.05
  33   1    -0.01  -0.01  -0.14    -0.02   0.05  -0.03     0.00   0.02   0.08
  34   1     0.02   0.02   0.16    -0.05  -0.04   0.04    -0.01   0.01   0.00
  35   1     0.00   0.03   0.16     0.01  -0.10   0.04    -0.01  -0.01  -0.11
  36   1    -0.03   0.02  -0.14     0.08  -0.07  -0.04     0.02  -0.00   0.06
  37   1    -0.00  -0.03   0.10     0.05   0.11   0.02     0.02  -0.01   0.14
  38   1     0.02  -0.01  -0.07    -0.06   0.09   0.02     0.00   0.02  -0.15
  39   1     0.03   0.02  -0.13    -0.09   0.01  -0.02     0.00  -0.01  -0.01
  40   1     0.01   0.02   0.10    -0.02  -0.09  -0.01     0.01  -0.03   0.15
  41   1     0.04  -0.05  -0.03    -0.00   0.00  -0.02    -0.04  -0.01   0.02
  42   1     0.04  -0.04   0.01    -0.00  -0.01  -0.00     0.00   0.03   0.01
  43   1     0.03  -0.02   0.03     0.01   0.02   0.02     0.03   0.00  -0.01
  44   1    -0.02  -0.00   0.00    -0.02   0.01   0.00     0.00  -0.05  -0.02
  45   1     0.00   0.00  -0.03    -0.02   0.02  -0.02     0.01  -0.05   0.03
  46   1     0.02   0.01  -0.03    -0.06  -0.01  -0.02     0.00   0.01  -0.04
  47   1     0.02  -0.00  -0.02    -0.03  -0.01   0.02     0.01  -0.01  -0.03
                     19                     20                     21
                        a                      a                      a 
 Frequencies --   354.8236               369.8981               380.1649
 Red. masses --    10.8067                 9.2728                 9.1312
 Frc consts  --     0.0000                 0.0000                 0.0000
 IR Inten    --     1.1003                17.8737                 1.3495
 Raman Activ --     0.0000                 0.0000                 0.0000
 Depolar     --     0.0000                 0.0000                 0.0000
 Atom AN      X      Y      Z        X      Y      Z        X      Y      Z
   1   6     0.06  -0.05  -0.17     0.02   0.01  -0.03    -0.02  -0.00   0.05
   2   6    -0.06   0.08   0.20     0.07  -0.07  -0.32    -0.03   0.01   0.09
   3   6    -0.04   0.05  -0.04    -0.06   0.15   0.39     0.01  -0.06  -0.18
   4   6     0.01  -0.00  -0.25     0.02   0.01  -0.01    -0.02   0.01   0.03
   5   6     0.03  -0.08  -0.27     0.00  -0.03  -0.02    -0.01   0.03   0.04
   6   7     0.07  -0.03   0.17     0.03  -0.02   0.04    -0.01   0.03   0.02
   7   6     0.03   0.04   0.18    -0.00   0.02   0.04     0.00   0.01  -0.07
   8   6     0.05   0.07   0.14     0.01   0.06   0.05    -0.00  -0.02  -0.06
   9   6    -0.02   0.07  -0.17    -0.03   0.06  -0.05     0.02  -0.02  -0.01
  10   6    -0.03   0.02   0.00    -0.04   0.05   0.01     0.03  -0.02   0.06
  11   6     0.03  -0.03   0.14    -0.01   0.03   0.04     0.01  -0.02  -0.06
  12   6     0.07  -0.02  -0.16     0.02   0.03  -0.05    -0.00  -0.02  -0.00
  13   6     0.08   0.02   0.01     0.03   0.02   0.03     0.00  -0.01   0.05
  14   6     0.03  -0.01   0.01     0.01  -0.01   0.01     0.00  -0.01   0.11
  15   6     0.03  -0.01   0.05     0.03  -0.02   0.03    -0.01   0.01  -0.07
  16   6     0.02  -0.01  -0.07     0.01  -0.03  -0.05     0.01   0.01   0.02
  17   6     0.01  -0.05   0.02     0.01  -0.07   0.02     0.01   0.03   0.04
  18   6     0.01  -0.05   0.04     0.00  -0.06   0.03     0.00   0.05  -0.05
  19   6    -0.01  -0.04  -0.07     0.01  -0.04  -0.04    -0.00   0.02   0.09
  20   6    -0.05   0.00  -0.10    -0.03  -0.01  -0.04     0.01   0.02  -0.04
  21   7    -0.09  -0.09  -0.37    -0.03  -0.03  -0.08    -0.00   0.01  -0.02
  22   6    -0.14  -0.11   0.17    -0.04  -0.03   0.01    -0.01   0.01   0.01
  23   6    -0.10   0.06   0.19     0.07   0.07   0.09     0.28   0.20   0.21
  24   6    -0.05   0.13   0.00    -0.13  -0.07  -0.08    -0.25  -0.19  -0.17
  25   6    -0.05   0.01  -0.11     0.00   0.01  -0.01     0.01  -0.01  -0.01
  26   6     0.08  -0.05   0.02     0.11   0.07   0.08     0.27   0.19   0.17
  27   6    -0.01  -0.09   0.21    -0.13  -0.11  -0.06    -0.28  -0.22  -0.18
  28   6     0.00   0.11   0.15     0.08  -0.09  -0.36    -0.03   0.04   0.12
  29   6     0.05   0.03   0.01    -0.03   0.12   0.36     0.01  -0.05  -0.15
  30   1     0.03  -0.04  -0.10     0.01  -0.00  -0.03    -0.01   0.00   0.04
  31   1    -0.04   0.04   0.15     0.04  -0.05  -0.19    -0.02   0.01   0.05
  32   1    -0.03   0.03   0.01    -0.04   0.08   0.23     0.01  -0.03  -0.10
  33   1    -0.02   0.03  -0.11    -0.01   0.02  -0.04     0.01  -0.01  -0.00
  34   1    -0.02   0.00  -0.00    -0.02   0.01  -0.00     0.01  -0.01   0.04
  35   1     0.01  -0.02   0.09    -0.01  -0.00   0.02     0.00  -0.00  -0.03
  36   1     0.02  -0.01  -0.11     0.01   0.00  -0.04    -0.00  -0.00   0.01
  37   1     0.01  -0.01   0.04     0.01  -0.01   0.02    -0.00   0.01  -0.07
  38   1    -0.00   0.00  -0.03    -0.00  -0.00  -0.03     0.00   0.00  -0.01
  39   1    -0.00  -0.02   0.02     0.00  -0.02   0.02     0.01   0.01   0.00
  40   1     0.00  -0.02   0.04     0.00  -0.02   0.02    -0.00   0.02  -0.07
  41   1    -0.06   0.05   0.08     0.05   0.05   0.05     0.17   0.12   0.12
  42   1    -0.02   0.07  -0.01    -0.08  -0.04  -0.05    -0.16  -0.11  -0.11
  43   1    -0.03  -0.01  -0.07     0.00   0.01  -0.00     0.00  -0.00  -0.00
  44   1     0.06  -0.03  -0.01     0.08   0.05   0.05     0.16   0.12   0.11
  45   1     0.01  -0.06   0.08    -0.07  -0.06  -0.04    -0.16  -0.13  -0.11
  46   1    -0.00   0.07   0.13     0.04  -0.06  -0.22    -0.01   0.02   0.07
  47   1     0.02   0.01   0.03    -0.03   0.06   0.21     0.02  -0.03  -0.09
                     22                     23                     24
                        a                      a                      a 
 Frequencies --   388.5552               392.7774               403.6238
 Red. masses --    10.7627                10.2095                10.3380
 Frc consts  --     0.0000                 0.0000                 0.0000
 IR Inten    --     3.7761                 3.3920                 3.5612
 Raman Activ --     0.0000                 0.0000                 0.0000
 Depolar     --     0.0000                 0.0000                 0.0000
 Atom AN      X      Y      Z        X      Y      Z        X      Y      Z
   1   6     0.06   0.01  -0.03     0.02   0.05   0.11     0.03   0.03   0.07
   2   6     0.01   0.05   0.08     0.04   0.00  -0.06     0.00  -0.01  -0.09
   3   6     0.02   0.01  -0.08     0.03  -0.00  -0.04    -0.04   0.07   0.02
   4   6    -0.00  -0.02  -0.05    -0.03   0.03   0.17    -0.05   0.07   0.10
   5   6    -0.03  -0.04  -0.02    -0.04   0.01   0.05    -0.03  -0.02   0.04
   6   7    -0.05  -0.09  -0.06    -0.08  -0.06  -0.09     0.01  -0.02   0.12
   7   6    -0.08  -0.01   0.06    -0.08  -0.04  -0.06    -0.02   0.02  -0.08
   8   6    -0.04   0.21  -0.03    -0.04   0.11   0.11     0.02   0.09  -0.28
   9   6    -0.13   0.24   0.15    -0.11   0.13  -0.22     0.01   0.10   0.14
  10   6    -0.18   0.24  -0.13    -0.09   0.16   0.18    -0.02   0.04   0.02
  11   6    -0.07   0.16   0.04    -0.07   0.12  -0.02     0.04  -0.04  -0.14
  12   6     0.07   0.15   0.12    -0.01   0.11  -0.18     0.11  -0.02   0.14
  13   6     0.04   0.10  -0.20     0.03   0.06   0.33     0.08   0.02  -0.18
  14   6     0.10   0.00  -0.23     0.12   0.00   0.29     0.01  -0.02   0.11
  15   6     0.15  -0.07   0.13     0.13   0.04  -0.17     0.00   0.00  -0.19
  16   6     0.04  -0.12   0.01     0.03  -0.01  -0.03     0.02  -0.04   0.24
  17   6    -0.02  -0.27  -0.16    -0.02  -0.20   0.17    -0.00  -0.03  -0.14
  18   6     0.01  -0.30   0.13     0.02  -0.21  -0.24    -0.00  -0.03  -0.07
  19   6     0.07  -0.19  -0.06     0.09  -0.17   0.02    -0.02  -0.08   0.42
  20   6    -0.04  -0.09   0.14    -0.00  -0.08  -0.08    -0.07  -0.01   0.06
  21   7    -0.01  -0.01   0.13     0.01   0.01   0.01    -0.10  -0.07  -0.34
  22   6     0.02   0.02  -0.07     0.03   0.01   0.02    -0.12  -0.09   0.02
  23   6     0.09   0.04  -0.02    -0.03  -0.03  -0.03    -0.06  -0.02   0.07
  24   6    -0.02  -0.05  -0.02     0.04   0.03   0.02     0.05   0.08   0.04
  25   6    -0.01  -0.01   0.02     0.00   0.00   0.00    -0.05  -0.05  -0.08
  26   6     0.02   0.06   0.04    -0.03  -0.02  -0.03     0.04  -0.02  -0.01
  27   6    -0.04   0.00  -0.09     0.05   0.04   0.04     0.05   0.00   0.12
  28   6     0.01  -0.00   0.09     0.02  -0.03   0.02     0.03   0.04  -0.05
  29   6     0.04  -0.03  -0.03     0.03  -0.04  -0.09     0.05   0.01  -0.02
  30   1     0.02   0.00  -0.02    -0.00   0.02   0.06     0.01   0.01   0.04
  31   1    -0.01   0.02   0.05     0.02  -0.02  -0.06    -0.00  -0.02  -0.06
  32   1     0.02  -0.00  -0.04     0.03  -0.02  -0.06    -0.01   0.02  -0.01
  33   1    -0.04   0.08   0.11    -0.04   0.04  -0.18     0.00   0.04   0.14
  34   1    -0.06   0.07  -0.07    -0.03   0.05   0.09    -0.02   0.01   0.05
  35   1    -0.03   0.01   0.04    -0.03   0.01  -0.04     0.00  -0.03  -0.05
  36   1     0.03   0.04   0.09    -0.02   0.03  -0.17     0.05  -0.02   0.17
  37   1     0.04  -0.02   0.11     0.04   0.02  -0.13    -0.00   0.01  -0.20
  38   1    -0.02  -0.00   0.04    -0.02   0.03  -0.04     0.00  -0.01   0.11
  39   1    -0.03  -0.08  -0.07    -0.04  -0.07   0.09    -0.01   0.00  -0.15
  40   1     0.00  -0.10   0.11     0.00  -0.06  -0.16    -0.00   0.01  -0.14
  41   1     0.06   0.02  -0.00    -0.02  -0.02  -0.02    -0.03   0.00   0.03
  42   1    -0.01  -0.03  -0.01     0.02   0.01   0.01     0.04   0.06   0.02
  43   1    -0.00  -0.00   0.01    -0.00  -0.00  -0.00    -0.03  -0.03  -0.04
  44   1     0.01   0.04   0.03    -0.02  -0.02  -0.02     0.03  -0.01  -0.01
  45   1    -0.02   0.01  -0.04     0.02   0.02   0.01     0.04  -0.00   0.06
  46   1     0.00   0.02   0.06     0.01  -0.01  -0.02     0.02   0.01  -0.06
  47   1     0.00  -0.01  -0.02     0.01  -0.03  -0.08     0.02  -0.00  -0.03
                     25                     26                     27
                        a                      a                      a 
 Frequencies --   417.3549               433.3782               452.6369
 Red. masses --    10.1928                11.4732                10.8222
 Frc consts  --     0.0000                 0.0000                 0.0000
 IR Inten    --     1.0115                 4.2026                 2.1912
 Raman Activ --     0.0000                 0.0000                 0.0000
 Depolar     --     0.0000                 0.0000                 0.0000
 Atom AN      X      Y      Z        X      Y      Z        X      Y      Z
   1   6     0.03  -0.08  -0.29     0.05   0.02   0.01     0.09   0.01   0.01
   2   6    -0.03   0.06   0.21     0.04   0.02  -0.01    -0.03   0.03  -0.01
   3   6     0.00  -0.00   0.01     0.03   0.03   0.01    -0.07   0.13  -0.04
   4   6     0.09  -0.13  -0.45    -0.02  -0.02   0.01    -0.08   0.09  -0.02
   5   6     0.02  -0.03   0.03    -0.03  -0.06  -0.04    -0.01  -0.19   0.13
   6   7     0.03  -0.01   0.21    -0.16  -0.20   0.05     0.02  -0.22  -0.02
   7   6     0.00  -0.03  -0.15    -0.10  -0.26   0.01    -0.02  -0.10   0.00
   8   6    -0.02  -0.01  -0.21    -0.10  -0.16  -0.06     0.04   0.03  -0.10
   9   6    -0.04  -0.01  -0.00    -0.01  -0.17   0.05     0.04   0.02  -0.03
  10   6    -0.03   0.03   0.13     0.01  -0.07  -0.03     0.02  -0.07   0.08
  11   6    -0.07   0.06  -0.15    -0.14   0.09   0.01     0.01  -0.08  -0.09
  12   6    -0.04   0.05   0.07    -0.25   0.06   0.05     0.02  -0.06   0.04
  13   6    -0.04   0.02   0.05    -0.21   0.04  -0.08     0.04   0.05   0.06
  14   6    -0.00  -0.00   0.19     0.17   0.16  -0.04    -0.01   0.07   0.02
  15   6     0.01   0.00  -0.10     0.15   0.28   0.03    -0.01   0.10   0.08
  16   6     0.00  -0.02   0.04     0.13   0.32   0.04     0.10   0.15  -0.11
  17   6     0.00  -0.04   0.04     0.07   0.11  -0.03     0.09   0.06   0.11
  18   6    -0.00  -0.02  -0.11     0.18  -0.06   0.04     0.09   0.04  -0.03
  19   6     0.01  -0.03   0.14     0.14  -0.06   0.00    -0.07  -0.00  -0.16
  20   6     0.02  -0.03  -0.10     0.13  -0.17  -0.01    -0.09  -0.07   0.10
  21   7     0.05   0.02   0.26     0.11  -0.06  -0.19    -0.13  -0.20   0.20
  22   6     0.09   0.05  -0.03     0.09  -0.01   0.12    -0.25  -0.25  -0.30
  23   6     0.02   0.01  -0.08    -0.04   0.04   0.02     0.04   0.07  -0.11
  24   6    -0.00  -0.03  -0.01    -0.07   0.05  -0.08     0.11   0.11   0.09
  25   6     0.01   0.03   0.05    -0.02   0.15   0.01    -0.25  -0.07  -0.09
  26   6    -0.06   0.01  -0.00    -0.06  -0.00   0.01     0.07   0.12   0.14
  27   6     0.02   0.05  -0.06    -0.09  -0.03   0.09     0.01   0.04  -0.05
  28   6     0.00  -0.02  -0.02     0.02  -0.04   0.00     0.03   0.10  -0.01
  29   6    -0.04   0.06   0.23     0.02  -0.03   0.01     0.10   0.02   0.01
  30   1     0.02  -0.04  -0.15     0.01   0.01   0.00     0.03  -0.01   0.00
  31   1    -0.03   0.06   0.18     0.01  -0.00  -0.01    -0.03  -0.02   0.00
  32   1    -0.03   0.04   0.11     0.02   0.01   0.01    -0.03   0.03  -0.03
  33   1    -0.01  -0.00   0.02     0.01  -0.06   0.05     0.00   0.02  -0.00
  34   1     0.01   0.01   0.09     0.05  -0.01  -0.01    -0.01  -0.02   0.05
  35   1    -0.02   0.02  -0.08    -0.03   0.07   0.01     0.00  -0.02  -0.06
  36   1    -0.01   0.01   0.07    -0.08   0.03   0.05     0.02  -0.03   0.02
  37   1     0.00   0.01  -0.11     0.05   0.10   0.01    -0.01   0.00   0.06
  38   1    -0.00   0.00  -0.01     0.02   0.11   0.02     0.03   0.04  -0.06
  39   1    -0.00  -0.01  -0.01    -0.04   0.02  -0.02     0.01   0.01   0.08
  40   1    -0.00   0.01  -0.12     0.05  -0.03   0.02     0.03   0.03   0.02
  41   1     0.01  -0.02  -0.04    -0.06   0.02   0.01     0.09   0.07   0.01
  42   1    -0.00  -0.03  -0.00    -0.04  -0.01  -0.04     0.12   0.07   0.10
  43   1     0.01   0.01   0.03     0.01   0.05   0.00    -0.10  -0.04  -0.04
  44   1    -0.04   0.00  -0.00    -0.02  -0.03  -0.03     0.10   0.10   0.10
  45   1    -0.01   0.03  -0.03    -0.05  -0.02   0.01     0.05   0.10   0.01
  46   1    -0.02   0.02   0.10     0.01  -0.01  -0.01     0.03   0.06  -0.01
  47   1    -0.03   0.05   0.20    -0.00  -0.01  -0.00     0.04   0.00   0.00
                     28                     29                     30
                        a                      a                      a 
 Frequencies --   475.5002               486.9065               510.8088
 Red. masses --    10.5574                11.7360                10.7289
 Frc consts  --     0.0000                 0.0000                 0.0000
 IR Inten    --     4.5705                 4.0494                 7.0350
 Raman Activ --     0.0000                 0.0000                 0.0000
 Depolar     --     0.0000                 0.0000                 0.0000
 Atom AN      X      Y      Z        X      Y      Z        X      Y      Z
   1   6    -0.00   0.01  -0.01     0.16   0.08  -0.08    -0.14  -0.04  -0.02
   2   6     0.01   0.01   0.00     0.06   0.13   0.03    -0.00  -0.06   0.03
   3   6     0.02  -0.02   0.01     0.08  -0.01   0.01     0.04  -0.13   0.06
   4   6     0.01  -0.03   0.01    -0.07  -0.18  -0.06     0.14   0.01   0.02
   5   6    -0.03   0.06  -0.02    -0.24   0.18  -0.01     0.13   0.14  -0.04
   6   7    -0.05   0.05  -0.03    -0.33   0.18  -0.04     0.10   0.18  -0.01
   7   6    -0.03   0.05   0.20    -0.22   0.05  -0.02     0.08   0.12   0.02
   8   6    -0.05   0.01  -0.38    -0.15   0.02   0.07    -0.07  -0.17  -0.03
   9   6     0.00   0.03  -0.03     0.10   0.05  -0.01    -0.09  -0.20   0.02
  10   6     0.02   0.03   0.17     0.13  -0.01  -0.02    -0.00   0.04  -0.00
  11   6     0.02  -0.01  -0.23     0.20  -0.11   0.01    -0.11   0.17  -0.00
  12   6     0.04  -0.01   0.16     0.00  -0.14  -0.02    -0.15   0.13   0.02
  13   6     0.01  -0.03  -0.05    -0.00  -0.09   0.03    -0.15  -0.09  -0.02
  14   6     0.02  -0.04   0.10     0.12  -0.02  -0.04     0.16  -0.05   0.01
  15   6     0.01  -0.04   0.17     0.04   0.13  -0.02     0.16  -0.03  -0.01
  16   6    -0.04  -0.02  -0.26     0.02   0.15   0.05    -0.10  -0.07  -0.00
  17   6    -0.02  -0.04   0.25    -0.00   0.07  -0.04    -0.10  -0.06  -0.00
  18   6    -0.02  -0.00  -0.16     0.12  -0.07   0.02    -0.04  -0.07  -0.01
  19   6     0.03   0.02  -0.28     0.07  -0.08   0.01     0.22   0.02  -0.00
  20   6    -0.01   0.05   0.37    -0.14   0.09  -0.01     0.15   0.14   0.03
  21   7    -0.00   0.06  -0.24    -0.20   0.14   0.04     0.12   0.13  -0.00
  22   6     0.04   0.08   0.10    -0.18   0.07  -0.07    -0.29  -0.18  -0.13
  23   6    -0.02  -0.04   0.07    -0.03  -0.07   0.08    -0.10  -0.06   0.03
  24   6    -0.02  -0.04  -0.02     0.03  -0.06   0.12     0.12   0.09   0.10
  25   6     0.09  -0.00   0.01     0.08  -0.21  -0.03    -0.14  -0.15  -0.14
  26   6    -0.00  -0.03  -0.06     0.11  -0.01  -0.05     0.15   0.08   0.07
  27   6     0.01  -0.01   0.04     0.06  -0.02  -0.11    -0.06  -0.07   0.00
  28   6     0.00  -0.04   0.01     0.09  -0.21   0.03    -0.02   0.03  -0.02
  29   6    -0.01  -0.01   0.00     0.02  -0.05   0.09    -0.07   0.08  -0.02
  30   1    -0.00   0.00  -0.01     0.04   0.03  -0.04    -0.04  -0.01  -0.01
  31   1     0.01   0.01   0.00     0.01   0.04   0.04     0.03   0.02  -0.00
  32   1     0.02  -0.01   0.01     0.08  -0.00   0.03    -0.01  -0.04   0.01
  33   1     0.01   0.00   0.08     0.06  -0.02  -0.02    -0.00  -0.08   0.02
  34   1     0.01   0.01   0.15    -0.00  -0.01  -0.02     0.06   0.03   0.00
  35   1     0.00  -0.01  -0.10     0.06  -0.02   0.00    -0.03   0.07   0.01
  36   1     0.02   0.00   0.15    -0.03  -0.01  -0.02    -0.06   0.06   0.03
  37   1     0.01  -0.00   0.10     0.02   0.05  -0.00     0.06   0.05  -0.00
  38   1    -0.02   0.00  -0.16     0.00   0.05   0.04    -0.05   0.01   0.00
  39   1     0.00  -0.02   0.18    -0.04   0.01  -0.02    -0.02  -0.01   0.00
  40   1    -0.01  -0.02   0.00     0.03  -0.04   0.01    -0.03  -0.07  -0.01
  41   1    -0.03  -0.03   0.00     0.05  -0.03   0.01     0.04   0.03   0.06
  42   1    -0.04  -0.01  -0.03     0.02   0.03   0.03     0.12   0.11   0.08
  43   1     0.03  -0.00   0.01     0.02  -0.06  -0.01    -0.04  -0.05  -0.05
  44   1    -0.03  -0.03  -0.04     0.03   0.04   0.02     0.13   0.09   0.08
  45   1    -0.01  -0.04   0.01     0.05  -0.03  -0.00     0.05   0.01   0.05
  46   1    -0.00  -0.02  -0.01     0.03  -0.05   0.03    -0.03  -0.03  -0.00
  47   1    -0.01  -0.00  -0.01    -0.06   0.00   0.05    -0.00   0.02  -0.00
                     31                     32                     33
                        a                      a                      a 
 Frequencies --   518.4113               570.2565               578.0606
 Red. masses --     9.5694                11.6748                11.2281
 Frc consts  --     0.0000                 0.0000                 0.0000
 IR Inten    --     3.8008                 6.4173                 0.2534
 Raman Activ --     0.0000                 0.0000                 0.0000
 Depolar     --     0.0000                 0.0000                 0.0000
 Atom AN      X      Y      Z        X      Y      Z        X      Y      Z
   1   6    -0.01  -0.01  -0.00     0.00   0.09   0.14    -0.05   0.14  -0.07
   2   6    -0.00  -0.01   0.00    -0.03   0.00  -0.17    -0.38   0.13  -0.08
   3   6    -0.00  -0.00  -0.00    -0.05   0.00   0.15    -0.15  -0.33   0.04
   4   6     0.01   0.01  -0.00    -0.03  -0.04   0.07     0.04  -0.13   0.08
   5   6     0.01   0.00   0.02     0.01  -0.06  -0.65    -0.01   0.04   0.02
   6   7     0.02   0.00   0.03     0.01   0.04   0.25    -0.02  -0.01  -0.00
   7   6     0.01   0.01  -0.02     0.01   0.03   0.18     0.01  -0.05  -0.01
   8   6     0.01  -0.01   0.01    -0.02  -0.02  -0.08     0.05   0.08  -0.00
   9   6    -0.01  -0.01  -0.25    -0.02  -0.02  -0.08     0.14   0.09  -0.00
  10   6     0.03  -0.01   0.34     0.00   0.02   0.09     0.07  -0.15  -0.01
  11   6    -0.04   0.00  -0.29    -0.01   0.01  -0.11    -0.03  -0.07   0.01
  12   6    -0.01   0.00   0.18     0.01   0.01   0.08    -0.14  -0.07   0.01
  13   6     0.01   0.01   0.35    -0.01  -0.03  -0.09    -0.05   0.16   0.00
  14   6    -0.00   0.02  -0.33    -0.00  -0.03   0.04    -0.01   0.17   0.01
  15   6     0.02  -0.01  -0.14    -0.04   0.01   0.00     0.17  -0.01   0.00
  16   6     0.01  -0.04   0.21    -0.00   0.02   0.01     0.06  -0.06  -0.01
  17   6    -0.01   0.01  -0.28     0.01   0.03  -0.00    -0.01  -0.18  -0.01
  18   6    -0.01  -0.01   0.23     0.04  -0.02   0.01    -0.18   0.03  -0.01
  19   6    -0.00   0.03  -0.13     0.01  -0.02   0.01    -0.09   0.06   0.01
  20   6     0.01   0.01   0.12    -0.01   0.00  -0.18     0.02  -0.04   0.01
  21   7     0.01  -0.01  -0.08    -0.00   0.01   0.27     0.02  -0.01  -0.00
  22   6     0.00   0.00   0.01     0.02   0.03  -0.06     0.01  -0.01   0.02
  23   6     0.00  -0.00   0.01    -0.02   0.13  -0.09     0.01  -0.02   0.01
  24   6    -0.01  -0.00  -0.01    -0.13   0.04   0.10     0.03  -0.00  -0.03
  25   6     0.01   0.01   0.00    -0.01  -0.02   0.07    -0.01   0.01  -0.01
  26   6    -0.01  -0.00  -0.01     0.01  -0.13   0.09    -0.00   0.02  -0.01
  27   6    -0.02  -0.01   0.01     0.12  -0.04  -0.10    -0.03   0.01   0.03
  28   6    -0.00   0.01  -0.01     0.04  -0.04   0.15     0.34  -0.12   0.06
  29   6    -0.00   0.01   0.00     0.05  -0.01  -0.14     0.16   0.36  -0.05
  30   1    -0.00  -0.00   0.00     0.00   0.02   0.07     0.04  -0.08   0.01
  31   1    -0.00   0.00   0.00     0.00  -0.02  -0.10    -0.07   0.08  -0.03
  32   1    -0.01   0.00   0.00     0.02  -0.01   0.02     0.02  -0.10   0.02
  33   1    -0.01  -0.00  -0.19     0.00  -0.01   0.01     0.02   0.05   0.00
  34   1     0.01  -0.00   0.14     0.01   0.01   0.09    -0.01  -0.05  -0.00
  35   1    -0.02   0.00  -0.24    -0.00   0.00  -0.02     0.01   0.03   0.00
  36   1    -0.01   0.00  -0.02     0.01   0.01   0.09    -0.02  -0.04  -0.00
  37   1     0.00  -0.01   0.05    -0.01   0.01  -0.02     0.04  -0.03   0.00
  38   1     0.00  -0.02   0.24     0.01  -0.00  -0.01    -0.02   0.02  -0.00
  39   1     0.00   0.00  -0.08    -0.01   0.01  -0.01     0.03  -0.04  -0.00
  40   1     0.00  -0.02   0.20     0.01  -0.01  -0.01    -0.04   0.04   0.00
  41   1    -0.00   0.00   0.00     0.02   0.02  -0.04    -0.00  -0.00   0.01
  42   1    -0.01  -0.00  -0.01    -0.03  -0.01   0.04     0.01  -0.00  -0.01
  43   1     0.00   0.01   0.00     0.02   0.01  -0.02    -0.01   0.00   0.00
  44   1    -0.00  -0.00  -0.01    -0.02  -0.02   0.04     0.01   0.00  -0.00
  45   1    -0.00  -0.00   0.01     0.03   0.01  -0.04    -0.01   0.00   0.01
  46   1    -0.00   0.00  -0.00     0.01  -0.02   0.02     0.07  -0.08   0.02
  47   1     0.00   0.00   0.00    -0.00  -0.02  -0.09    -0.01   0.11  -0.02
                     34                     35                     36
                        a                      a                      a 
 Frequencies --   580.2908               590.3634               619.6748
 Red. masses --    11.3039                11.3699                11.4050
 Frc consts  --     0.0000                 0.0000                 0.0000
 IR Inten    --     0.1631                 2.9781                 0.5650
 Raman Activ --     0.0000                 0.0000                 0.0000
 Depolar     --     0.0000                 0.0000                 0.0000
 Atom AN      X      Y      Z        X      Y      Z        X      Y      Z
   1   6    -0.02   0.08  -0.06    -0.02  -0.03  -0.05    -0.16  -0.05   0.05
   2   6    -0.25   0.09  -0.04    -0.02  -0.00   0.05     0.05  -0.12  -0.04
   3   6    -0.11  -0.19  -0.00     0.01  -0.04  -0.06     0.05  -0.07   0.10
   4   6     0.02  -0.07   0.04     0.03   0.01  -0.00     0.17   0.05  -0.09
   5   6    -0.01  -0.02   0.10     0.01   0.03   0.22     0.12  -0.00   0.03
   6   7     0.03  -0.03  -0.03     0.03   0.02  -0.09     0.17  -0.01  -0.01
   7   6     0.01  -0.00  -0.03     0.02   0.03  -0.05     0.10   0.03  -0.02
   8   6    -0.02  -0.11   0.02     0.00  -0.02   0.01     0.10  -0.04  -0.02
   9   6    -0.23  -0.13   0.02     0.00  -0.03   0.03     0.05  -0.10   0.01
  10   6    -0.13   0.23   0.00     0.01  -0.02  -0.03     0.03  -0.15  -0.02
  11   6     0.01   0.12   0.01    -0.02   0.01   0.04    -0.13   0.03   0.03
  12   6     0.25   0.13  -0.03    -0.03   0.01  -0.02    -0.07   0.05  -0.01
  13   6     0.12  -0.21   0.02    -0.02   0.00   0.03    -0.02   0.09   0.01
  14   6    -0.03  -0.24  -0.03     0.04   0.02   0.00    -0.12   0.05   0.01
  15   6    -0.30   0.02   0.00     0.06   0.00  -0.01    -0.16   0.13   0.01
  16   6    -0.06   0.11   0.01    -0.00  -0.01   0.00     0.15   0.19   0.01
  17   6     0.03   0.27   0.02    -0.02  -0.03  -0.01     0.08  -0.14  -0.02
  18   6     0.28  -0.03   0.00    -0.03  -0.01  -0.01     0.16  -0.24  -0.02
  19   6     0.08  -0.10  -0.02     0.01   0.00  -0.01    -0.12  -0.19  -0.01
  20   6    -0.01  -0.01   0.03    -0.00   0.02   0.07    -0.20  -0.03   0.06
  21   7    -0.01  -0.04  -0.04    -0.04  -0.02  -0.23    -0.20   0.09  -0.01
  22   6     0.02  -0.02   0.01     0.05   0.05  -0.11    -0.17   0.18  -0.01
  23   6     0.02   0.01  -0.00    -0.07   0.34  -0.19    -0.03  -0.00   0.17
  24   6     0.00  -0.00  -0.03    -0.35   0.16   0.25    -0.09  -0.08   0.09
  25   6    -0.00   0.03   0.01    -0.02  -0.02   0.17     0.19  -0.14   0.03
  26   6    -0.02  -0.00   0.00     0.06  -0.38   0.25    -0.00   0.06  -0.20
  27   6    -0.01   0.00   0.02     0.30  -0.16  -0.19     0.07   0.14  -0.11
  28   6     0.21  -0.07   0.03     0.01   0.02  -0.05    -0.01   0.17   0.02
  29   6     0.11   0.22  -0.02    -0.00   0.05   0.03     0.01   0.13  -0.12
  30   1     0.03  -0.05   0.00    -0.00  -0.01  -0.01    -0.05  -0.01   0.07
  31   1    -0.06   0.05  -0.01    -0.00   0.01   0.03     0.04   0.01   0.00
  32   1     0.01  -0.05   0.01    -0.01  -0.00   0.00    -0.03  -0.00   0.05
  33   1    -0.05  -0.06  -0.01     0.00  -0.01   0.00    -0.00  -0.01   0.01
  34   1     0.01   0.07  -0.01     0.01  -0.00  -0.03     0.04  -0.04  -0.01
  35   1    -0.02  -0.05  -0.00    -0.00   0.01   0.01    -0.02   0.04   0.01
  36   1     0.05   0.06  -0.02    -0.01   0.00  -0.03    -0.00  -0.01  -0.01
  37   1    -0.08   0.03   0.01     0.02   0.01   0.00    -0.06  -0.02   0.00
  38   1     0.05  -0.04   0.00    -0.01   0.01   0.01     0.05   0.05   0.01
  39   1    -0.04   0.07   0.01    -0.00  -0.01   0.01    -0.07  -0.06   0.00
  40   1     0.06  -0.05  -0.00    -0.01  -0.00   0.02     0.05  -0.04  -0.00
  41   1    -0.00   0.00   0.00     0.00   0.06  -0.08     0.03  -0.04   0.02
  42   1    -0.00  -0.01  -0.01    -0.10  -0.01   0.08    -0.06   0.02  -0.01
  43   1    -0.00   0.01   0.00     0.05   0.03  -0.09     0.05  -0.04   0.02
  44   1    -0.01  -0.01  -0.01    -0.04  -0.09   0.08    -0.06   0.04  -0.04
  45   1    -0.01   0.00  -0.00     0.06  -0.01  -0.08     0.03  -0.02  -0.01
  46   1     0.04  -0.04   0.01    -0.00   0.00  -0.01    -0.03   0.03   0.06
  47   1    -0.00   0.07  -0.01     0.01   0.02   0.02     0.05   0.04  -0.00
                     37                     38                     39
                        a                      a                      a 
 Frequencies --   626.6475               635.0869               645.0906
 Red. masses --     9.4188                10.8163                11.1723
 Frc consts  --     0.0000                 0.0000                 0.0000
 IR Inten    --     5.5337                 4.5310                 0.6797
 Raman Activ --     0.0000                 0.0000                 0.0000
 Depolar     --     0.0000                 0.0000                 0.0000
 Atom AN      X      Y      Z        X      Y      Z        X      Y      Z
   1   6     0.07   0.11   0.19     0.15   0.02  -0.06    -0.16  -0.06   0.00
   2   6    -0.04  -0.01  -0.32    -0.13   0.13   0.08     0.07  -0.11   0.03
   3   6    -0.12   0.13   0.19    -0.11   0.11  -0.15     0.09  -0.11   0.06
   4   6    -0.03  -0.15  -0.39    -0.18   0.03   0.18     0.15   0.05  -0.03
   5   6    -0.05  -0.09   0.19    -0.03  -0.22  -0.04     0.12  -0.06   0.08
   6   7     0.07   0.03  -0.00     0.24   0.06   0.02     0.03  -0.11  -0.11
   7   6     0.01   0.10  -0.13     0.09   0.23  -0.01    -0.13   0.09   0.17
   8   6    -0.04  -0.04  -0.01    -0.01  -0.11  -0.03    -0.25   0.13   0.02
   9   6    -0.02  -0.05   0.05    -0.02  -0.17   0.03     0.08   0.26  -0.05
  10   6     0.01   0.02  -0.04     0.04  -0.05  -0.03     0.06   0.13   0.02
  11   6     0.02   0.02   0.05    -0.05   0.06   0.02     0.22  -0.11  -0.05
  12   6    -0.02   0.00  -0.03    -0.06   0.04  -0.02    -0.24  -0.21   0.03
  13   6    -0.02  -0.06   0.06    -0.05  -0.05   0.02    -0.18  -0.10  -0.06
  14   6     0.11  -0.01  -0.02     0.13   0.00   0.04     0.04  -0.10   0.10
  15   6     0.14  -0.02  -0.01     0.18   0.03  -0.03    -0.06  -0.02  -0.04
  16   6    -0.06  -0.05  -0.01    -0.03  -0.01   0.02    -0.06  -0.00   0.06
  17   6    -0.05   0.01   0.01    -0.05  -0.05  -0.03    -0.02   0.10  -0.04
  18   6    -0.06   0.05  -0.01    -0.03  -0.04   0.01     0.11  -0.04   0.05
  19   6     0.08   0.06  -0.01     0.08   0.03  -0.04     0.09  -0.03  -0.06
  20   6    -0.00   0.10   0.10    -0.11   0.17   0.01    -0.02   0.08  -0.14
  21   7    -0.05  -0.07  -0.05    -0.17  -0.11   0.06     0.02  -0.06   0.03
  22   6    -0.01  -0.05  -0.02    -0.14  -0.07  -0.08    -0.06  -0.17  -0.08
  23   6     0.05   0.01   0.00     0.16   0.07   0.12     0.14   0.06   0.01
  24   6    -0.01  -0.03  -0.06    -0.10  -0.14  -0.11    -0.05  -0.08  -0.15
  25   6     0.02   0.06   0.02     0.17   0.09   0.09     0.04   0.15   0.06
  26   6    -0.05  -0.02  -0.02    -0.15  -0.04  -0.15    -0.12  -0.10  -0.02
  27   6     0.03   0.03   0.05     0.12   0.15   0.09     0.07   0.04   0.13
  28   6     0.00  -0.02   0.24     0.01  -0.08  -0.06     0.01   0.15  -0.03
  29   6     0.07  -0.12  -0.26     0.02  -0.07   0.16     0.01   0.17  -0.07
  30   1    -0.01   0.09   0.29     0.06  -0.04  -0.14    -0.04  -0.02   0.02
  31   1    -0.05   0.01   0.03    -0.06  -0.04  -0.04     0.05   0.02   0.01
  32   1    -0.05   0.10   0.23     0.01  -0.01  -0.14    -0.02  -0.03   0.02
  33   1     0.00  -0.03   0.00     0.01  -0.06   0.02     0.06   0.03   0.01
  34   1     0.01   0.01  -0.04     0.06  -0.00  -0.00    -0.08   0.02   0.05
  35   1     0.00   0.01   0.00    -0.01   0.04   0.02     0.07   0.01   0.02
  36   1    -0.02   0.01  -0.04    -0.03   0.02   0.00    -0.12   0.01   0.07
  37   1     0.05   0.03   0.02     0.06   0.04  -0.01    -0.01   0.02  -0.05
  38   1    -0.03   0.00   0.01    -0.04   0.03   0.01     0.00  -0.02  -0.01
  39   1     0.01   0.01   0.02    -0.01  -0.01  -0.01    -0.02   0.03  -0.03
  40   1    -0.02  -0.01   0.01    -0.02  -0.04   0.01     0.02  -0.05   0.00
  41   1    -0.00  -0.00  -0.00     0.06   0.03   0.04     0.05   0.05   0.03
  42   1    -0.01  -0.02  -0.02    -0.05  -0.04  -0.05     0.00  -0.04  -0.02
  43   1     0.00   0.01   0.01     0.06   0.03   0.06     0.04   0.06   0.04
  44   1    -0.02  -0.02  -0.02    -0.06  -0.02  -0.05    -0.01  -0.04  -0.01
  45   1     0.00   0.01   0.01     0.04   0.04   0.03     0.04   0.05   0.04
  46   1    -0.01   0.06   0.24     0.05  -0.01  -0.13    -0.03   0.01   0.02
  47   1    -0.03   0.00   0.04    -0.01  -0.04  -0.04     0.05   0.05   0.01
                     40                     41                     42
                        a                      a                      a 
 Frequencies --   654.5639               658.8852               666.5050
 Red. masses --    11.1100                11.1010                10.4161
 Frc consts  --     0.0000                 0.0000                 0.0000
 IR Inten    --    14.2260                 1.3028                 9.7664
 Raman Activ --     0.0000                 0.0000                 0.0000
 Depolar     --     0.0000                 0.0000                 0.0000
 Atom AN      X      Y      Z        X      Y      Z        X      Y      Z
   1   6    -0.06  -0.03   0.00     0.03   0.01  -0.01     0.05   0.02   0.01
   2   6     0.04  -0.03   0.04    -0.02   0.02  -0.02    -0.09   0.05  -0.02
   3   6     0.04  -0.04   0.02    -0.02   0.02  -0.02    -0.09   0.08  -0.04
   4   6     0.05   0.04   0.05    -0.03  -0.02  -0.03    -0.05   0.01   0.02
   5   6     0.05  -0.03  -0.21    -0.02   0.01   0.18     0.03  -0.19   0.04
   6   7     0.02  -0.03   0.28     0.01   0.02  -0.18     0.28   0.04  -0.02
   7   6    -0.07  -0.01  -0.46     0.04   0.02   0.21     0.06   0.26  -0.01
   8   6    -0.08   0.05   0.05     0.05  -0.03   0.33    -0.09   0.05   0.03
   9   6     0.03   0.10   0.06    -0.03  -0.06  -0.21     0.09   0.08  -0.02
  10   6     0.01   0.05  -0.01     0.02  -0.02   0.22     0.07  -0.03   0.01
  11   6     0.08  -0.03   0.06    -0.06   0.02  -0.20     0.04  -0.02  -0.01
  12   6    -0.08  -0.07   0.03     0.04   0.04   0.22    -0.24  -0.10   0.03
  13   6    -0.05  -0.03   0.12    -0.00   0.01  -0.32    -0.16  -0.03  -0.02
  14   6     0.02  -0.02  -0.38     0.01   0.03  -0.30    -0.01  -0.06  -0.03
  15   6    -0.01  -0.02   0.15     0.03  -0.00   0.20    -0.08   0.02   0.02
  16   6    -0.04   0.00  -0.18     0.00   0.02  -0.13    -0.02   0.04  -0.00
  17   6    -0.01   0.03   0.18     0.00  -0.04   0.17    -0.01  -0.01   0.01
  18   6     0.03   0.02  -0.19    -0.02   0.01  -0.11     0.15  -0.17  -0.01
  19   6     0.05  -0.03   0.29     0.00  -0.03   0.35     0.08  -0.08   0.03
  20   6    -0.00   0.02   0.28    -0.00   0.00  -0.25    -0.11   0.13   0.01
  21   7     0.01  -0.02  -0.02    -0.03  -0.00  -0.01    -0.06  -0.06  -0.01
  22   6    -0.04  -0.04  -0.03    -0.04  -0.02  -0.02     0.30   0.17   0.17
  23   6     0.04   0.02   0.01     0.02   0.02   0.03    -0.09  -0.08  -0.14
  24   6    -0.03  -0.02  -0.03    -0.03  -0.02  -0.01     0.19   0.12   0.09
  25   6     0.02   0.03   0.02     0.03   0.01   0.01    -0.15  -0.06  -0.07
  26   6    -0.04  -0.03  -0.01    -0.02  -0.01  -0.02     0.16   0.11   0.14
  27   6     0.04   0.02   0.03     0.03   0.03   0.02    -0.12  -0.10  -0.10
  28   6     0.00   0.05  -0.02     0.00  -0.02  -0.01     0.00  -0.03   0.02
  29   6    -0.01   0.06   0.00     0.01  -0.03  -0.00     0.03  -0.04   0.03
  30   1    -0.01  -0.02  -0.05     0.00   0.01   0.04     0.03  -0.02  -0.03
  31   1     0.03  -0.00  -0.03    -0.02   0.00   0.03    -0.04  -0.02  -0.03
  32   1     0.01  -0.02  -0.04    -0.01   0.02   0.02    -0.01   0.01  -0.04
  33   1     0.01   0.01  -0.09    -0.01  -0.02  -0.12     0.04   0.01  -0.01
  34   1    -0.04   0.01  -0.11     0.02  -0.00   0.04    -0.01  -0.01  -0.00
  35   1     0.02   0.00  -0.10    -0.02   0.00  -0.08     0.03   0.06  -0.01
  36   1    -0.06   0.00  -0.13     0.02   0.00   0.09    -0.10   0.01   0.01
  37   1     0.00  -0.00   0.14     0.01   0.01   0.01    -0.02   0.01  -0.01
  38   1    -0.00  -0.01  -0.01    -0.01   0.02  -0.14     0.00   0.00  -0.02
  39   1    -0.00   0.01   0.06    -0.00  -0.00  -0.05    -0.05  -0.01  -0.02
  40   1     0.00  -0.01  -0.09    -0.01   0.02  -0.16     0.03  -0.08  -0.04
  41   1     0.02   0.02   0.01     0.01   0.01   0.01    -0.13  -0.10  -0.11
  42   1    -0.00  -0.01  -0.00    -0.01  -0.00  -0.00    -0.02  -0.05  -0.02
  43   1     0.02   0.02   0.01     0.01   0.00   0.01    -0.14  -0.09  -0.09
  44   1    -0.00  -0.01  -0.00    -0.01  -0.00  -0.01    -0.04  -0.03  -0.02
  45   1     0.02   0.02   0.01     0.01   0.00   0.00    -0.14  -0.09  -0.10
  46   1    -0.00  -0.01  -0.04    -0.00   0.01   0.03     0.02   0.00  -0.03
  47   1     0.02   0.01  -0.03    -0.01   0.00   0.03    -0.00  -0.02  -0.02
                     43                     44                     45
                        a                      a                      a 
 Frequencies --   692.2851               717.1596               722.0953
 Red. masses --    11.0550                10.1325                10.8547
 Frc consts  --     0.0000                 0.0000                 0.0000
 IR Inten    --     1.6378                13.4019                10.7380
 Raman Activ --     0.0000                 0.0000                 0.0000
 Depolar     --     0.0000                 0.0000                 0.0000
 Atom AN      X      Y      Z        X      Y      Z        X      Y      Z
   1   6     0.06   0.03  -0.01     0.09   0.06   0.05     0.06   0.01  -0.04
   2   6    -0.01   0.05  -0.02    -0.11   0.09  -0.04    -0.06   0.04  -0.02
   3   6    -0.03   0.04  -0.01    -0.11   0.10   0.01    -0.05   0.03  -0.05
   4   6    -0.03  -0.03  -0.01    -0.03  -0.03  -0.07    -0.03   0.00   0.04
   5   6    -0.08   0.22  -0.01     0.03  -0.04   0.05     0.03  -0.04   0.05
   6   7    -0.02   0.36  -0.02     0.07  -0.15   0.04     0.04  -0.09  -0.11
   7   6     0.10   0.12  -0.01     0.04  -0.11  -0.15     0.03  -0.02   0.35
   8   6     0.11   0.05  -0.03     0.08   0.13   0.16     0.01   0.05  -0.40
   9   6     0.11   0.04   0.01     0.14   0.19  -0.05     0.07   0.09   0.09
  10   6     0.04  -0.17  -0.01     0.01  -0.09   0.05    -0.01  -0.04  -0.11
  11   6    -0.13   0.02   0.02    -0.11   0.02  -0.03    -0.04   0.01   0.10
  12   6    -0.08   0.04  -0.00    -0.14  -0.01   0.05    -0.08  -0.01  -0.09
  13   6    -0.01   0.12   0.03    -0.06   0.10  -0.16     0.00   0.03   0.39
  14   6    -0.17  -0.01  -0.01    -0.04  -0.08   0.12    -0.01  -0.02  -0.26
  15   6    -0.28   0.03   0.01    -0.13  -0.11  -0.00    -0.06  -0.05  -0.00
  16   6     0.08   0.08  -0.01    -0.15  -0.15   0.06    -0.08  -0.06  -0.11
  17   6     0.05  -0.12  -0.01    -0.02   0.19   0.00    -0.00   0.08   0.04
  18   6     0.15  -0.22  -0.04     0.15  -0.01   0.05     0.06   0.01  -0.10
  19   6    -0.03  -0.13   0.01     0.16   0.01  -0.14     0.07  -0.03   0.28
  20   6     0.03  -0.01   0.06     0.17  -0.07   0.09     0.08  -0.03  -0.27
  21   7     0.11   0.03  -0.02     0.20   0.13  -0.07     0.09   0.06   0.00
  22   6     0.02  -0.24  -0.06    -0.09   0.08  -0.01    -0.04   0.05   0.00
  23   6     0.12   0.00  -0.11    -0.11   0.01   0.10    -0.06   0.00   0.05
  24   6     0.05  -0.04  -0.21    -0.17  -0.00   0.11    -0.08   0.00   0.06
  25   6    -0.11   0.19   0.01     0.08  -0.13  -0.01     0.04  -0.07  -0.01
  26   6    -0.08  -0.18   0.14    -0.02   0.04  -0.15    -0.00   0.03  -0.07
  27   6     0.00  -0.11   0.18     0.00   0.06  -0.09    -0.01   0.03  -0.05
  28   6    -0.02  -0.11   0.02    -0.02  -0.11   0.08    -0.00  -0.06  -0.02
  29   6    -0.03  -0.12   0.02    -0.01  -0.14   0.04    -0.00  -0.07   0.02
  30   1     0.00   0.03   0.02     0.04  -0.02  -0.09     0.00   0.03   0.07
  31   1    -0.02   0.00   0.01    -0.05  -0.03  -0.07    -0.04   0.01   0.04
  32   1     0.00   0.02   0.01     0.00   0.00  -0.07    -0.01   0.02   0.03
  33   1    -0.00   0.05   0.00    -0.00   0.10  -0.06     0.01   0.04   0.10
  34   1     0.02  -0.04  -0.01    -0.03  -0.03  -0.03    -0.01  -0.01   0.04
  35   1    -0.02   0.05  -0.00    -0.02   0.05  -0.02    -0.00   0.03   0.01
  36   1     0.00  -0.02  -0.01    -0.03  -0.02   0.02    -0.03  -0.00  -0.07
  37   1    -0.10  -0.05   0.01    -0.03  -0.01  -0.09    -0.01  -0.02   0.15
  38   1     0.04  -0.01   0.01     0.00  -0.09  -0.10     0.01  -0.05   0.15
  39   1    -0.07  -0.05   0.01     0.01   0.06  -0.05     0.01   0.02   0.09
  40   1     0.05  -0.06  -0.00     0.02  -0.06  -0.04     0.01  -0.03   0.04
  41   1     0.07   0.09   0.05     0.09   0.06   0.08     0.03   0.02   0.04
  42   1     0.11  -0.02   0.02     0.03   0.12   0.07     0.01   0.06   0.03
  43   1     0.05   0.11   0.05     0.13   0.05   0.06     0.06   0.02   0.03
  44   1     0.10  -0.04   0.05     0.05   0.11   0.05     0.02   0.05   0.02
  45   1     0.05   0.06   0.08     0.10   0.05   0.05     0.04   0.02   0.02
  46   1    -0.00  -0.01   0.03     0.02  -0.03  -0.03    -0.00   0.00   0.03
  47   1    -0.05  -0.03   0.02    -0.04  -0.05  -0.05    -0.03  -0.00   0.05
                     46                     47                     48
                        a                      a                      a 
 Frequencies --   725.3481               743.2963               756.3317
 Red. masses --     5.4707                 4.4427                 6.0811
 Frc consts  --     0.0000                 0.0000                 0.0000
 IR Inten    --    17.8943                26.9266                10.8438
 Raman Activ --     0.0000                 0.0000                 0.0000
 Depolar     --     0.0000                 0.0000                 0.0000
 Atom AN      X      Y      Z        X      Y      Z        X      Y      Z
   1   6    -0.07   0.06   0.26    -0.01  -0.01  -0.01    -0.01   0.00   0.01
   2   6     0.01  -0.01   0.03     0.01  -0.01   0.00     0.03  -0.01   0.01
   3   6    -0.03   0.05   0.23     0.01  -0.01  -0.00     0.02  -0.01   0.02
   4   6     0.08  -0.09  -0.36     0.00   0.01   0.02     0.00  -0.01  -0.02
   5   6    -0.02   0.04   0.14    -0.01   0.02  -0.03    -0.04   0.10  -0.00
   6   7    -0.04   0.03  -0.06    -0.04   0.01  -0.01    -0.10   0.03   0.00
   7   6    -0.01   0.01   0.09    -0.01  -0.01   0.10    -0.01  -0.08  -0.01
   8   6    -0.01  -0.02  -0.08     0.01   0.00  -0.20     0.10   0.07   0.03
   9   6    -0.02  -0.03   0.02     0.02  -0.00   0.08     0.12   0.08  -0.03
  10   6    -0.01   0.01  -0.02     0.00  -0.03  -0.01     0.03  -0.17  -0.01
  11   6     0.02  -0.00   0.02    -0.02   0.01   0.10    -0.19   0.05  -0.01
  12   6     0.04   0.00  -0.02     0.01   0.02  -0.00    -0.02   0.09  -0.01
  13   6     0.02  -0.01   0.09     0.03   0.02   0.20     0.03   0.10  -0.01
  14   6    -0.01   0.02  -0.07    -0.00   0.01  -0.20     0.04  -0.06   0.03
  15   6     0.01   0.02   0.01     0.01  -0.02   0.13    -0.02  -0.09  -0.04
  16   6     0.03   0.03  -0.01    -0.02  -0.04   0.21    -0.13  -0.13  -0.05
  17   6     0.01  -0.04   0.01    -0.00   0.00   0.10    -0.03   0.17  -0.00
  18   6    -0.03   0.01  -0.01     0.02  -0.03   0.23     0.12   0.01  -0.02
  19   6    -0.03   0.00   0.07     0.01   0.02  -0.15     0.10  -0.03   0.02
  20   6    -0.01  -0.01  -0.07     0.00  -0.00   0.02     0.06  -0.02  -0.00
  21   7    -0.01   0.01  -0.01     0.00   0.01   0.00    -0.01  -0.01   0.05
  22   6     0.02  -0.01   0.01    -0.04  -0.04  -0.03    -0.22  -0.17  -0.17
  23   6     0.02   0.00  -0.02     0.02   0.01   0.01     0.11   0.07   0.08
  24   6     0.02   0.00  -0.02     0.02   0.01   0.00     0.08   0.05   0.04
  25   6    -0.02   0.02   0.00     0.01   0.02   0.01     0.11   0.08   0.07
  26   6    -0.00  -0.02   0.03     0.01   0.00   0.02     0.07   0.06   0.05
  27   6     0.00  -0.02   0.02     0.04   0.02   0.03     0.09   0.07   0.08
  28   6    -0.02   0.05   0.20     0.00  -0.00  -0.01    -0.00  -0.00   0.01
  29   6    -0.00   0.03   0.01    -0.00   0.00  -0.01    -0.01   0.00  -0.00
  30   1     0.07  -0.15  -0.50    -0.01   0.01   0.03    -0.00  -0.00  -0.03
  31   1     0.06  -0.09  -0.30     0.00   0.01   0.02     0.02   0.00  -0.01
  32   1     0.06  -0.10  -0.27    -0.00   0.00   0.01     0.01  -0.01  -0.01
  33   1     0.00  -0.02   0.02    -0.00   0.01  -0.04    -0.00   0.07   0.02
  34   1     0.00   0.00   0.00    -0.00  -0.01  -0.11     0.02  -0.04   0.04
  35   1     0.00  -0.01  -0.00    -0.02   0.00  -0.13    -0.04   0.05   0.05
  36   1     0.01   0.00  -0.02    -0.00  -0.00  -0.16     0.03  -0.01   0.04
  37   1     0.00  -0.00   0.02    -0.00   0.01  -0.26     0.00   0.00   0.06
  38   1     0.00   0.01   0.01    -0.02   0.03  -0.50    -0.00  -0.08   0.10
  39   1     0.00  -0.01  -0.01    -0.01   0.04  -0.39     0.02   0.04   0.08
  40   1    -0.01   0.02  -0.01    -0.01   0.04  -0.37     0.02  -0.06   0.03
  41   1     0.01   0.01   0.00    -0.03  -0.02  -0.02    -0.19  -0.14  -0.13
  42   1     0.01  -0.01  -0.00    -0.03  -0.03  -0.03    -0.22  -0.17  -0.16
  43   1    -0.00   0.01  -0.00    -0.05  -0.04  -0.04    -0.29  -0.21  -0.20
  44   1     0.00  -0.01   0.00    -0.04  -0.03  -0.03    -0.21  -0.17  -0.15
  45   1    -0.00  -0.00   0.00    -0.05  -0.04  -0.03    -0.17  -0.13  -0.11
  46   1     0.04  -0.06  -0.20    -0.00   0.00   0.01    -0.00  -0.00  -0.01
  47   1     0.05  -0.07  -0.28    -0.00   0.01   0.02     0.00  -0.00  -0.01
                     49                     50                     51
                        a                      a                      a 
 Frequencies --   767.9311               789.3007               822.8134
 Red. masses --     4.1942                10.6253                 3.4395
 Frc consts  --     0.0000                 0.0000                 0.0000
 IR Inten    --    24.5011                10.6306                 5.2810
 Raman Activ --     0.0000                 0.0000                 0.0000
 Depolar     --     0.0000                 0.0000                 0.0000
 Atom AN      X      Y      Z        X      Y      Z        X      Y      Z
   1   6     0.00  -0.00  -0.00    -0.09  -0.04   0.00    -0.02  -0.05  -0.09
   2   6    -0.00   0.00   0.00     0.13  -0.09   0.05    -0.03   0.04   0.13
   3   6    -0.00   0.00   0.00     0.10  -0.06   0.03    -0.07   0.12   0.29
   4   6     0.00  -0.00  -0.00    -0.03  -0.02  -0.00     0.03   0.01   0.00
   5   6    -0.00   0.00   0.00    -0.12  -0.07  -0.02    -0.02  -0.00   0.00
   6   7     0.01   0.01   0.03    -0.12   0.01   0.01     0.00  -0.02   0.00
   7   6     0.00  -0.01  -0.14    -0.08   0.03   0.02    -0.01   0.01   0.00
   8   6     0.01   0.00   0.17     0.07   0.05  -0.00    -0.00  -0.00  -0.01
   9   6    -0.01  -0.00  -0.15     0.14   0.00  -0.01     0.00  -0.01   0.00
  10   6    -0.01   0.01  -0.16     0.07  -0.27  -0.00    -0.00  -0.01  -0.00
  11   6    -0.01  -0.00  -0.18    -0.27   0.09   0.02     0.00   0.00  -0.00
  12   6    -0.03  -0.00  -0.22     0.06   0.16  -0.00     0.02  -0.00   0.00
  13   6     0.02  -0.00   0.24     0.08   0.08  -0.00     0.00   0.00  -0.01
  14   6    -0.00   0.01  -0.19     0.15  -0.07  -0.00    -0.01   0.01   0.01
  15   6    -0.00  -0.01   0.06     0.17  -0.10  -0.01     0.01   0.01  -0.02
  16   6    -0.00  -0.01   0.03    -0.19  -0.17  -0.00    -0.01  -0.01  -0.01
  17   6     0.00  -0.01   0.05    -0.07   0.25   0.02     0.00   0.00   0.00
  18   6     0.00  -0.00   0.05     0.15   0.03  -0.01    -0.00  -0.00   0.02
  19   6    -0.01   0.00  -0.01     0.07  -0.06  -0.00     0.01   0.02  -0.00
  20   6    -0.00  -0.01   0.07    -0.21   0.08  -0.02    -0.02  -0.01   0.01
  21   7    -0.00  -0.00  -0.02    -0.29  -0.13   0.01    -0.00   0.01  -0.02
  22   6     0.01   0.01   0.01     0.18   0.11   0.12     0.01   0.01   0.01
  23   6    -0.01  -0.00  -0.00     0.01  -0.05  -0.09    -0.00  -0.00  -0.01
  24   6    -0.01  -0.00  -0.00     0.05  -0.05  -0.10     0.00   0.00  -0.01
  25   6    -0.01  -0.01  -0.00    -0.10   0.00  -0.04     0.00   0.01   0.01
  26   6    -0.00  -0.00  -0.01    -0.04  -0.06   0.04     0.01  -0.00   0.01
  27   6     0.00   0.00  -0.00    -0.04  -0.06  -0.02     0.01   0.00   0.01
  28   6     0.00  -0.00  -0.00     0.03   0.12  -0.03     0.05  -0.08  -0.24
  29   6     0.00  -0.00  -0.00     0.03   0.17  -0.04     0.03  -0.03  -0.12
  30   1    -0.00   0.00   0.00    -0.02  -0.02  -0.01    -0.03   0.03   0.14
  31   1    -0.00  -0.00  -0.00     0.07   0.01   0.01     0.04  -0.08  -0.25
  32   1     0.00  -0.00  -0.00     0.02  -0.02   0.02     0.13  -0.20  -0.57
  33   1     0.02   0.00   0.30     0.00   0.04  -0.00     0.00  -0.00  -0.00
  34   1     0.03   0.01   0.46     0.07  -0.06  -0.01     0.00  -0.00   0.00
  35   1     0.04   0.01   0.46    -0.06   0.07  -0.00    -0.00  -0.00  -0.00
  36   1     0.03  -0.00   0.39     0.06  -0.01  -0.01     0.01  -0.00  -0.01
  37   1     0.00   0.01  -0.04     0.07   0.05  -0.01     0.00   0.00   0.03
  38   1    -0.00   0.01  -0.11    -0.04  -0.06  -0.02    -0.00  -0.00   0.02
  39   1    -0.00   0.01  -0.11     0.02   0.08   0.01     0.00   0.00  -0.00
  40   1    -0.00   0.02  -0.11     0.02  -0.05   0.01    -0.00   0.00  -0.03
  41   1     0.01   0.01   0.01     0.07   0.04   0.02     0.04   0.03   0.02
  42   1     0.01   0.01   0.01     0.12   0.03   0.06     0.01   0.00   0.00
  43   1     0.02   0.01   0.01     0.12   0.11   0.11    -0.01  -0.01  -0.01
  44   1     0.01   0.01   0.01     0.10   0.05   0.07    -0.01  -0.02  -0.01
  45   1     0.00   0.00   0.00     0.05   0.05   0.04    -0.02  -0.01  -0.01
  46   1    -0.00   0.00   0.00     0.00   0.03  -0.01    -0.07   0.11   0.43
  47   1    -0.00   0.00   0.00     0.06   0.04  -0.01    -0.04   0.08   0.30
                     52                     53                     54
                        a                      a                      a 
 Frequencies --   839.3489               855.9179               857.3701
 Red. masses --     3.8689                 4.2232                 3.7443
 Frc consts  --     0.0000                 0.0000                 0.0000
 IR Inten    --     9.5516                 2.8652                 9.0527
 Raman Activ --     0.0000                 0.0000                 0.0000
 Depolar     --     0.0000                 0.0000                 0.0000
 Atom AN      X      Y      Z        X      Y      Z        X      Y      Z
   1   6     0.00  -0.00  -0.00     0.04  -0.11  -0.36     0.00  -0.01  -0.04
   2   6    -0.01   0.01   0.01    -0.02   0.00   0.02    -0.00  -0.00   0.00
   3   6    -0.01   0.01   0.02    -0.02   0.05   0.16    -0.00   0.01   0.02
   4   6    -0.00  -0.00  -0.00     0.02  -0.03  -0.13     0.00  -0.00  -0.01
   5   6     0.00   0.01  -0.00    -0.00   0.01   0.03     0.00  -0.00   0.00
   6   7     0.00   0.00   0.00    -0.01   0.00   0.00    -0.01  -0.00  -0.01
   7   6     0.00  -0.00  -0.01    -0.00  -0.01  -0.01    -0.00   0.00   0.04
   8   6     0.00  -0.00  -0.01    -0.00   0.00   0.01    -0.01  -0.00  -0.05
   9   6     0.00   0.00   0.03    -0.00   0.00  -0.03     0.02   0.00   0.23
  10   6     0.00   0.01   0.02    -0.00  -0.00  -0.02     0.02   0.00   0.17
  11   6    -0.00   0.00   0.02    -0.00   0.00   0.00    -0.01   0.00  -0.02
  12   6    -0.01  -0.00  -0.08     0.01   0.00   0.04    -0.03   0.00  -0.36
  13   6     0.00  -0.00   0.06     0.00   0.00  -0.01     0.01  -0.00   0.06
  14   6    -0.00  -0.00  -0.09     0.00  -0.00   0.00     0.00   0.00  -0.03
  15   6    -0.00  -0.02   0.23     0.00  -0.00  -0.00    -0.00  -0.00   0.07
  16   6     0.02  -0.02   0.22     0.00  -0.00   0.01    -0.01   0.00  -0.11
  17   6    -0.00   0.02  -0.11    -0.00   0.00  -0.00     0.01  -0.01   0.02
  18   6    -0.01   0.04  -0.33    -0.00   0.00  -0.01     0.00  -0.01   0.07
  19   6    -0.00  -0.02   0.08    -0.00  -0.00   0.00     0.00   0.01  -0.03
  20   6     0.00  -0.00  -0.02    -0.00  -0.00  -0.00    -0.00   0.00   0.00
  21   7    -0.00  -0.00   0.01    -0.00   0.01   0.00    -0.00   0.00  -0.00
[...]
  14   6     0.00  -0.00  -0.00    -0.00  -0.00   0.00     0.00   0.00  -0.00
  15   6     0.00  -0.00  -0.00    -0.02   0.01   0.00    -0.00   0.00   0.00
  16   6    -0.01  -0.01  -0.00     0.09   0.08   0.00     0.00   0.00   0.00
  17   6    -0.01   0.04   0.00     0.04  -0.22  -0.02     0.00  -0.01  -0.00
  18   6     0.00  -0.00  -0.00    -0.02   0.00   0.00    -0.00   0.00  -0.00
  19   6     0.00  -0.00   0.00    -0.00   0.00   0.00    -0.00  -0.00  -0.00
  20   6    -0.00   0.00  -0.00    -0.00  -0.00  -0.00    -0.00   0.00   0.00
  21   7    -0.00  -0.00   0.00     0.00   0.00   0.00     0.00  -0.00  -0.00
  22   6     0.00  -0.00  -0.00     0.00  -0.00  -0.00    -0.00  -0.00   0.00
  23   6    -0.00   0.00   0.00    -0.00   0.00  -0.00    -0.00  -0.08   0.09
  24   6     0.02  -0.00  -0.02     0.00   0.00  -0.00     0.13  -0.03  -0.15
  25   6    -0.05   0.06   0.00    -0.01   0.01   0.00    -0.05   0.07  -0.00
  26   6    -0.01  -0.12   0.14    -0.00  -0.02   0.02    -0.00   0.01  -0.01
  27   6     0.10  -0.03  -0.12     0.02  -0.00  -0.02    -0.04   0.01   0.05
  28   6    -0.00   0.00  -0.00    -0.00  -0.00   0.00     0.00  -0.00   0.00
  29   6     0.00   0.00  -0.00     0.00   0.00  -0.00    -0.00  -0.00   0.00
  30   1     0.01   0.00   0.00     0.01   0.00   0.00     0.02   0.01   0.00
  31   1    -0.01   0.01  -0.00    -0.01   0.00  -0.00    -0.01   0.01  -0.01
  32   1     0.00  -0.00  -0.00    -0.00  -0.00   0.00     0.00   0.00  -0.00
  33   1    -0.00  -0.00   0.00     0.00   0.00  -0.00    -0.00  -0.00   0.00
  34   1    -0.00   0.01  -0.00     0.00  -0.02  -0.00    -0.00   0.00   0.00
  35   1     0.01  -0.00  -0.00    -0.04   0.01   0.00    -0.00   0.00   0.00
  36   1     0.00   0.00  -0.00    -0.02  -0.02   0.00     0.00   0.00  -0.00
  37   1    -0.01   0.00   0.00     0.10  -0.03  -0.00     0.00  -0.00  -0.00
  38   1     0.05   0.04   0.00    -0.35  -0.31  -0.01    -0.01  -0.01  -0.00
  39   1     0.03  -0.13  -0.01    -0.17   0.79   0.08    -0.00   0.02   0.00
  40   1    -0.02   0.01   0.00     0.10  -0.03  -0.01     0.00  -0.00   0.00
  41   1     0.00   0.00  -0.00    -0.00  -0.01   0.01     0.01   0.31  -0.35
  42   1    -0.07   0.01   0.08    -0.00   0.00   0.00    -0.47   0.11   0.56
  43   1     0.17  -0.23  -0.00     0.03  -0.03  -0.00     0.20  -0.27  -0.00
  44   1     0.02   0.44  -0.51     0.00   0.07  -0.08    -0.00  -0.03   0.03
  45   1    -0.38   0.09   0.45    -0.07   0.02   0.08     0.15  -0.04  -0.18
  46   1     0.00  -0.00   0.00    -0.00   0.00  -0.00    -0.00   0.00  -0.00
  47   1    -0.00  -0.00   0.00    -0.00  -0.01   0.00     0.00   0.00  -0.00
                    124                    125                    126
                        a                      a                      a 
 Frequencies --  3088.4778              3089.1069              3090.9505
 Red. masses --     1.8417                 1.8197                 1.8355
 Frc consts  --     0.0000                 0.0000                 0.0000
 IR Inten    --    32.4769                59.4250                12.3682
 Raman Activ --     0.0000                 0.0000                 0.0000
 Depolar     --     0.0000                 0.0000                 0.0000
 Atom AN      X      Y      Z        X      Y      Z        X      Y      Z
   1   6     0.01   0.00   0.00     0.00   0.00   0.00    -0.02  -0.01  -0.00
   2   6    -0.00   0.00  -0.00     0.00  -0.00   0.00    -0.00   0.00  -0.00
   3   6     0.00   0.00  -0.00    -0.00  -0.00   0.00     0.00   0.00  -0.00
   4   6     0.00   0.00   0.00     0.00   0.00   0.00    -0.00  -0.00  -0.00
   5   6    -0.00  -0.00   0.00    -0.00  -0.00  -0.00     0.00  -0.00   0.00
   6   7     0.00  -0.00  -0.00     0.00  -0.00   0.00    -0.00   0.00  -0.00
   7   6    -0.00  -0.00   0.00    -0.00   0.00  -0.00     0.00   0.00   0.00
   8   6    -0.00  -0.00   0.00    -0.00  -0.00   0.00    -0.00  -0.00   0.00
   9   6    -0.00  -0.00   0.00    -0.03  -0.02   0.00    -0.05  -0.04   0.00
  10   6    -0.00   0.00   0.00    -0.03   0.13   0.00    -0.04   0.19   0.00
  11   6     0.00   0.00  -0.00    -0.02   0.01   0.00    -0.09   0.03   0.01
  12   6     0.00   0.00  -0.00     0.06   0.05  -0.01     0.02   0.01  -0.00
  13   6    -0.00   0.00   0.00     0.00   0.00   0.00     0.00   0.00  -0.00
  14   6    -0.00   0.00   0.00    -0.00   0.00   0.00     0.00  -0.00  -0.00
  15   6    -0.00   0.00   0.00    -0.11   0.03   0.00     0.05  -0.01  -0.00
  16   6     0.00   0.00   0.00     0.11   0.10   0.00    -0.09  -0.08  -0.00
  17   6    -0.00   0.00   0.00    -0.02   0.11   0.01     0.01  -0.07  -0.01
  18   6    -0.00   0.00   0.00     0.01  -0.01  -0.00    -0.01   0.01   0.00
  19   6    -0.00  -0.00  -0.00     0.00  -0.00  -0.00    -0.00   0.00   0.00
  20   6     0.00  -0.00   0.00    -0.00  -0.00   0.00     0.00   0.00  -0.00
  21   7     0.00  -0.00  -0.00     0.00   0.00  -0.00     0.00   0.00   0.00
  22   6    -0.01   0.01  -0.00     0.00  -0.00   0.00    -0.00  -0.00   0.00
  23   6     0.01   0.07  -0.08    -0.00  -0.00   0.00     0.00   0.00  -0.00
  24   6    -0.03   0.01   0.03     0.00  -0.00  -0.00    -0.00   0.00   0.00
  25   6    -0.07   0.10  -0.00     0.00  -0.00  -0.00    -0.01   0.01   0.00
  26   6    -0.00  -0.08   0.09     0.00   0.00  -0.00     0.00   0.00  -0.00
  27   6    -0.12   0.03   0.14     0.00  -0.00  -0.00     0.00  -0.00  -0.00
  28   6    -0.00   0.00  -0.00    -0.00   0.00  -0.00     0.00   0.00   0.00
  29   6     0.00   0.00  -0.00     0.00   0.00  -0.00    -0.00  -0.00   0.00
  30   1    -0.02  -0.01  -0.00    -0.01  -0.01  -0.00     0.07   0.03   0.00
  31   1     0.00  -0.00   0.00    -0.00   0.00  -0.00     0.01  -0.01   0.00
  32   1    -0.00  -0.01   0.00     0.00   0.00  -0.00    -0.00  -0.00   0.00
  33   1     0.00   0.00  -0.00     0.11   0.09  -0.01     0.18   0.15  -0.01
  34   1     0.00  -0.00   0.00     0.10  -0.45  -0.00     0.15  -0.68  -0.00
  35   1    -0.00   0.00   0.00     0.07  -0.02  -0.01     0.28  -0.09  -0.02
  36   1    -0.01  -0.01   0.00    -0.22  -0.18   0.02    -0.07  -0.06   0.01
  37   1     0.01  -0.00  -0.00     0.40  -0.12  -0.01    -0.18   0.05   0.00
  38   1    -0.01  -0.01  -0.00    -0.40  -0.35  -0.02     0.31   0.28   0.01
  39   1     0.00  -0.01  -0.00     0.07  -0.36  -0.04    -0.05   0.25   0.03
  40   1     0.01  -0.00  -0.00    -0.07   0.02   0.01     0.05  -0.02  -0.00
  41   1    -0.01  -0.24   0.28     0.00   0.01  -0.02    -0.00  -0.01   0.01
  42   1     0.10  -0.02  -0.11    -0.00   0.00   0.00     0.00  -0.00  -0.00
  43   1     0.26  -0.35  -0.00    -0.01   0.02   0.00     0.02  -0.03  -0.00
  44   1     0.01   0.26  -0.31    -0.00  -0.01   0.01    -0.00  -0.01   0.01
  45   1     0.40  -0.09  -0.49    -0.00   0.00   0.01    -0.01   0.00   0.01
  46   1     0.00  -0.00   0.00     0.00  -0.00   0.00    -0.00   0.00  -0.00
  47   1    -0.00  -0.01   0.00    -0.00  -0.01   0.00     0.00   0.01  -0.00
                    127                    128                    129
                        a                      a                      a 
 Frequencies --  3093.1612              3095.5313              3099.2613
 Red. masses --     1.8704                 1.8685                 1.8770
 Frc consts  --     0.0000                 0.0000                 0.0000
 IR Inten    --    47.1872                 9.9651                 7.4177
 Raman Activ --     0.0000                 0.0000                 0.0000
 Depolar     --     0.0000                 0.0000                 0.0000
 Atom AN      X      Y      Z        X      Y      Z        X      Y      Z
   1   6     0.02   0.01   0.00    -0.23  -0.10  -0.01     0.00   0.00   0.00
   2   6     0.00  -0.00   0.00    -0.06   0.04  -0.02     0.00  -0.00   0.00
   3   6     0.00   0.01  -0.00     0.00  -0.01   0.01     0.00   0.00  -0.00
   4   6     0.00   0.00   0.00    -0.00  -0.00  -0.00    -0.00   0.00  -0.00
   5   6    -0.00  -0.00  -0.00     0.00   0.00   0.00     0.00  -0.00   0.00
   6   7     0.00  -0.00   0.00    -0.00  -0.00   0.00    -0.00   0.00  -0.00
   7   6    -0.00   0.00  -0.00     0.00  -0.00   0.00     0.00  -0.00   0.00
   8   6    -0.00   0.00   0.00     0.00   0.00  -0.00    -0.00   0.00  -0.00
   9   6    -0.00  -0.00   0.00     0.01   0.01  -0.00    -0.02  -0.02   0.00
  10   6     0.00  -0.00   0.00     0.00  -0.01  -0.00    -0.01   0.04  -0.00
  11   6     0.00  -0.00  -0.00     0.01  -0.00  -0.00    -0.07   0.02   0.01
  12   6     0.00   0.00  -0.00    -0.00  -0.00   0.00    -0.13  -0.11   0.01
  13   6    -0.00   0.00   0.00    -0.00  -0.00  -0.00     0.00  -0.01   0.00
  14   6    -0.00  -0.00   0.00     0.00   0.00   0.00     0.00  -0.01  -0.00
  15   6    -0.00   0.00   0.00    -0.01   0.00   0.00     0.14  -0.04  -0.00
  16   6     0.00   0.00   0.00     0.01   0.01   0.00     0.10   0.09   0.00
  17   6    -0.00   0.01   0.00    -0.00   0.01   0.00    -0.01   0.05   0.00
  18   6     0.00  -0.00   0.00     0.00  -0.00  -0.00     0.01  -0.00  -0.00
  19   6     0.00   0.00   0.00    -0.00  -0.00  -0.00    -0.00   0.00   0.00
  20   6     0.00  -0.00  -0.00     0.00   0.00  -0.00    -0.00  -0.00  -0.00
  21   7     0.00  -0.00   0.00    -0.00   0.00   0.00     0.00   0.00   0.00
  22   6    -0.00   0.00   0.00    -0.00   0.00  -0.00    -0.00   0.00  -0.00
  23   6     0.01   0.13  -0.15     0.00   0.02  -0.02     0.00   0.00  -0.00
  24   6     0.07  -0.02  -0.08     0.01  -0.00  -0.01     0.00  -0.00  -0.00
  25   6    -0.05   0.07   0.00     0.00  -0.00   0.00     0.00  -0.01  -0.00
  26   6     0.00   0.08  -0.09    -0.00   0.00  -0.00    -0.00  -0.00   0.00
  27   6     0.05  -0.01  -0.06    -0.00  -0.00   0.00    -0.00   0.00   0.00
  28   6    -0.00  -0.00   0.00    -0.01   0.01  -0.01    -0.00   0.00  -0.00
  29   6     0.00   0.01  -0.00    -0.01  -0.08   0.02     0.00   0.00  -0.00
  30   1    -0.06  -0.03  -0.00     0.81   0.35   0.02    -0.00  -0.00  -0.00
  31   1    -0.01   0.01  -0.00     0.18  -0.12   0.07    -0.00   0.00  -0.00
  32   1    -0.00  -0.03   0.01     0.01   0.06  -0.02    -0.00  -0.00   0.00
  33   1     0.00   0.00  -0.00    -0.03  -0.02   0.00     0.07   0.06  -0.00
  34   1    -0.00   0.01   0.00    -0.01   0.04   0.00     0.03  -0.13  -0.00
  35   1    -0.00   0.00   0.00    -0.02   0.01   0.00     0.21  -0.07  -0.02
  36   1    -0.00  -0.00   0.00     0.02   0.01  -0.00     0.47   0.39  -0.04
  37   1     0.01  -0.00  -0.00     0.04  -0.01  -0.00    -0.48   0.14   0.01
  38   1    -0.01  -0.01  -0.00    -0.03  -0.02  -0.00    -0.33  -0.29  -0.01
  39   1     0.00  -0.02  -0.00     0.01  -0.03  -0.00     0.03  -0.15  -0.02
  40   1    -0.00   0.00  -0.00    -0.01   0.00   0.00    -0.03   0.01   0.00
  41   1    -0.02  -0.45   0.51    -0.00  -0.06   0.07    -0.00  -0.01   0.01
  42   1    -0.23   0.05   0.27    -0.03   0.01   0.03    -0.01   0.00   0.01
  43   1     0.18  -0.24  -0.00    -0.01   0.02   0.00    -0.01   0.02   0.00
  44   1    -0.01  -0.27   0.31    -0.00  -0.00   0.00     0.00   0.01  -0.01
  45   1    -0.16   0.04   0.20     0.00  -0.00  -0.00     0.01  -0.00  -0.01
  46   1     0.00   0.00  -0.00     0.07  -0.05   0.02     0.00  -0.00   0.00
  47   1    -0.00  -0.02   0.01     0.04   0.25  -0.07    -0.00  -0.00   0.00
                    130                    131                    132
                        a                      a                      a 
 Frequencies --  3100.3571              3107.8632              3109.4186
 Red. masses --     1.9190                 1.8630                 1.8236
 Frc consts  --     0.0000                 0.0000                 0.0000
 IR Inten    --    28.5557                72.5088                 2.2630
 Raman Activ --     0.0000                 0.0000                 0.0000
 Depolar     --     0.0000                 0.0000                 0.0000
 Atom AN      X      Y      Z        X      Y      Z        X      Y      Z
   1   6     0.01   0.01   0.00    -0.00  -0.00  -0.00    -0.01  -0.00  -0.00
   2   6     0.00  -0.00   0.00    -0.00   0.00  -0.00    -0.00   0.00  -0.00
   3   6     0.00   0.01  -0.00    -0.00  -0.00   0.00    -0.00  -0.01   0.00
   4   6     0.00   0.00   0.00    -0.00   0.00  -0.00     0.00   0.00  -0.00
   5   6     0.00   0.00   0.00    -0.00   0.00  -0.00    -0.00  -0.00  -0.00
   6   7     0.00  -0.00   0.00     0.00   0.00   0.00     0.00  -0.00   0.00
   7   6    -0.00   0.00  -0.00    -0.00  -0.00   0.00    -0.00   0.00  -0.00
   8   6    -0.00  -0.00   0.00    -0.01   0.00   0.00    -0.00  -0.00   0.00
   9   6    -0.00  -0.00   0.00    -0.20  -0.17   0.01    -0.00  -0.00   0.00
  10   6    -0.00   0.00   0.00     0.02  -0.09  -0.00     0.00  -0.02   0.00
  11   6     0.00  -0.00  -0.00     0.02  -0.00  -0.00     0.04  -0.01  -0.00
  12   6     0.01   0.01  -0.00    -0.00  -0.00   0.00     0.14   0.11  -0.01
  13   6     0.00   0.00   0.00     0.00   0.00  -0.00     0.00   0.01  -0.00
  14   6     0.00  -0.00   0.00    -0.00   0.00   0.00     0.00  -0.00  -0.00
  15   6     0.00  -0.00  -0.00    -0.01   0.00   0.00     0.18  -0.05  -0.00
  16   6    -0.00  -0.00  -0.00    -0.00  -0.00  -0.00     0.05   0.04   0.00
  17   6     0.00  -0.00  -0.00     0.00  -0.00  -0.00    -0.00   0.02   0.00
  18   6    -0.01   0.00   0.00    -0.00   0.00   0.00     0.00  -0.00  -0.00
  19   6     0.00   0.00  -0.00     0.00   0.00  -0.00    -0.00   0.00   0.00
  20   6    -0.00  -0.00  -0.00    -0.00  -0.00  -0.00    -0.00  -0.00   0.00
  21   7     0.00  -0.00   0.00     0.00   0.00  -0.00     0.00   0.00  -0.00
  22   6    -0.00   0.00   0.00     0.00  -0.00  -0.00     0.00  -0.00  -0.00
  23   6     0.00   0.06  -0.07    -0.00  -0.00   0.00    -0.00  -0.00   0.00
  24   6     0.09  -0.02  -0.11    -0.00   0.00   0.00    -0.00   0.00   0.00
  25   6     0.12  -0.16  -0.00    -0.00   0.00   0.00    -0.00   0.00   0.00
  26   6    -0.00  -0.07   0.08     0.00   0.00  -0.00     0.00   0.00  -0.00
  27   6    -0.03   0.01   0.04     0.00  -0.00  -0.00     0.00  -0.00  -0.00
  28   6     0.00  -0.00   0.00    -0.02   0.01  -0.01    -0.01   0.01  -0.01
  29   6     0.00   0.01  -0.00     0.00   0.00  -0.00     0.00  -0.00   0.00
  30   1    -0.05  -0.02  -0.00     0.01   0.01   0.00     0.02   0.01   0.00
  31   1    -0.01   0.01  -0.00     0.00  -0.00   0.00     0.01  -0.00   0.00
  32   1    -0.00  -0.03   0.01     0.00   0.02  -0.01     0.00   0.03  -0.01
  33   1     0.01   0.01  -0.00     0.70   0.59  -0.05     0.01   0.01  -0.00
  34   1     0.00  -0.00  -0.00    -0.06   0.27   0.00    -0.01   0.06  -0.00
  35   1    -0.00   0.00   0.00    -0.06   0.02   0.00    -0.13   0.04   0.01
  36   1    -0.04  -0.03   0.00     0.01   0.01  -0.00    -0.49  -0.42   0.04
  37   1    -0.01   0.00   0.00     0.05  -0.01  -0.00    -0.63   0.19   0.02
  38   1     0.02   0.02   0.00     0.01   0.01   0.00    -0.15  -0.14  -0.01
  39   1    -0.00   0.01   0.00    -0.00   0.00   0.00     0.01  -0.05  -0.01
  40   1     0.02  -0.01  -0.00     0.00  -0.00  -0.00    -0.01   0.00   0.00
  41   1    -0.01  -0.21   0.23     0.00   0.01  -0.01     0.00   0.01  -0.01
  42   1    -0.29   0.07   0.35     0.00  -0.00  -0.00     0.01  -0.00  -0.01
  43   1    -0.40   0.53   0.00     0.00  -0.01  -0.00     0.01  -0.01  -0.00
  44   1     0.01   0.23  -0.27    -0.00  -0.00   0.00    -0.00  -0.01   0.01
  45   1     0.10  -0.02  -0.12    -0.00   0.00   0.00    -0.00   0.00   0.00
  46   1    -0.01   0.01  -0.00     0.07  -0.05   0.02     0.05  -0.04   0.02
  47   1    -0.00  -0.02   0.00    -0.00  -0.01   0.00     0.00   0.00  -0.00
                    133                    134                    135
                        a                      a                      a 
 Frequencies --  3115.0322              3122.3023              3127.1280
 Red. masses --     1.8457                 1.8258                 1.8260
 Frc consts  --     0.0000                 0.0000                 0.0000
 IR Inten    --    28.0405                31.3087                16.5454
 Raman Activ --     0.0000                 0.0000                 0.0000
 Depolar     --     0.0000                 0.0000                 0.0000
 Atom AN      X      Y      Z        X      Y      Z        X      Y      Z
   1   6     0.02   0.00   0.00    -0.01  -0.01   0.00     0.00   0.00   0.00
   2   6     0.00   0.00  -0.00    -0.03   0.03  -0.01     0.00  -0.00   0.00
   3   6     0.00   0.00  -0.00     0.03   0.25  -0.08     0.00  -0.00   0.00
   4   6    -0.01   0.00  -0.00     0.00   0.00  -0.00    -0.00  -0.00  -0.00
   5   6    -0.00   0.00  -0.00     0.00   0.00   0.00     0.00   0.00   0.00
   6   7    -0.00  -0.00   0.00    -0.00   0.00  -0.00    -0.00   0.00  -0.00
   7   6     0.00   0.00  -0.00     0.00  -0.00  -0.00     0.00  -0.00   0.00
   8   6     0.00  -0.00  -0.00    -0.00   0.00   0.00    -0.00   0.00  -0.00
   9   6     0.02   0.01  -0.00    -0.00  -0.00   0.00     0.00  -0.00  -0.00
  10   6    -0.00   0.01   0.00     0.00  -0.00  -0.00    -0.00   0.00   0.00
  11   6    -0.01   0.00   0.00     0.00  -0.00  -0.00     0.00  -0.00   0.00
  12   6    -0.01  -0.01   0.00     0.00   0.00  -0.00     0.00   0.00  -0.00
  13   6    -0.00  -0.00   0.00     0.00   0.00  -0.00     0.00  -0.00  -0.00
  14   6    -0.00   0.00   0.00     0.00  -0.00  -0.00    -0.00   0.00   0.00
  15   6    -0.01   0.00   0.00     0.00  -0.00  -0.00    -0.00  -0.00  -0.00
  16   6    -0.00  -0.00  -0.00     0.00   0.00   0.00    -0.01  -0.00  -0.00
  17   6     0.00  -0.00  -0.00    -0.00   0.00   0.00     0.01  -0.05  -0.00
  18   6    -0.01   0.00   0.00     0.00  -0.00  -0.00     0.25  -0.08  -0.02
  19   6     0.00   0.00  -0.00    -0.00  -0.00  -0.00     0.01   0.00  -0.00
  20   6    -0.00  -0.00   0.00     0.00   0.00  -0.00     0.00   0.00   0.00
  21   7     0.00   0.00  -0.00    -0.00  -0.00   0.00    -0.00  -0.00  -0.00
  22   6    -0.00  -0.00   0.00     0.00  -0.00   0.00     0.00   0.00  -0.00
  23   6     0.00  -0.00   0.00     0.00  -0.01   0.01     0.00   0.00  -0.00
  24   6     0.00  -0.00  -0.00    -0.00   0.00   0.00     0.00  -0.00  -0.00
  25   6     0.00  -0.00  -0.00    -0.00   0.00  -0.00     0.00  -0.00  -0.00
  26   6    -0.00  -0.00   0.00    -0.00   0.00  -0.00     0.00  -0.00   0.00
  27   6    -0.00   0.00   0.00     0.00   0.00  -0.00    -0.00   0.00   0.01
  28   6    -0.22   0.14  -0.07     0.00  -0.00   0.00    -0.00   0.00  -0.00
  29   6     0.01   0.05  -0.01    -0.00  -0.00  -0.00    -0.00   0.00  -0.00
  30   1    -0.04  -0.02  -0.00     0.03   0.02   0.00    -0.01  -0.00  -0.00
  31   1     0.00  -0.00  -0.00     0.10  -0.07   0.04    -0.00   0.00  -0.00
  32   1    -0.00  -0.01   0.00    -0.12  -0.90   0.29     0.00   0.01  -0.00
  33   1    -0.06  -0.05   0.00     0.01   0.01  -0.00    -0.00  -0.00   0.00
  34   1     0.01  -0.03  -0.00    -0.00   0.01   0.00     0.00  -0.00  -0.00
  35   1     0.02  -0.01  -0.00    -0.01   0.00   0.00    -0.00  -0.00  -0.00
  36   1     0.03   0.03  -0.00    -0.01  -0.01   0.00    -0.00  -0.00   0.00
  37   1     0.04  -0.01  -0.00    -0.01   0.00   0.00    -0.00   0.00   0.00
  38   1     0.01   0.01   0.00    -0.01  -0.01  -0.00     0.02   0.02   0.00
  39   1    -0.00   0.01   0.00     0.00  -0.00  -0.00    -0.03   0.13   0.01
  40   1     0.02  -0.01  -0.00    -0.01   0.00   0.00    -0.90   0.29   0.07
  41   1     0.00   0.00  -0.00     0.00   0.03  -0.03    -0.00  -0.01   0.01
  42   1    -0.00   0.00   0.00     0.01  -0.00  -0.01    -0.00   0.00   0.01
  43   1    -0.00   0.01   0.00     0.00  -0.01  -0.00    -0.00   0.01   0.00
  44   1     0.00   0.00  -0.00    -0.00  -0.00   0.00     0.00   0.01  -0.01
  45   1     0.00  -0.00  -0.00    -0.00  -0.00   0.00     0.01  -0.00  -0.01
  46   1     0.75  -0.51   0.26    -0.01   0.00  -0.00     0.01  -0.01   0.01
  47   1    -0.02  -0.14   0.04    -0.00  -0.00   0.00    -0.00  -0.01   0.00
