$hessian                                                                        
        0.5599405283  -0.0570105352   0.2106123247  -0.1263477098   0.1253497146
       -0.0001770265  -0.0305568339   0.0249403229  -0.0079149640   0.0060233277
       -0.0003696594   0.0061546736  -0.0331694647  -0.0180636556  -0.0234444249
       -0.1283271374  -0.1092449857  -0.0769727787  -0.0004514734   0.0035188972
       -0.0027076088  -0.0009635391  -0.0007316293  -0.0006585118   0.0012335022
       -0.0002799542   0.0007795294  -0.0008568338   0.0009668600  -0.0004344921
        0.0005454117  -0.0012736750   0.0003448348  -0.0021282493   0.0026218607
       -0.0002802897  -0.0040773228  -0.0015837258  -0.0021117215   0.0010075021
       -0.0002302782   0.0000391812  -0.0002694911  -0.0000487165  -0.0002546298
        0.0003814670  -0.0000810338   0.0000269720  -0.0004867550  -0.0001671816
        0.0000891996   0.0001106483  -0.0001296738   0.0000069287   0.0000556835
        0.0000330233   0.0000033725  -0.0000729023  -0.0000061819   0.0000074861
       -0.0000118376   0.0000399363  -0.0000300196   0.0000136190  -0.0000088071
       -0.0000014028   0.0000308907  -0.0000127286  -0.0000358523  -0.0001321894
        0.0000140104   0.0000858815   0.0000647718  -0.0001397066  -0.0000600698
       -0.0000052371   0.0000909121   0.0000206745   0.0000282115  -0.0000516316
       -0.0000281664  -0.0000400103   0.0001142432   0.0000402190   0.0001671416
       -0.0002129524  -0.0001339803  -0.0002960836   0.0000708183   0.0001918609
        0.0002129681   0.0000215480  -0.0001235040  -0.0000524661  -0.0000452135
        0.0000231192   0.0003186255   0.0000226990  -0.0001672869  -0.0002513534
        0.0000566242   0.0001289131  -0.0000866591  -0.0000081373   0.0000661146
        0.0000232771   0.0000043268   0.0000227866  -0.0002512358   0.0000191222
       -0.0000268344   0.0003460644   0.0002446783  -0.0000376183  -0.0003408411
        0.0000517017  -0.0000138970  -0.2489840984   0.0308694980  -0.1017486983
        0.0053725531  -0.0112558512  -0.0015776581  -0.0030415074   0.0020564643
       -0.0049445530   0.0056191692   0.0099083108   0.0053280470  -0.0000199308
       -0.0000396356  -0.0001484980  -0.0001231997   0.0000077072   0.0000274343
        0.0000271715  -0.0000419109  -0.0000353700  -0.0002055166  -0.0000277576
        0.0000760331  -0.0000250385  -0.0000116151   0.0000031132   0.0000035724
       -0.0000258820   0.0000104507   0.0000170633  -0.0000012139   0.0000101810
       -0.0000044750   0.0000000819   0.0000044841  -0.0000096864   0.0000058270
        0.0000038741  -0.0000013932   0.0000263807   0.0000135642   0.0000175277
        0.0000157953  -0.0000096912   0.0000079021   0.0000096913  -0.0000016088
        0.0000210265  -0.0000083686  -0.0000276096   0.0000079738  -0.0000059243
       -0.0000056955   0.0000011565   0.0000268896   0.0000047483  -0.0000082845
        0.0000102772  -0.0000115400
       -0.0570105352   0.5837672116   0.1203149324   0.0503220697  -0.2527326714
       -0.0436806853   0.0774183148   0.0039375202   0.0414652687  -0.0065139620
       -0.0396313199  -0.0153415955  -0.0557208984   0.0198803035  -0.0229097403
       -0.0463493717  -0.2252651675  -0.0775882872   0.0063664020   0.0025173397
        0.0018615146   0.0012080767   0.0026843056   0.0013775465  -0.0044926892
        0.0012781098  -0.0015595539   0.0016515620  -0.0012386371   0.0001210472
        0.0009699228  -0.0038630196  -0.0006655583   0.0001284533   0.0031362206
        0.0008642306   0.0010471055  -0.0008555645   0.0017352014   0.0005048964
       -0.0023358574  -0.0000198675  -0.0006061870   0.0027448595  -0.0008929109
        0.0014301545  -0.0011769249   0.0003374157   0.0006637845   0.0004228888
       -0.0001456195  -0.0013761661   0.0000706311  -0.0000366532   0.0014002068
        0.0002478604  -0.0001100993  -0.0008644316   0.0000571123  -0.0000801448
       -0.0000386857   0.0001168835   0.0003080870  -0.0021787367  -0.0007880177
        0.0001892290   0.0011639987   0.0010897196  -0.0003762122   0.0006138999
       -0.0003184002  -0.0002388997  -0.0000988037   0.0007680201   0.0001654850
        0.0001611267  -0.0007264030  -0.0002467795   0.0004225721  -0.0000523839
       -0.0003304886  -0.0004573602  -0.0000022119   0.0001436666  -0.0002887088
        0.0002392141   0.0003624593   0.0008869831   0.0000599159  -0.0004833625
       -0.0008541621  -0.0003133099   0.0004541879  -0.0000077194   0.0000074743
        0.0000748237  -0.0008048402   0.0004626416   0.0008112173   0.0007946143
       -0.0004598342  -0.0008267025  -0.0007162088   0.0004986795   0.0002387839
        0.0019013261   0.0002406863  -0.0004109665  -0.0016479910  -0.0005923309
        0.0002726635   0.0025120090  -0.0031636017   0.0007531879  -0.0020665840
        0.0024816875  -0.0005589917   0.0307502675  -0.0474843044   0.0114037356
        0.0085455296  -0.0235217269  -0.0024045155   0.0014548380   0.0018376491
       -0.0012742511  -0.0100377815  -0.0239405902  -0.0133187222   0.0001890949
        0.0001170943  -0.0000031011  -0.0002623464   0.0001505846   0.0000854351
       -0.0001154323  -0.0002257066  -0.0001189727  -0.0000742980   0.0001148954
        0.0001890407   0.0000774704  -0.0000322312   0.0001948314   0.0000047681
       -0.0000027465  -0.0001340033  -0.0000332638  -0.0000090393   0.0000636452
       -0.0000062679   0.0000118046  -0.0001339809  -0.0001567644   0.0001270759
        0.0001661980   0.0001165270   0.0000284591  -0.0000818783  -0.0000194918
       -0.0000187103   0.0000283596   0.0001339344   0.0000642059   0.0000350457
       -0.0001539240   0.0000235549   0.0000818165   0.0001298664  -0.0001106916
       -0.0001332449   0.0000208195  -0.0000977479   0.0000229805  -0.0000369829
       -0.0002254589  -0.0000162475
        0.2106123247   0.1203149324   0.2584339525  -0.0255469374  -0.0031497124
       -0.0613436015   0.0095942272   0.0140707997   0.0106702605   0.0031498474
       -0.0111749853  -0.0077015494  -0.0342652861  -0.0036919401  -0.0170361605
       -0.0581550246  -0.1111299219  -0.1077917217  -0.0021111605   0.0005237491
        0.0052876295   0.0001768365   0.0009661173   0.0003825170  -0.0010476614
        0.0004984171  -0.0008321226   0.0002116043  -0.0001231228   0.0004789290
        0.0004407936  -0.0015609411  -0.0010406596  -0.0003171380   0.0020267220
        0.0004661321  -0.0010373713  -0.0011781803  -0.0007033661   0.0006480728
       -0.0001918652  -0.0000250583  -0.0002885145   0.0000257633  -0.0000610699
        0.0003021041  -0.0001389145   0.0000467132   0.0000200444  -0.0004890657
        0.0000876868  -0.0007176539  -0.0000812026   0.0000581161   0.0004801182
        0.0006306221  -0.0001687978  -0.0004400310  -0.0000279879  -0.0000238983
       -0.0001844379   0.0005272010   0.0000540212  -0.0005887074  -0.0008364946
        0.0002173345   0.0006063911   0.0005520809  -0.0001987611   0.0002792607
       -0.0001191401  -0.0000883230  -0.0000340105   0.0003325139   0.0000767347
        0.0000629450  -0.0003439825  -0.0001101558   0.0002025606  -0.0000219881
       -0.0001574038  -0.0002298141   0.0000307925   0.0000945203  -0.0001083637
        0.0000577723   0.0001410094   0.0003291297   0.0000410798  -0.0001862650
       -0.0003360013  -0.0001386009   0.0001824703   0.0000107731  -0.0000242722
        0.0000169763  -0.0002636028   0.0002439743   0.0003194170   0.0002465137
       -0.0003120581  -0.0003328587  -0.0003298196   0.0002941951   0.0001057366
        0.0004817612  -0.0000302245  -0.0001608990  -0.0001138055  -0.0004539636
        0.0000831880   0.0005221109  -0.0001673718  -0.0000462581  -0.0005446560
        0.0004037942  -0.0000223814  -0.1016987133   0.0114818812  -0.0823309970
        0.0055156919  -0.0141118832  -0.0011338261  -0.0050160678  -0.0012849386
        0.0046282801  -0.0003584801  -0.0021135770  -0.0005346558  -0.0000448311
       -0.0000735707   0.0001504628  -0.0000685125   0.0000971880  -0.0001098920
       -0.0000600307  -0.0001131560   0.0000275306  -0.0000525582   0.0000010246
        0.0001200217   0.0000150704  -0.0000245792   0.0000068706  -0.0000027665
       -0.0000175316  -0.0000371257  -0.0000068233   0.0000023738   0.0000043034
        0.0000025727   0.0000090769  -0.0000422658  -0.0000481592   0.0000393576
        0.0000507722   0.0000340032   0.0000152970  -0.0000139829   0.0000037107
        0.0000036828   0.0000062940   0.0000485466   0.0000316304   0.0000098393
       -0.0000358201   0.0000172863   0.0000030740   0.0000355115  -0.0000387243
       -0.0000402667   0.0000090087  -0.0000143235   0.0000110920   0.0000112255
       -0.0000611057   0.0000524381
       -0.1263477098   0.0503220697  -0.0255469374   0.5195229791  -0.0484790217
        0.1994284446  -0.2513510730   0.0734423032  -0.0845866250  -0.0456204184
       -0.0575520236  -0.0425224127  -0.0173475963   0.0211986865   0.0005246918
        0.0350656098   0.0233412525   0.0254632205  -0.0067787157  -0.0088887430
       -0.0060174207   0.0015354747   0.0093603017   0.0034173867  -0.0056159560
        0.0007542891  -0.0023242256   0.0052712535   0.0039458950   0.0035381072
       -0.0042875279  -0.0074520461  -0.0043440722   0.0068298535  -0.0018252215
        0.0012633899   0.0136284992  -0.0036014997   0.0047937795  -0.0063475370
        0.0040898298  -0.0013235724   0.0022032680  -0.0025723677  -0.0003752664
       -0.0044988236   0.0015137312  -0.0003708235   0.0059161963  -0.0002401213
       -0.0002320959  -0.0039162424   0.0006428225  -0.0001879105  -0.0002687683
        0.0046177649  -0.0011417838   0.0003489891   0.0011231980  -0.0002882235
       -0.0030894190   0.0022048722   0.0007893392  -0.0031993470  -0.0052394880
        0.0011879045   0.0036691992   0.0036678496  -0.0009673899   0.0041145052
       -0.0013548394  -0.0022026820  -0.0010183917   0.0045940694   0.0016349001
        0.0007702146  -0.0042492624  -0.0012874748   0.0005141377   0.0003114122
       -0.0005309182  -0.0011057415  -0.0023604469   0.0000822080  -0.0033107447
        0.0038962038   0.0031014345   0.0069885968  -0.0006578676  -0.0045457784
       -0.0058209484  -0.0017731717   0.0032849651   0.0008257889   0.0004015631
       -0.0003372214  -0.0064743446   0.0012045587   0.0048177159   0.0054983250
       -0.0029235410  -0.0044994040  -0.0018090109   0.0024401601   0.0004993268
        0.0011880272  -0.0021867464  -0.0004008500   0.0061198122  -0.0026524085
        0.0004453880  -0.0045775074  -0.0007096596   0.0005575622   0.0035528355
       -0.0001837927   0.0014671951  -0.0145605452   0.0242619236  -0.0001963322
       -0.0945060086  -0.0857470875  -0.0611629082  -0.0131325284   0.0045651653
       -0.0062261336   0.0012163680  -0.0021312301  -0.0040215791   0.0002395295
       -0.0003799090  -0.0001032445   0.0001448356  -0.0000400556   0.0000708429
       -0.0000232752   0.0000010481  -0.0000029138  -0.0002568661   0.0003407558
       -0.0002975944  -0.0000001349   0.0003120012   0.0001630382  -0.0000715404
       -0.0001377835  -0.0001330503  -0.0000721009   0.0000154755  -0.0002806822
        0.0000507976   0.0000567286  -0.0000360618   0.0001140556  -0.0000753728
       -0.0000370754  -0.0000610947  -0.0000630663   0.0001154223   0.0001093082
        0.0001165757   0.0000515745   0.0001042389   0.0002105894  -0.0000305757
        0.0001207092   0.0002905216  -0.0002544028  -0.0001649939  -0.0000819912
        0.0000841673  -0.0000190498   0.0001132962   0.0003017469  -0.0000094463
        0.0002018506  -0.0002681092
        0.1253497146  -0.2527326714  -0.0031497124  -0.0484790217   0.5959037733
        0.1395423672   0.0042115595  -0.0935738285  -0.0156054713  -0.0093817414
        0.0259322301   0.0043327037   0.0233195586  -0.0073040956   0.0108355229
       -0.0284965497  -0.0646096238  -0.0359877361  -0.0012396748  -0.0028522504
       -0.0012600892  -0.0017060661   0.0001252890  -0.0008371721   0.0040497288
       -0.0010504078   0.0015724713  -0.0016842729   0.0043515136   0.0004369917
       -0.0006306408  -0.0019798226  -0.0005169459  -0.0011993118   0.0016891354
       -0.0004270834  -0.0053161384  -0.0057347064  -0.0074945249  -0.0002363264
        0.0027055488  -0.0005086316   0.0002791833  -0.0034569087   0.0010635094
       -0.0015193780   0.0012871307  -0.0002763673  -0.0000055899  -0.0012360915
        0.0002907788  -0.0001677928  -0.0004253667   0.0001083781  -0.0006296350
        0.0014581630  -0.0003400873   0.0001843873   0.0000459436   0.0000006433
       -0.0006779102   0.0011257438  -0.0000882060   0.0005826828  -0.0014064524
        0.0003480842   0.0004443539   0.0004879605  -0.0000854251   0.0005869216
       -0.0001566129  -0.0003206625  -0.0001447063   0.0006355176   0.0002503826
        0.0001117501  -0.0005953351  -0.0001837709  -0.0000147215   0.0000503840
       -0.0000107439  -0.0001025071  -0.0004417980  -0.0000013598  -0.0005345906
        0.0006056327   0.0004511312   0.0010898777  -0.0001147614  -0.0007390081
       -0.0008800593  -0.0003454451   0.0004948838   0.0001161633   0.0001076489
       -0.0000590524  -0.0011937688   0.0000270204   0.0007684645   0.0010479718
       -0.0000926412  -0.0006857123  -0.0001752660   0.0001334020  -0.0000008151
       -0.0007224871  -0.0005138327   0.0000292549   0.0021301418  -0.0006077950
       -0.0000320425  -0.0020663392   0.0029312679  -0.0006192046   0.0014788261
       -0.0017264260   0.0008603152   0.0039705315  -0.0049333161   0.0000600742
       -0.0848253894  -0.1859931679  -0.0987858405   0.0242196774  -0.0060192714
        0.0102521698  -0.0016239903  -0.0022489829  -0.0035737273  -0.0000215654
        0.0001293976   0.0000591331   0.0001102760  -0.0000687187   0.0000025878
        0.0000079866   0.0001041628   0.0000173317   0.0002450725   0.0000164542
       -0.0000324542  -0.0000178442   0.0000881531  -0.0000814929  -0.0000292181
       -0.0000353186   0.0000219910   0.0000055135   0.0000077232  -0.0000717632
        0.0000116290   0.0000019248   0.0000396898   0.0000658272  -0.0000514634
       -0.0000587245  -0.0000537168  -0.0000062647   0.0000560844   0.0000391183
        0.0000429835  -0.0000049220  -0.0000160817   0.0000373955  -0.0000249496
        0.0001000479   0.0000384556  -0.0000903229  -0.0000597390   0.0000020904
        0.0000504017  -0.0000017520   0.0000618316   0.0000423643   0.0000952917
        0.0001794989  -0.0000336886
       -0.0001770265  -0.0436806853  -0.0613436015   0.1994284446   0.1395423672
        0.2613990127  -0.1079212535   0.0208613566  -0.0923390537  -0.0276303541
       -0.0216349308  -0.0216566081   0.0011850561   0.0101427647  -0.0012046944
        0.0085832436  -0.0087531339   0.0032115017  -0.0039188201  -0.0054377111
       -0.0038274707   0.0003778996   0.0048941934   0.0015611776  -0.0017730232
        0.0000786663  -0.0006730831   0.0021540703   0.0033154497   0.0020733668
       -0.0023937663  -0.0043724446  -0.0027363507   0.0028288859  -0.0004208087
        0.0010456413   0.0031363991  -0.0064192517   0.0061396237  -0.0040764271
        0.0031791197  -0.0002465346   0.0011090482  -0.0019129513  -0.0000146929
       -0.0028996195   0.0010984096  -0.0003318576   0.0032725890  -0.0002332672
       -0.0000488687  -0.0019740044   0.0003699085  -0.0000588502  -0.0004402220
        0.0025549569  -0.0006610162   0.0004649733   0.0006894166  -0.0001521422
       -0.0018149419   0.0010697279   0.0004610974  -0.0016824974  -0.0027764809
        0.0005706073   0.0019455938   0.0019289430  -0.0004831055   0.0022290900
       -0.0007048438  -0.0012063873  -0.0005457604   0.0025024365   0.0008965120
        0.0004155819  -0.0023328923  -0.0006913066   0.0002723512   0.0001767607
       -0.0002851878  -0.0006017510  -0.0012985001   0.0000567616  -0.0018088209
        0.0021292641   0.0016863745   0.0038106476  -0.0003471492  -0.0024891668
       -0.0031692480  -0.0009958713   0.0017855017   0.0004613256   0.0002468561
       -0.0001929607  -0.0035650544   0.0006352909   0.0026363192   0.0030007699
       -0.0015913402  -0.0024366296  -0.0009127067   0.0012964883   0.0002435123
        0.0004415169  -0.0013889386  -0.0001645611   0.0038150630  -0.0012671728
        0.0002616059  -0.0032077718   0.0004050275   0.0000785076   0.0027005389
       -0.0006837863   0.0006277788  -0.0067730754   0.0107955990   0.0008067669
       -0.0619714435  -0.0981656097  -0.0977787374   0.0011199688   0.0000061425
        0.0013933784  -0.0038560001  -0.0040223917   0.0044937090   0.0000981264
       -0.0001739175  -0.0000141872   0.0001452820  -0.0000221646  -0.0000408030
       -0.0000025664   0.0000282022  -0.0000071518   0.0000229407   0.0001392484
       -0.0001196889  -0.0000091080   0.0001493526   0.0000207893  -0.0000388729
       -0.0000897165  -0.0000772898  -0.0000308761   0.0000087760  -0.0001669607
        0.0000287885   0.0000332174  -0.0000076768   0.0000832751  -0.0000576499
       -0.0000423369  -0.0000518241  -0.0000339017   0.0000777891   0.0000685388
        0.0000726750   0.0000238421   0.0000450288   0.0001168272  -0.0000221763
        0.0000959541   0.0001631947  -0.0001638033  -0.0001098256  -0.0000361302
        0.0000633045  -0.0000181123   0.0000773960   0.0001901491   0.0000337819
        0.0001456068  -0.0001196884
       -0.0305568339   0.0774183148   0.0095942272  -0.2513510730   0.0042115595
       -0.1079212535   0.5179480849  -0.0876246898   0.1840548069  -0.0948104623
       -0.0397373956  -0.0427178691   0.0199926093  -0.0216708794   0.0024150533
       -0.0224471760  -0.0236133068  -0.0180429478   0.0088772955   0.0143546669
        0.0063837860  -0.0001176981  -0.0093510180  -0.0030671069   0.0040869514
       -0.0002993693   0.0018302669  -0.0056994392  -0.0062524852  -0.0044757220
        0.0053924541   0.0064899003   0.0044246850  -0.0127638152   0.0051819522
       -0.0041877892  -0.0357224033  -0.0212484234  -0.0261475456   0.0090071665
       -0.0073356923   0.0015889114  -0.0037253497   0.0042305045  -0.0004841754
        0.0063968807  -0.0025240695   0.0004754037  -0.0072731494   0.0002026419
        0.0002838078   0.0041306131  -0.0009587933   0.0002865403   0.0009242224
       -0.0052368572   0.0012984516  -0.0009961116  -0.0014454378   0.0003452346
        0.0037202685  -0.0022012551  -0.0008571882   0.0030359312   0.0056915872
       -0.0012819342  -0.0038153740  -0.0038690740   0.0009553641  -0.0046049980
        0.0014445871   0.0025130337   0.0011655119  -0.0050997461  -0.0018674995
       -0.0008498045   0.0047251490   0.0014155407  -0.0004449157  -0.0003954086
        0.0004969693   0.0011121257   0.0027866391  -0.0000263125   0.0038101522
       -0.0045022613  -0.0035210921  -0.0079730822   0.0007998188   0.0052105786
        0.0065836458   0.0020272792  -0.0037125297  -0.0009603632  -0.0005301684
        0.0004060993   0.0075254750  -0.0011736044  -0.0054691129  -0.0063560171
        0.0030438332   0.0050339295   0.0017967433  -0.0025346298  -0.0004496556
       -0.0005689408   0.0028687251   0.0002970577  -0.0079616316   0.0027035335
       -0.0004749199   0.0066455258  -0.0001143995  -0.0003948141  -0.0051235008
        0.0012817151  -0.0017694888   0.0004484347   0.0035108541  -0.0021415777
       -0.0145667573   0.0005967288  -0.0086147413  -0.0925073366   0.1048556253
        0.0087576728  -0.0005297140  -0.0003802762  -0.0000956494  -0.0002687796
        0.0005064903   0.0000896820  -0.0002236233   0.0001063526   0.0000298460
       -0.0000068058  -0.0002543576  -0.0000104031  -0.0004053575   0.0003603164
       -0.0007628468   0.0000089763  -0.0003403504  -0.0001901166   0.0000672167
        0.0001699760   0.0001237743   0.0000580042  -0.0000065116   0.0003278147
       -0.0000543129  -0.0000770843   0.0000119929  -0.0001713384   0.0001276879
        0.0000933154   0.0001017358   0.0000889635  -0.0001478980  -0.0001271654
       -0.0001363892  -0.0000561118  -0.0000855076  -0.0002283914   0.0000464786
       -0.0001801084  -0.0003253971   0.0003046914   0.0002179485   0.0000719783
       -0.0001290566   0.0000596779  -0.0001571011  -0.0003485665   0.0001352947
       -0.0002325570   0.0002709091
        0.0249403229   0.0039375202   0.0140707997   0.0734423032  -0.0935738285
        0.0208613566  -0.0876246898   0.6225392187   0.1396303189  -0.0822585843
       -0.2307829916  -0.1099511482   0.0069723292  -0.0474850023  -0.0121268816
       -0.0116810990  -0.0026665913  -0.0062311988   0.0048449863  -0.0026564570
        0.0005156121  -0.0006052456  -0.0026734394  -0.0011495298   0.0005023148
       -0.0003827837   0.0002220041  -0.0012565621  -0.0013587333  -0.0009906069
        0.0017353060   0.0010101106   0.0010133990  -0.0007561867   0.0045586386
        0.0007783077  -0.0186577763   0.0005761305  -0.0093073559   0.0033148226
       -0.0015563992   0.0010731448  -0.0001000784   0.0009253448  -0.0005114069
        0.0019298135  -0.0007323354   0.0003953252  -0.0016509239  -0.0002984553
        0.0000885067   0.0003695765  -0.0002936646   0.0000505792   0.0006322974
       -0.0006328807   0.0001791490  -0.0006136492  -0.0002758767   0.0000713046
        0.0005688290  -0.0000933564  -0.0001067071  -0.0000770708   0.0004939124
       -0.0001130933  -0.0002101057  -0.0002824400   0.0000076411  -0.0006554698
        0.0001269474   0.0004059642   0.0002095214  -0.0007319982  -0.0002913188
       -0.0001187934   0.0006286585   0.0001927223   0.0000798340  -0.0000965877
       -0.0000414496   0.0000149386   0.0005809600   0.0000939668   0.0006830494
       -0.0008387585  -0.0005888339  -0.0013379489   0.0002181405   0.0008857950
        0.0010438802   0.0003254924  -0.0005879104  -0.0001547131  -0.0001780415
        0.0000699292   0.0013665303   0.0000297220  -0.0008522606  -0.0011907786
        0.0001692709   0.0007427369   0.0000362336  -0.0001664134   0.0000374253
        0.0004694404   0.0005833718  -0.0000595138  -0.0020931867   0.0001413448
       -0.0000530686   0.0023615994  -0.0006325980  -0.0000191035  -0.0022580356
        0.0009635110  -0.0003011517   0.0035396198  -0.0038521625  -0.0016374892
       -0.0198247273   0.0019241769  -0.0098144647   0.1048693677  -0.2479643379
       -0.0276445946  -0.0003786035   0.0004812468   0.0001091071  -0.0001783408
        0.0002741571   0.0000479492  -0.0001873045   0.0000222738  -0.0000669956
       -0.0000090196  -0.0000755869  -0.0000317129  -0.0000183610  -0.0000251858
        0.0008121853  -0.0000040496  -0.0001045185   0.0000217573   0.0000207816
       -0.0000083090   0.0000174946   0.0000126657   0.0000017942   0.0000584626
       -0.0000069365  -0.0000013222  -0.0000177630  -0.0000468464   0.0000314701
        0.0000297598   0.0000246682   0.0000357021  -0.0000162621  -0.0000098700
       -0.0000126800  -0.0000120972   0.0000052758  -0.0000228638   0.0000127230
       -0.0000249945  -0.0000387757   0.0000232931   0.0000454901   0.0000014428
       -0.0000326774   0.0000088026   0.0000029199  -0.0000371756  -0.0000546483
       -0.0000881038   0.0000750507
       -0.0079149640   0.0414652687   0.0106702605  -0.0845866250  -0.0156054713
       -0.0923390537   0.1840548069   0.1396303189   0.2554808122  -0.0586925110
       -0.0899101497  -0.1055142534   0.0121536548  -0.0263676485  -0.0024886804
       -0.0140739259  -0.0122441081  -0.0140621227   0.0040959057   0.0051952221
        0.0078548252  -0.0008348122  -0.0056598785  -0.0015082327   0.0028144747
       -0.0002149544   0.0008763427  -0.0034614964  -0.0033581269  -0.0026599921
        0.0032110685   0.0033606822   0.0039152762  -0.0079612563   0.0030442715
       -0.0002529730  -0.0220102522  -0.0085798205  -0.0177495219   0.0061784283
       -0.0043515824   0.0004250363  -0.0016662934   0.0035303781  -0.0011581657
        0.0038215641  -0.0019190882   0.0003868581  -0.0041993729   0.0003750424
        0.0001457453   0.0021712060  -0.0005261606   0.0001655519   0.0008535652
       -0.0031103155   0.0007583285  -0.0007418296  -0.0008161356   0.0001939396
        0.0021869993  -0.0013268205  -0.0004488639   0.0013374570   0.0032286063
       -0.0007382822  -0.0020333928  -0.0020348978   0.0005116466  -0.0024789272
        0.0007329986   0.0013462151   0.0006284074  -0.0027591382  -0.0010021317
       -0.0004413321   0.0025534605   0.0007532762  -0.0002409477  -0.0002299941
        0.0002654233   0.0005984779   0.0014930546  -0.0000167650   0.0020616090
       -0.0024310657  -0.0018981372  -0.0042549327   0.0004417959   0.0027898934
        0.0035127752   0.0010715058  -0.0019838411  -0.0005409396  -0.0002893121
        0.0002373917   0.0039666750  -0.0006595510  -0.0028960062  -0.0033040564
        0.0017855715   0.0026589574   0.0008996867  -0.0014379970  -0.0002157980
        0.0000427343   0.0017551191   0.0001232701  -0.0052642927   0.0014853377
       -0.0002180352   0.0047406720  -0.0009867278  -0.0000181996  -0.0039947111
        0.0012961494  -0.0010226842  -0.0020102443  -0.0017624605   0.0051599127
       -0.0146245586   0.0009502417  -0.0078773602   0.0082677988  -0.0268845288
       -0.0375960210  -0.0002835568   0.0000357512  -0.0002421269  -0.0002150608
        0.0003194239   0.0001237732  -0.0001378007   0.0000809411  -0.0000831240
        0.0000768152  -0.0000910512  -0.0001817316  -0.0016190514   0.0004464991
       -0.0008365746   0.0000036058  -0.0002511319  -0.0000957800   0.0000477571
        0.0000796825   0.0000717092   0.0000315985  -0.0000130990   0.0001943869
       -0.0000312671  -0.0000424191  -0.0000045713  -0.0001050748   0.0000782722
        0.0000593506   0.0000604990   0.0000577047  -0.0000835384  -0.0000670293
       -0.0000704729  -0.0000316628  -0.0000393904  -0.0001168706   0.0000243143
       -0.0000968745  -0.0001807951   0.0001639904   0.0001312291   0.0000308189
       -0.0000815082   0.0000167493  -0.0000884864  -0.0002002275  -0.0000394408
       -0.0002038591   0.0001494787
        0.0060233277  -0.0065139620   0.0031498474  -0.0456204184  -0.0093817414
       -0.0276303541  -0.0948104623  -0.0822585843  -0.0586925110   0.4889392981
        0.0135289011   0.1956917135  -0.0979837021   0.0829267602   0.0031308444
       -0.0295166971   0.0231557576  -0.0076544130   0.0028871590  -0.0039589513
       -0.0014650784  -0.0028266172   0.0008154341  -0.0024192312  -0.0021426293
        0.0011724027  -0.0007464155   0.0023540219   0.0010634951   0.0013752705
       -0.0007472074  -0.0015459669  -0.0029034316  -0.0134317448  -0.0415458359
       -0.0211751794  -0.1858485216  -0.0046847615  -0.0693725477  -0.0337900620
        0.0169710200  -0.0086003241   0.0030534516  -0.0069198623   0.0000969693
       -0.0066572001   0.0021923092  -0.0008665589   0.0065057890  -0.0004025495
        0.0000828546  -0.0026463935   0.0014670166  -0.0003324531  -0.0001775572
        0.0021548013  -0.0005980670   0.0005289152   0.0006976971  -0.0001900864
       -0.0015209056   0.0006215133   0.0004978784  -0.0012512446  -0.0020482809
        0.0004187424   0.0013290128   0.0013265785  -0.0002670988   0.0017507371
       -0.0004051851  -0.0009185335  -0.0003544587   0.0020381114   0.0006746294
        0.0003302129  -0.0019439391  -0.0005396530   0.0002943892   0.0000985992
       -0.0002711827  -0.0005508892  -0.0009844571   0.0001403896  -0.0014871556
        0.0017445447   0.0013524264   0.0031380723  -0.0002623817  -0.0020422458
       -0.0026767078  -0.0008659571   0.0014672555   0.0003397004   0.0002680222
       -0.0001430473  -0.0031136052   0.0007015974   0.0022253119   0.0023857151
       -0.0016343388  -0.0019124714  -0.0003449438   0.0010671637  -0.0000717707
        0.0000365634  -0.0015607120  -0.0000786825   0.0045448095  -0.0007973689
        0.0002448442  -0.0059353462   0.0012451598   0.0004768651   0.0077635374
       -0.0003633811  -0.0003418906   0.0009515860  -0.0001399594   0.0003150489
       -0.0033666702   0.0013565861  -0.0048153296   0.0059262326   0.0098950019
        0.0070962000  -0.0023761130   0.0014245721  -0.0048309767  -0.0000792988
        0.0002709578  -0.0001218601  -0.0001369034  -0.0001139703   0.0000482730
        0.0000114173   0.0001345813   0.0003400363   0.0005895472  -0.0000893899
        0.0001793652   0.0000561348  -0.0001109305   0.0003023996   0.0000019182
       -0.0001132309  -0.0000459151  -0.0000015362   0.0000020116  -0.0002017161
       -0.0000103266   0.0000342935   0.0000130033   0.0001147612  -0.0000780061
       -0.0000688826  -0.0000677701  -0.0000031719   0.0000792557   0.0000573934
        0.0000505127   0.0000138020  -0.0000029318   0.0000622066  -0.0000185506
        0.0001473104   0.0001486733  -0.0001536965  -0.0001188484   0.0000022994
        0.0000728216  -0.0001068873   0.0000494981   0.0002212264  -0.0003592583
        0.0000387961  -0.0002171196
       -0.0003696594  -0.0396313199  -0.0111749853  -0.0575520236   0.0259322301
       -0.0216349308  -0.0397373956  -0.2307829916  -0.0899101497   0.0135289011
        0.6304474252   0.1636389633   0.0574737745  -0.2155272951  -0.0136381134
        0.0486237040   0.0061049191   0.0280097263  -0.0196043988  -0.0608145737
       -0.0278736090  -0.0033514134   0.0125513425   0.0012398778  -0.0000986767
       -0.0022668069  -0.0006180493   0.0023396186   0.0117274695   0.0041745949
       -0.0058304888  -0.0172772487  -0.0082136979  -0.0190229508  -0.0115522418
       -0.0138786862   0.0122629034  -0.0917940556  -0.0037967153   0.0103648059
        0.0128871409   0.0079329452   0.0037646109  -0.0080271401   0.0003477519
       -0.0075513775   0.0034394999  -0.0013292336   0.0062965284  -0.0016151984
        0.0002417067  -0.0036978967   0.0005551020  -0.0000190338  -0.0019960956
        0.0062939546  -0.0015609004   0.0014676720   0.0013973703  -0.0002931811
       -0.0042094910   0.0030827571   0.0006732647  -0.0016258327  -0.0065624823
        0.0015006667   0.0036746792   0.0037611501  -0.0008734605   0.0046063048