$hessian                                                                        
        0.4190091852   0.0171756417  -0.0271683092  -0.1875938278   0.0058589582
       -0.0562651101  -0.0152338807   0.0215675410  -0.0042504575   0.0000986535
        0.0018284199  -0.0007552717  -0.0010215483  -0.0003847803  -0.0009676583
        0.0001647230   0.0002659132   0.0000091493  -0.0002865332   0.0014924078
       -0.0004280325   0.0009096006  -0.0034785846   0.0012738933  -0.0003661854
       -0.0004586071  -0.0001778230   0.0002669033   0.0003613703   0.0001211350
       -0.0000635184  -0.0002473349   0.0000064767   0.0001307255   0.0000239202
        0.0000626675  -0.0000103125   0.0000727364  -0.0000116892  -0.0000987038
        0.0000496701  -0.0000340188   0.0000240112   0.0000027503  -0.0000133443
        0.0001781097   0.0000719814   0.0000652194  -0.0000743402  -0.0004086032
        0.0000390428   0.0003848144   0.0002395676  -0.0001203442  -0.0004155540
       -0.0000105015   0.0000786819   0.0000623244   0.0002381426  -0.0001484668
        0.0002896099  -0.0000086697  -0.0000529493  -0.0001009870  -0.0000802011
        0.0000420773  -0.0003575705  -0.0000973652   0.0000898000   0.0003043810
       -0.0001488534  -0.0000361583  -0.0000604634   0.0002336143   0.0000191036
        0.0001714751   0.0001084858  -0.0001024922  -0.0005050273   0.0005726729
        0.0001388281   0.0004585354  -0.0003405909  -0.0001396073  -0.0000282705
       -0.0000016167   0.0000227316   0.0002167245  -0.0004943469  -0.0000613098
       -0.0003882088   0.0002051399   0.0001644442  -0.0001038107  -0.0003699067
        0.0000522780  -0.0001928904   0.0005245616   0.0000615660  -0.0001621691
       -0.0007937271   0.0000549282   0.0002985918   0.0005441675  -0.0001185410
        0.0000420072  -0.0000301476  -0.0000002466   0.0002231958   0.0000310197
       -0.0000660501   0.0001868190  -0.0002795592  -0.0000622417   0.0000135806
        0.0002219923  -0.0000066300  -0.0003522629   0.0001671462  -0.0001373620
       -0.0000149186  -0.0004594670   0.0006598076  -0.0000476497   0.0002202956
       -0.0003354246  -0.1365340215  -0.0592365413   0.0959113731  -0.0391316765
       -0.0048631359  -0.0091140866  -0.0404397102   0.0194562079   0.0013769023
        0.0002036078   0.0003800999   0.0001036538  -0.0000308183   0.0003038788
        0.0001410860   0.0000887660  -0.0000963002   0.0000874660  -0.0000041473
       -0.0000847935  -0.0000238544   0.0000244108   0.0000221039  -0.0000361606
       -0.0000044307  -0.0000162748   0.0000072839   0.0000007647  -0.0000114721
        0.0000071331   0.0000151808   0.0000113256   0.0000073995  -0.0000014843
        0.0000285957   0.0000035101  -0.0000212287   0.0000418946  -0.0000049822
        0.0000063819   0.0000269848   0.0000138980  -0.0000018653   0.0000072230
        0.0000144595   0.0000024545   0.0000286302   0.0000172208  -0.0000094473
        0.0000245487  -0.0000205127   0.0000295366  -0.0000228062  -0.0000014361
       -0.0000080879   0.0000100494  -0.0000081388  -0.0000088416  -0.0000010859
       -0.0000023394  -0.0000111524   0.0000124723   0.0000225123  -0.0000438225
        0.0000123899  -0.0000056980  -0.0000015149  -0.0000446931  -0.0000038223
       -0.0000220984   0.0000208728  -0.0000070581  -0.0000520933   0.0000045723
        0.0000118991
        0.0171756417   0.5269866660   0.0071789105  -0.0082855459  -0.0698380370
       -0.0035223387   0.0356694091  -0.0111010048   0.0142484161  -0.0001920981
       -0.0042599643  -0.0002047776   0.0016375082  -0.0013769285   0.0006616530
       -0.0001638047   0.0010344094  -0.0000558819   0.0012229920   0.0006237982
        0.0004328987   0.0013164478   0.0001356773   0.0005905905  -0.0002246833
       -0.0001109337  -0.0000926798   0.0001551297   0.0003126871   0.0000357602
       -0.0002364821  -0.0000945148  -0.0000711871   0.0002131102   0.0000022398
        0.0000716204  -0.0000195803   0.0000452110  -0.0000075774   0.0002318987
       -0.0000261407   0.0000855260  -0.0001637377  -0.0003312108  -0.0000436259
        0.0002904865   0.0003757012   0.0001127240   0.0001846379  -0.0008792654
        0.0000358327  -0.0002675128  -0.0001737232   0.0001062314  -0.0000763641
        0.0004323206  -0.0003175030   0.0006141923  -0.0002011239   0.0000985211
       -0.0005291148  -0.0001229496   0.0000364664   0.0003751061  -0.0000861055
        0.0001769360   0.0001002572   0.0000361173  -0.0000386891  -0.0001557330
       -0.0000135340   0.0000192722  -0.0000012547  -0.0000603503   0.0000014552
       -0.0000833980  -0.0000962525   0.0000424366   0.0002148207  -0.0001547720
       -0.0000655332  -0.0001937098   0.0001210604   0.0000601007   0.0000352848
        0.0000134630  -0.0000170303   0.0000103799   0.0001210401  -0.0000003531
        0.0001160474   0.0001058680  -0.0000446207   0.0001219554  -0.0000194718
       -0.0000511341   0.0000779378  -0.0000779285  -0.0000319724   0.0001023916
        0.0001956363  -0.0000404392  -0.0000932672  -0.0001610568   0.0000395450
        0.0000030798   0.0000253343  -0.0000015121  -0.0001026032   0.0000123570
        0.0000414849  -0.0000438738   0.0000486642   0.0000138865  -0.0000750286
       -0.0000530214   0.0000423775  -0.0003290582   0.0001707826  -0.0001368841
       -0.0000568243  -0.0001083987   0.0000801107   0.0000405564   0.0000436113
       -0.0000706705  -0.0584320189  -0.0784721213   0.0553451773  -0.0047543620
       -0.0790749621  -0.0808450076   0.0131392274  -0.2819175096   0.0055553899
       -0.0000115346  -0.0000310902  -0.0000256424   0.0002112385  -0.0003730987
        0.0000978552   0.0011933004  -0.0015791673   0.0004695776   0.0000253038
       -0.0000094504   0.0000074318   0.0000004423  -0.0000100400   0.0000005554
       -0.0000064559  -0.0000018008   0.0000024483  -0.0000033659  -0.0000035373
       -0.0000079178   0.0000100321  -0.0000116446   0.0000037847   0.0000019018
       -0.0000155732  -0.0000065928   0.0000111302   0.0000102680   0.0000124539
        0.0000026192  -0.0000024037  -0.0000034279  -0.0000054129   0.0000099352
       -0.0000019019  -0.0000003856  -0.0000093825  -0.0000060654   0.0000026327
       -0.0000083358   0.0000050843  -0.0000002648   0.0000018169  -0.0000011982
       -0.0000030490   0.0000005753   0.0000054994  -0.0000073008   0.0000008143
       -0.0000013667   0.0000016643  -0.0000001587  -0.0000111773   0.0000090591
        0.0000026798   0.0000089064  -0.0000060877   0.0000030147   0.0000041909
        0.0000031223  -0.0000109250   0.0000014157   0.0000029673   0.0000061403
       -0.0000078189
       -0.0271683092   0.0071789105   0.4779720918  -0.0566916433   0.0021974464
       -0.0687306963  -0.0038537123   0.0084647493  -0.0059789637  -0.0008586831
        0.0006683215   0.0018137262  -0.0009328218  -0.0001652230   0.0010131446
       -0.0000026616   0.0001063595   0.0000962670  -0.0003546042   0.0006222591
        0.0006189920   0.0012964524  -0.0014063128  -0.0016488365  -0.0002140224
       -0.0002219560   0.0000347359   0.0001631225   0.0001781767  -0.0000288329
       -0.0000111362  -0.0001262013  -0.0000242205   0.0000573635   0.0000070453
       -0.0000062254  -0.0000161498   0.0000252304   0.0000191218  -0.0000357060
        0.0000174455   0.0000005461  -0.0000051418  -0.0000082663   0.0000181224
        0.0000928167   0.0000458671  -0.0000188904   0.0000888409  -0.0001334978
       -0.0002643436   0.0001620523   0.0000972600  -0.0000139290  -0.0002182260
        0.0001848871  -0.0000264691   0.0002419342  -0.0000571338   0.0000114759
        0.0000664475  -0.0000562444   0.0001019307  -0.0001013182  -0.0000713024
       -0.0000277644  -0.0000321632  -0.0000022518   0.0000064548   0.0000866298
       -0.0000448625  -0.0000067360  -0.0000082735   0.0000740465  -0.0000059639
        0.0000455176   0.0000361497  -0.0000312015  -0.0001576094   0.0002114365
        0.0000398273   0.0001530126  -0.0001097760  -0.0000497321  -0.0000190386
       -0.0000075448   0.0000157993   0.0000755739  -0.0001844878  -0.0000116236
       -0.0001312796   0.0000996209   0.0000548833  -0.0000105866  -0.0001487974
        0.0000161437  -0.0000798771   0.0001936407   0.0000255470  -0.0000482051
       -0.0002932703   0.0000246820   0.0001017737   0.0002098970  -0.0000419716
        0.0000285607  -0.0000248570  -0.0000004982   0.0000701807   0.0000044423
       -0.0000433957   0.0000693081  -0.0000941648  -0.0000279134  -0.0000070566
        0.0000564454   0.0000193508  -0.0003201107  -0.0000286844  -0.0001318264
       -0.0000132113  -0.0001776032   0.0003414079  -0.0000659973   0.0001142629
       -0.0001554456   0.0951523703   0.0561341892  -0.1316313822  -0.0081802505
       -0.0819959231  -0.2294132947   0.0013710740   0.0080386516  -0.0435500527
        0.0000934245   0.0001597350   0.0000249397   0.0001065508   0.0001793946
       -0.0003394407   0.0000656658   0.0000222783  -0.0001159762  -0.0000163063
       -0.0000326889   0.0000484458   0.0000098954   0.0000104466  -0.0000114504
        0.0000056920   0.0000004204   0.0000009595  -0.0000048348  -0.0000096733
       -0.0000018930   0.0000049888   0.0000081657   0.0000017657   0.0000074099
        0.0000068624  -0.0000183107  -0.0000037289   0.0000097032  -0.0000195450
       -0.0000006524   0.0000066442   0.0000113282  -0.0000000031   0.0000006475
        0.0000072517   0.0000028737   0.0000118147   0.0000099251  -0.0000015456
        0.0000098158  -0.0000075844   0.0000145855  -0.0000077601   0.0000002639
       -0.0000024410   0.0000064622  -0.0000015599  -0.0000007987  -0.0000007176
       -0.0000030146  -0.0000060677   0.0000103062   0.0000098040  -0.0000170727
        0.0000031975  -0.0000005356   0.0000000246  -0.0000142090   0.0000012204
       -0.0000093497   0.0000094511   0.0000092339  -0.0000335462   0.0000013232
        0.0000201315
       -0.1875938278  -0.0082855459  -0.0566916433   0.3696420622  -0.0748335526
        0.1219796266  -0.0857334431   0.0477833525  -0.0193331713  -0.0253438108
        0.0425354318  -0.0109247595  -0.0046031416  -0.0031617901  -0.0033911138
        0.0005775256   0.0017947147   0.0002792382  -0.0015676790  -0.0028371406
       -0.0030258079   0.0100720595  -0.0117715230   0.0011947522   0.0003636869
       -0.0004515253   0.0000914177  -0.0001509188  -0.0003630022  -0.0000950292
       -0.0007259607   0.0004297734  -0.0002814486   0.0004413208   0.0001529921
        0.0001294227  -0.0000057673  -0.0001452352   0.0000338772   0.0007493929
       -0.0000645687   0.0002594476  -0.0003771722  -0.0006310711  -0.0000003031
       -0.0002534147   0.0004039650   0.0000650364  -0.0001792486  -0.0002138319
        0.0001792444  -0.0007560099  -0.0009275204   0.0005930983   0.0009580466
        0.0004708201  -0.0004581209  -0.0000629720  -0.0006973127   0.0004067789
       -0.0008404893   0.0003201238  -0.0001423452   0.0004712971  -0.0000434744
        0.0001823967   0.0007944139   0.0002297088  -0.0001935350  -0.0008256831
        0.0003967668   0.0001068960   0.0001621452  -0.0006571750  -0.0000469459
       -0.0005121089  -0.0002998078   0.0002580981   0.0014665944  -0.0016135461
       -0.0004217165  -0.0014199184   0.0009741113   0.0004500941   0.0001507784
        0.0000407790  -0.0000686537  -0.0005104165   0.0013402860   0.0001403586
        0.0009817166  -0.0004339030  -0.0003875867   0.0003015878   0.0009067713
       -0.0001296851   0.0004535089  -0.0013009775  -0.0001528757   0.0004475665
        0.0019937555  -0.0002315914  -0.0008376205  -0.0014675504   0.0003365711
       -0.0000034963   0.0001284215   0.0000039361  -0.0005226841  -0.0000611363
        0.0002024210  -0.0003292420   0.0006025149   0.0000690784  -0.0001262555
       -0.0006156218   0.0000258615   0.0007935765   0.0000198596   0.0000915949
       -0.0000273534   0.0005235615  -0.0008767256   0.0001161665  -0.0001806229
        0.0003809169  -0.0449584226   0.0011893627  -0.0085386059  -0.0194492788
       -0.0020577758  -0.0186708608  -0.0113384889   0.0084529329  -0.0047909460
        0.0012583382   0.0000924067   0.0014664745  -0.0008915956   0.0013125073
       -0.0004618754  -0.0005031133   0.0010573173   0.0004753377   0.0000359721
        0.0000436547   0.0000618777   0.0000375272   0.0000195689  -0.0000283229
       -0.0000132720   0.0000150015  -0.0000226316  -0.0000340427   0.0000101212
        0.0000125548  -0.0000085720   0.0000169343  -0.0000162015  -0.0000417072
       -0.0000566992  -0.0000229395   0.0000122240   0.0000743583  -0.0000294007
        0.0000051390  -0.0000452310  -0.0000363309  -0.0000222015   0.0000407182
        0.0000168371   0.0000023658  -0.0000510857  -0.0000087389   0.0000198694
       -0.0000529545   0.0000019472   0.0000520224  -0.0000049670  -0.0000127724
       -0.0000093610   0.0000082914   0.0000188419   0.0000044354  -0.0000163744
       -0.0000024445   0.0000418267  -0.0000086879  -0.0000363786   0.0000400735
        0.0000023750   0.0000041011  -0.0000097603  -0.0000162948   0.0000089238
        0.0000238679  -0.0000393325   0.0000016450   0.0001113427   0.0000235780
        0.0000028037
        0.0058589582  -0.0698380370   0.0021974464  -0.0748335526   0.3862120843
       -0.0267203492   0.0252996230  -0.2393927696   0.0069237756   0.0282831846
       -0.0166740522   0.0117027679   0.0003421770   0.0078831530   0.0000625002
        0.0023551294  -0.0071241269   0.0006929666  -0.0094844644  -0.0021590272
       -0.0033365081   0.0049328991  -0.0612975011   0.0013697842   0.0008432011
       -0.0015084548   0.0003484261   0.0002561338   0.0000483945   0.0001914882
        0.0022802929  -0.0004911716   0.0007194734  -0.0016135875  -0.0004565020
       -0.0006227029   0.0000361211   0.0002311422  -0.0000538719  -0.0023416127
        0.0001144884  -0.0007462802   0.0016714024   0.0022761924   0.0003752111
       -0.0004945778  -0.0026634918  -0.0004894874  -0.0011895062   0.0038123527
       -0.0002552205   0.0028039698   0.0024948907  -0.0014330919  -0.0008151546
       -0.0031821935   0.0027356353  -0.0028367749   0.0026256221  -0.0015811448
        0.0037832529   0.0002798953  -0.0000311913  -0.0025257122  -0.0004299222
       -0.0008342879  -0.0026833057  -0.0007718862   0.0007490493   0.0029362294
       -0.0011321421  -0.0004410261  -0.0005250426   0.0022249694   0.0001258009
        0.0018282772   0.0011972711  -0.0008528598  -0.0053110667   0.0055257881
        0.0015537932   0.0052025095  -0.0034720852  -0.0016378653  -0.0005987844
       -0.0001964418   0.0002480261   0.0015744848  -0.0045161143  -0.0004371312
       -0.0034513859   0.0009425541   0.0012764851  -0.0013782213  -0.0027303406
        0.0005556075  -0.0015860325   0.0043309608   0.0005530849  -0.0018224512
       -0.0069332524   0.0010045463   0.0030730959   0.0053033373  -0.0012687456
       -0.0000722708  -0.0005258898   0.0000445225   0.0019150932   0.0002316598
       -0.0008154557   0.0010201881  -0.0020634543  -0.0002729899   0.0006792075
        0.0021036289  -0.0001934943  -0.0005595128  -0.0006170791   0.0001658035
        0.0004066321  -0.0012136116   0.0020205437  -0.0005412428   0.0008515887
       -0.0010623427  -0.0076479715   0.0042699185  -0.0056247995  -0.0097217553
        0.0041866300  -0.0012656632   0.0334431852  -0.0091184200   0.0131340619
       -0.0000360546   0.0005008015   0.0001799019   0.0000859481  -0.0001788394
        0.0000233071   0.0016124478   0.0012413038   0.0005572854  -0.0002058482
        0.0000855607  -0.0000887576  -0.0002387875  -0.0001195059   0.0002078111
        0.0000835235  -0.0000284436   0.0000370701   0.0001161596  -0.0000269783
       -0.0000344519   0.0000261451  -0.0001263926   0.0000206764   0.0002427306
        0.0000563765   0.0000366862  -0.0000364810  -0.0005385873   0.0001127166
       -0.0000482464   0.0000982030   0.0001134498   0.0001177340  -0.0002196538
       -0.0001086069  -0.0000010875   0.0001520789   0.0000145953  -0.0000598123
        0.0001672324   0.0000133080  -0.0002944725   0.0000838667   0.0000564009
        0.0000963039  -0.0000681299  -0.0000644654   0.0000408315   0.0000765219
        0.0000379139  -0.0001232134   0.0000214643   0.0001530118  -0.0000689912
       -0.0000430777  -0.0000741959   0.0000458341   0.0001666758  -0.0000351064
        0.0000058609   0.0002414427   0.0000279974  -0.0001517862  -0.0001804748
        0.0000391616
       -0.0562651101  -0.0035223387  -0.0687306963   0.1219796266  -0.0267203492
        0.1097693249  -0.0200770912   0.0169550671  -0.0427392940  -0.0109989503
        0.0167003702  -0.0010452150  -0.0033587555  -0.0012243180   0.0022207522
        0.0001474809   0.0006476951   0.0001437108  -0.0028432159  -0.0012538782
        0.0051135460   0.0014614895  -0.0048138739   0.0064835661   0.0001977649
       -0.0001420025   0.0001840418  -0.0001573846  -0.0002406521   0.0000385693
       -0.0001820855   0.0002898071   0.0000066430   0.0000140637   0.0000283123
        0.0000621830   0.0000182731  -0.0000656402  -0.0000379205   0.0002856499
       -0.0000267674   0.0000556581  -0.0000581219  -0.0002152227  -0.0001453798
       -0.0000081344   0.0000436805  -0.0002555769   0.0002325316  -0.0000900814
       -0.0004296644  -0.0000598673  -0.0003740409   0.0000362870   0.0001126974
        0.0002771372  -0.0002135484   0.0002803768  -0.0001765822   0.0001211358
       -0.0005514305  -0.0000222779   0.0000033181   0.0003435366   0.0000246266
        0.0001065558   0.0002929461   0.0000816742  -0.0000695198  -0.0003423784
        0.0001198252   0.0000339299   0.0000440884  -0.0002243060  -0.0000179949
       -0.0001823725  -0.0001294112   0.0001056582   0.0005463756  -0.0005808977
       -0.0001688303  -0.0005244682   0.0003617392   0.0001684694   0.0000519642
        0.0000132312  -0.0000284354  -0.0001667834   0.0004774597   0.0000582657
        0.0003683826  -0.0001094997  -0.0001464945   0.0001451215   0.0003031148
       -0.0000660980   0.0001790396  -0.0004632225  -0.0000527108   0.0001897437
        0.0007583775  -0.0001151404  -0.0003210658  -0.0005718117   0.0001487101
       -0.0000111368   0.0000509616  -0.0000173349  -0.0002200272  -0.0000241672
        0.0001180092  -0.0001042910   0.0002301348   0.0000189942  -0.0000863621
       -0.0002331096   0.0000167287   0.0000773281   0.0000064991   0.0000930902
        0.0000000559   0.0002349613  -0.0004201463   0.0000804285  -0.0001655892
        0.0002221565   0.0083479092  -0.0044065633   0.0096233791  -0.0357055971
        0.0039103294  -0.0159126216  -0.0047528211   0.0033256219  -0.0010348882
        0.0015393155   0.0000942059  -0.0018355331  -0.0004516793   0.0004935263
        0.0000775778   0.0003960288   0.0003820615  -0.0014391172   0.0000534581
        0.0000114216  -0.0000841325   0.0000157161   0.0000068243  -0.0000117515
       -0.0000147004  -0.0000021795  -0.0000062202  -0.0000041171   0.0000085409
        0.0000096429  -0.0000096026   0.0000084787   0.0000090189  -0.0000468069
       -0.0000139994   0.0000501230   0.0000052896   0.0000247569  -0.0000004339
        0.0000020746  -0.0000126523  -0.0000159147  -0.0000078576   0.0000138897
        0.0000023516  -0.0000006074  -0.0000191953  -0.0000052356   0.0000085924
       -0.0000208098   0.0000025720   0.0000158456  -0.0000001213  -0.0000061378
       -0.0000063256   0.0000036814   0.0000060956  -0.0000007446  -0.0000068444
       -0.0000050602   0.0000200703  -0.0000065372  -0.0000168137   0.0000122659
        0.0000028259   0.0000022676  -0.0000046755  -0.0000052527  -0.0000002171
        0.0000068152  -0.0000150421  -0.0000241632   0.0000522212   0.0000083983
       -0.0000140915
       -0.0152338807   0.0356694091  -0.0038537123  -0.0857334431   0.0252996230
       -0.0200770912   0.5477538885   0.0254336287   0.1663661258  -0.2364316288
       -0.0307982952  -0.0760998732  -0.0227713571   0.0763404395  -0.0082510732
       -0.0283929291  -0.0275714739  -0.0096685373   0.0330210931  -0.0373606472
        0.0133091647  -0.1589164024  -0.0626004997  -0.0416689821   0.0069486196
        0.0129722542  -0.0003299460  -0.0042350981  -0.0022359820  -0.0013432559
        0.0026911410  -0.0004949482   0.0011716833  -0.0014959594  -0.0005270815
       -0.0004139574   0.0000112285   0.0003558167  -0.0000397009  -0.0033441537
       -0.0008612458  -0.0011352710   0.0020099918   0.0040856190   0.0003427233
       -0.0011170550  -0.0053480138  -0.0002633508   0.0008525354   0.0071047270
        0.0009057200  -0.0021634386   0.0027138191  -0.0020530741   0.0041265256
       -0.0047710351   0.0029400448  -0.0064889598   0.0024840957  -0.0013775789
        0.0029664240   0.0006927101  -0.0001315645  -0.0041186341   0.0015114007
       -0.0021110153  -0.0008211596  -0.0002143632   0.0004153518   0.0013407823
       -0.0000813770  -0.0002207235  -0.0000988769   0.0002813281   0.0000243620
        0.0005336029   0.0005352530  -0.0002607416  -0.0009429819   0.0004344532
        0.0002884293   0.0006747634  -0.0005064574  -0.0002133977  -0.0000727037
        0.0000312767   0.0000264416  -0.0000190464  -0.0004722694  -0.0000428795
       -0.0007749115  -0.0010258755   0.0002662060  -0.0010320793   0.0003267011
        0.0004251464  -0.0002800630   0.0003421942   0.0001553144  -0.0005748658
       -0.0008657253   0.0002123618   0.0004206902   0.0006572842  -0.0002067898
       -0.0000522231  -0.0000488016   0.0000101170   0.0007231987   0.0000177832
       -0.0002516086   0.0001632340  -0.0004048131   0.0000302971   0.0007129199
        0.0008312819  -0.0004620445   0.0044620240  -0.0027190206   0.0020545228
        0.0006368742   0.0020459139  -0.0019727855  -0.0002043267  -0.0014645340
        0.0019527917   0.0011525986   0.0006611928  -0.0006607567   0.0011119375
       -0.0000313015   0.0011965425  -0.0055313048   0.0016543451  -0.0024162025
       -0.0159188460  -0.0019878434  -0.0064245845   0.0019699803   0.0017769412
       -0.0026548726  -0.0173603656  -0.0218768845  -0.0074995083  -0.0000449563
        0.0001456476  -0.0001025008  -0.0000349498   0.0000015354  -0.0000246639
        0.0000761678  -0.0000246467   0.0000266849   0.0000837807  -0.0000210461
        0.0000276073  -0.0000402289   0.0000242091  -0.0000169929  -0.0000058324
       -0.0001121919   0.0000269188  -0.0000352092  -0.0000821568   0.0000078377
        0.0000321187   0.0000069103   0.0000039636   0.0000115961   0.0000010598
        0.0000298055   0.0000081451   0.0000270976   0.0000284226  -0.0000066273
        0.0000238089  -0.0000188820  -0.0000124291  -0.0000113900   0.0000098700
       -0.0000116118  -0.0000164528  -0.0000165884  -0.0000093599  -0.0000147714
        0.0000401504  -0.0000088317   0.0000054767   0.0000417776  -0.0000316750
       -0.0000119001  -0.0000156490   0.0000129123  -0.0000135657   0.0000031947
       -0.0000299045  -0.0000278774  -0.0000101856  -0.0001104646   0.0001092509
       -0.0000292378
        0.0215675410  -0.0111010048   0.0084647493   0.0477833525  -0.2393927696
        0.0169550671   0.0254336287   0.6072274215   0.0130488298   0.0289321605
       -0.0832546381   0.0102111253   0.0238492377   0.0061194875   0.0095659378
       -0.0189534571   0.0034299309  -0.0071600260   0.0156570982  -0.0721700067
        0.0056717690  -0.1262061768  -0.2084543886  -0.0483959518   0.0070706327
        0.0058567652   0.0020797963  -0.0027680266  -0.0017351893  -0.0010038482
       -0.0020118722   0.0010537318  -0.0006076757   0.0012991605   0.0002641805
        0.0005757779  -0.0000945098  -0.0001713286   0.0000480979   0.0020971354
       -0.0006400864   0.0006623564  -0.0011505147  -0.0018022879  -0.0003005376
        0.0021303387   0.0000411269   0.0013295978   0.0013928304  -0.0063368890
        0.0007172936  -0.0048864545  -0.0015870878   0.0006952265   0.0021342745
        0.0028738183  -0.0026667026   0.0025894639  -0.0024518095   0.0014648868
       -0.0044652186  -0.0007775296   0.0004389067   0.0018467929   0.0014535107
        0.0000927334   0.0031832764   0.0008957061  -0.0008420118  -0.0033345853
        0.0014298339   0.0004839051   0.0006533603  -0.0027869305  -0.0001515961
       -0.0022091692  -0.0013689688   0.0010165602   0.0065673172  -0.0069543183
       -0.0019255764  -0.0065253956   0.0043075976   0.0020512659   0.0007782576
        0.0002914070  -0.0003206487  -0.0019987335   0.0056368859   0.0005398565
        0.0041820096  -0.0014806527  -0.0015414144   0.0014704263   0.0035633153
       -0.0005854630   0.0019277177  -0.0054060938  -0.0006583976   0.0022231220
        0.0086302364  -0.0012388598  -0.0038210303  -0.0066256662   0.0015567599
        0.0000517674   0.0006857961  -0.0000443635  -0.0022401225  -0.0002834457
        0.0009353530  -0.0012804571   0.0025466299   0.0003814769  -0.0006670158
       -0.0024254378   0.0001230249   0.0016887718  -0.0006528695   0.0007319583
       -0.0003516806   0.0022653079  -0.0033705342   0.0004861218  -0.0016265397
        0.0023830105  -0.0027149790   0.0008150641   0.0010340130  -0.0008471940
        0.0008502249  -0.0025653923   0.0023087022  -0.0006472859   0.0010395855
       -0.0247810869   0.0001042550  -0.0102507337   0.0024555983  -0.0038713868
        0.0007878591  -0.0008312976   0.0037396154  -0.0008184965   0.0001394586
       -0.0001543823   0.0000894993   0.0002782527   0.0001605504  -0.0002854173
       -0.0000600284   0.0000339936  -0.0000183480  -0.0000937160   0.0000282882
        0.0000494021  -0.0000748902   0.0001748539  -0.0000389758  -0.0003290109
       -0.0002978813  -0.0000529660   0.0000466938   0.0006673216  -0.0001733109
        0.0000704645  -0.0001093148  -0.0001430534  -0.0001576089   0.0002865077
        0.0001497815   0.0000017521  -0.0001860605  -0.0000111423   0.0000724323
       -0.0002066494  -0.0000257799   0.0003789321  -0.0001208106  -0.0000731883
       -0.0001309185   0.0000859914   0.0000750535  -0.0000730203  -0.0001004141
       -0.0000367030   0.0001661396  -0.0000250416  -0.0001759003   0.0000879582
        0.0000555178   0.0000742461  -0.0000693438  -0.0002190050   0.0000527387
        0.0000381679  -0.0003164416  -0.0000345734   0.0000871666   0.0001657391
       -0.0000599128
       -0.0042504575   0.0142484161  -0.0059789637  -0.0193331713   0.0069237756
       -0.0427392940   0.1663661258   0.0130488298   0.1936293639  -0.0744633279
       -0.0133645636  -0.0819661286  -0.0078046848   0.0310819592  -0.0048886437
       -0.0088055949  -0.0117575720  -0.0099126285   0.0130420140  -0.0138614614
        0.0035085240  -0.0427312957  -0.0253680321  -0.0633846708   0.0002792724
        0.0045332191   0.0068352082  -0.0013823638  -0.0006035852  -0.0004897952
        0.0014038088  -0.0005762195  -0.0002152782  -0.0005308173  -0.0001841529
       -0.0002555375  -0.0000171390   0.0001612748   0.0000728935  -0.0015143016
       -0.0001270110  -0.0004538365   0.0008559598   0.0015961058  -0.0000409731
       -0.0009307180  -0.0019540113  -0.0000356981   0.0001815516   0.0033645545
        0.0003743440  -0.0010001981   0.0009467393  -0.0005479999   0.0014055991
       -0.0017255079   0.0009903721  -0.0025415674   0.0007220257  -0.0003582137
        0.0014686017   0.0003905360  -0.0001765663  -0.0013627610   0.0004536128
       -0.0006763146  -0.0003475234  -0.0001244024   0.0001357526   0.0005259290
       -0.0000061639  -0.0000622936  -0.0000174469   0.0001004551  -0.0000032373
        0.0001965068   0.0002162464  -0.0001075854  -0.0003743502   0.0001803229
        0.0001099835   0.0002749091  -0.0001939103  -0.0000925846  -0.0000373220
        0.0000021291   0.0000185466  -0.0000304529  -0.0001844690  -0.0000124688
       -0.0002871849  -0.0003962806   0.0001143824  -0.0003894545   0.0001359029
        0.0001608676  -0.0001386348   0.0001315047   0.0000658382  -0.0002349568
       -0.0003900914   0.0001163272   0.0001693611   0.0003126578  -0.0001073952
        0.0000027620  -0.0000381845   0.0000196184   0.0002853152  -0.0000007681
       -0.0001226570   0.0000617490  -0.0001737796  -0.0000309204   0.0002744205
        0.0003114453  -0.0001548869   0.0016405013  -0.0005900180   0.0004471953
        0.0001673683   0.0003237569  -0.0001918366  -0.0002066242  -0.0001029068
        0.0003750973   0.0012500585  -0.0008714594   0.0007614030  -0.0007012372
        0.0011326219   0.0006689052  -0.0025304170   0.0007081309  -0.0003457157
       -0.0079266491  -0.0008355549  -0.0010835706  -0.0031309929   0.0004069568
        0.0077385423  -0.0066807274  -0.0080511406  -0.0021194283  -0.0001472632
        0.0000680179   0.0002953708  -0.0000176969  -0.0000018773   0.0000022309
        0.0000440204   0.0000007194   0.0000084062   0.0000247914  -0.0000193328
        0.0000046442  -0.0000376283   0.0000070549   0.0000494906   0.0000278707
       -0.0000444014  -0.0000370070  -0.0000086886  -0.0000136583  -0.0000022663
        0.0000104506  -0.0000014253   0.0000086755   0.0000062059  -0.0000049816
        0.0000084760   0.0000040355   0.0000106865   0.0000079269  -0.0000021046
        0.0000111955  -0.0000074817  -0.0000072808  -0.0000020425   0.0000022543
       -0.0000017920  -0.0000039324  -0.0000104932   0.0000001863  -0.0000022725
        0.0000185508  -0.0000081753   0.0000062594   0.0000149491  -0.0000114119
       -0.0000052277  -0.0000060812   0.0000041866   0.0000004539   0.0000039368
       -0.0000089553   0.0000020712   0.0000169116  -0.0000201920   0.0000407599
        0.0000334632
        0.0000986535  -0.0001920981  -0.0008586831  -0.0253438108   0.0282831846
       -0.0109989503  -0.2364316288   0.0289321605  -0.0744633279   0.5357524670
       -0.0145876111   0.1751337478  -0.1332197573   0.0640468282  -0.0363075827
        0.0322403745   0.0287793913   0.0131635700  -0.0180709600   0.0264527214
       -0.0060613692  -0.0314545965  -0.0562239253  -0.0134714356  -0.0054136063
       -0.0056243537  -0.0018169090   0.0032983382   0.0022892356   0.0010172134
       -0.0026822820   0.0001338599  -0.0008843646   0.0016253966   0.0003505548