      -----------------------------------------------------------      
     |                   =====================                   |     
     |                           x T B                           |     
     |                   =====================                   |     
     |                         S. Grimme                         |     
     |          Mulliken Center for Theoretical Chemistry        |     
     |                    University of Bonn                     |     
      -----------------------------------------------------------      

   * xtb version 6.7.1 (edcfbbe) compiled by 'albert@albert-system' on 2024-07-22

   xtb is free software: you can redistribute it and/or modify it under
   the terms of the GNU Lesser General Public License as published by
   the Free Software Foundation, either version 3 of the License, or
   (at your option) any later version.
   
   xtb is distributed in the hope that it will be useful,
   but WITHOUT ANY WARRANTY; without even the implied warranty of
   MERCHANTABILITY or FITNESS FOR A PARTICULAR PURPOSE.  See the
   GNU Lesser General Public License for more details.
   
   Cite this work as:
   * C. Bannwarth, E. Caldeweyher, S. Ehlert, A. Hansen, P. Pracht,
     J. Seibert, S. Spicher, S. Grimme, WIREs Comput. Mol. Sci., 2020, 11,
     e01493. DOI: 10.1002/wcms.1493
   
   for GFN2-xTB:
   * C. Bannwarth, S. Ehlert and S. Grimme., J. Chem. Theory Comput., 2019,
     15, 1652-1671. DOI: 10.1021/acs.jctc.8b01176
   for GFN1-xTB:
   * S. Grimme, C. Bannwarth, P. Shushkov, J. Chem. Theory Comput., 2017,
     13, 1989-2009. DOI: 10.1021/acs.jctc.7b00118
   for GFN0-xTB:
   * P. Pracht, E. Caldeweyher, S. Ehlert, S. Grimme, ChemRxiv, 2019, preprint.
     DOI: 10.26434/chemrxiv.8326202.v1
   for GFN-FF:
   * S. Spicher and S. Grimme, Angew. Chem. Int. Ed., 2020, 59, 15665-15673.
     DOI: 10.1002/anie.202004239
   
   for ALPB and GBSA implicit solvation:
   * S. Ehlert, M. Stahn, S. Spicher, S. Grimme, J. Chem. Theory Comput.,
     2021, 17, 4250-4261. DOI: 10.1021/acs.jctc.1c00471
   
   for ddCOSMO and CPCM-X implicit solvation:
   * M. Stahn, S. Ehlert, S. Grimme, J. Phys. Chem. A,
     2023, XX, XXXX-XXXX. DOI: 10.1021/acs.jpca.3c04382
   
   for DFT-D4:
   * E. Caldeweyher, C. Bannwarth and S. Grimme, J. Chem. Phys., 2017,
     147, 034112. DOI: 10.1063/1.4993215
   * E. Caldeweyher, S. Ehlert, A. Hansen, H. Neugebauer, S. Spicher,
     C. Bannwarth and S. Grimme, J. Chem. Phys., 2019, 150, 154122.
     DOI: 10.1063/1.5090222
   * E. Caldeweyher, J.-M. Mewes, S. Ehlert and S. Grimme, Phys. Chem. Chem. Phys.
     2020, 22, 8499-8512. DOI: 10.1039/D0CP00502A
   
   for sTDA-xTB:
   * S. Grimme and C. Bannwarth, J. Chem. Phys., 2016, 145, 054103.
     DOI: 10.1063/1.4959605
   
   in the mass-spec context:
   * V. Asgeirsson, C. Bauer and S. Grimme, Chem. Sci., 2017, 8, 4879.
     DOI: 10.1039/c7sc00601b
   * J. Koopman and S. Grimme, ACS Omega 2019, 4, 12, 15120-15133.
     DOI: 10.1021/acsomega.9b02011
   
   for metadynamics refer to:
   * S. Grimme, J. Chem. Theory Comput., 2019, 155, 2847-2862
     DOI: 10.1021/acs.jctc.9b00143
   
   for SPH calculations refer to:
   * S. Spicher and S. Grimme, J. Chem. Theory Comput., 2021, 17, 1701-1714
     DOI: 10.1021/acs.jctc.0c01306
   
   for ONIOM refer to:
   * C. Plett, A. Katbashev, S. Ehlert, S. Grimme, M. Bursch,
     Phys. Chem. Chem. Phys., 2023, 25, 17860-17868. DOI: 10.1039/D3CP02178E
   
   for DIPRO refer to:
   * J. Kohn, N. Gildemeister, S. Grimme, D. Fazzi, A. Hansen,
     J. Chem. Phys., 2023, just accepted.
   
   for PTB refer to:
   * S. Grimme, M. Mueller, A. Hansen, J. Chem. Phys., 2023, 158, 124111.
     DOI: 10.1063/5.0137838
   
   with help from (in alphabetical order)
   P. Atkinson, C. Bannwarth, F. Bohle, G. Brandenburg, E. Caldeweyher
   M. Checinski, S. Dohm, S. Ehlert, S. Ehrlich, I. Gerasimov, C. Hölzer
   A. Katbashev, J. Kohn, J. Koopman, C. Lavigne, S. Lehtola, F. März, M. Müller,
   F. Musil, H. Neugebauer, J. Pisarek, C. Plett, P. Pracht, F. Pultar,
   J. Seibert, P. Shushkov, S. Spicher, M. Stahn, M. Steiner, T. Strunk,
   J. Stückrath, T. Rose, and J. Unsleber
   
 * started run on 2025/09/10 at 21:28:28.203     
   ID    Z sym.   atoms
    1    6 C      1, 3-11, 13-16, 18, 20, 22, 24-27, 29-34, 36-41
    2    8 O      2, 12, 28, 35
    3    7 N      17, 19, 21, 23, 42
    4    1 H      43-67

           -------------------------------------------------
          |                Calculation Setup                |
           -------------------------------------------------

          program call               : xtb data2507/toluene/MeOCzPCN/MeOCzPCN_toluene_S0_finalOpt.xtbopt.xyz --gfn 2 --uhf 2 --gbsa toluene --ohess vtight --parallel 40 --molden --ceasefiles --namespace data2507/toluene/MeOCzPCN/MeOCzPCN_toluene_T1_preOpt
          calculation namespace      : data2507/toluene/MeOCzPCN/MeOCzPCN_toluene_T1_preOpt
          coordinate file            : data2507/toluene/MeOCzPCN/MeOCzPCN_toluene_S0_finalOpt.xtbopt.xyz
          omp threads                :                    40


           -------------------------------------------------
          |                 G F N 2 - x T B                 |
           -------------------------------------------------

        Reference                      10.1021/acs.jctc.8b01176
      * Hamiltonian:
        H0-scaling (s, p, d)           1.850000    2.230000    2.230000
        zeta-weighting                 0.500000
      * Dispersion:
        s8                             2.700000
        a1                             0.520000
        a2                             5.000000
        s9                             5.000000
      * Repulsion:
        kExp                           1.500000    1.000000
        rExp                           1.000000
      * Coulomb:
        alpha                          2.000000
        third order                    shell-resolved
        anisotropic                    true
        a3                             3.000000
        a5                             4.000000
        cn-shift                       1.200000
        cn-exp                         4.000000
        max-rad                        5.000000

      * Solvation model:               GBSA
        Solvent                        toluene
        Parameter file                 internal GFN2-xTB/GBSA
        Dielectric constant                7.0000E+00
        Reference state                gsolv [1 M gas/solution]
        Free energy shift                  4.5239E-03 Eh       2.8388E+00 kcal/mol
        Temperature                        2.9815E+02 K
        Density                            8.6700E-01 kg/L
        Solvent mass                       9.2140E+01 g/mol
        Interaction kernel             Still
        Born radius scaling (c1)           1.5686E+00
        Born radii integrator          GBOBC
        Born offset                        0.0000E+00 a0       0.0000E+00 AA
        H-bond correction              false
        Ion screening                  false
        Surface tension                    1.0000E-05 Eh       1.5569E+01 dyn/cm
        Grid points                               230 per atom

          ...................................................
          :                      SETUP                      :
          :.................................................:
          :  # basis functions                 193          :
          :  # atomic orbitals                 193          :
          :  # shells                          109          :
          :  # electrons                       206          :
          :  max. iterations                   250          :
          :  Hamiltonian                  GFN2-xTB          :
          :  restarted?                      false          :
          :  GBSA solvation                   true          :
          :  PC potential                    false          :
          :  electronic temp.          300.0000000     K    :
          :  accuracy                    1.0000000          :
          :  -> integral cutoff          0.2500000E+02      :
          :  -> integral neglect         0.1000000E-07      :
          :  -> SCF convergence          0.1000000E-05 Eh   :
          :  -> wf. convergence          0.1000000E-03 e    :
          :  Broyden damping             0.4000000          :
          :  net charge                          0          :
          :  unpaired electrons                  2          :
          ...................................................

 iter      E             dE          RMSdq      gap      omega  full diag
   1   -115.9082735 -0.115908E+03  0.457E+00    0.26       0.0  T
   2   -115.9178623 -0.958879E-02  0.282E+00    0.10       1.0  T
   3   -115.6682345  0.249628E+00  0.221E+00    0.68       1.0  T
   4   -116.0207064 -0.352472E+00  0.101E+00    0.35       1.0  T
   5   -116.0093178  0.113886E-01  0.772E-01    0.21       1.0  T
   6   -116.0366229 -0.273050E-01  0.587E-01    0.20       1.0  T
   7   -116.0755218 -0.388990E-01  0.297E-01    0.11       1.0  T
   8   -116.0817987 -0.627691E-02  0.921E-02    0.05       1.0  T
   9   -116.0807392  0.105956E-02  0.136E-01    0.09       1.0  T
  10   -116.0822722 -0.153305E-02  0.482E-02    0.05       1.0  T
  11   -116.0825073 -0.235090E-03  0.160E-02    0.07       1.0  T
  12   -116.0825184 -0.110942E-04  0.770E-03    0.06       1.6  T
  13   -116.0825185 -0.111384E-06  0.752E-03    0.06       1.6  T
  14   -116.0825250 -0.647927E-05  0.196E-03    0.06       6.2  T
  15   -116.0825251 -0.113492E-06  0.117E-03    0.06      10.5  T
  16   -116.0825251 -0.544489E-08  0.104E-03    0.06      11.8  T
  17   -116.0825252 -0.129617E-06  0.212E-04    0.06      57.6  T
  18   -116.0825252 -0.933923E-09  0.144E-04    0.06      84.6  T

   *** convergence criteria satisfied after 18 iterations ***

         #    Occupation            Energy/Eh            Energy/eV
      -------------------------------------------------------------
         1        2.0000           -0.7285247             -19.8242
       ...           ...                  ...                  ...
        98        2.0000           -0.4014451             -10.9239
        99        2.0000           -0.3894805             -10.5983
       100        2.0000           -0.3892116             -10.5910
       101        1.9997           -0.3797430             -10.3333
       102        1.7473           -0.3730172             -10.1503
       103        1.2530           -0.3709586             -10.0943
       104        0.7714           -0.2730153              -7.4291 (HOMO)
       105        0.2286           -0.2707046              -7.3662 (LUMO)
       106        0.0001           -0.2625346              -7.1439
       107        0.0000           -0.2570933              -6.9959
       108                         -0.2339174              -6.3652
       109                         -0.2336500              -6.3579
       ...                                ...                  ...
       193                          1.1740671              31.9480
      -------------------------------------------------------------
                  HL-Gap            0.0023107 Eh            0.0629 eV
             Fermi-level           -0.3219236 Eh           -8.7600 eV
 
 transition dipole moment (au) for excitation:         103         104
     X       Y       Z   
   0.0276  -0.0608  -0.0462  total (au/Debye):    0.081   0.206
 dE (eV)             :    2.665
 oscillator strength :  0.60878E-03

 SCC (total)                   0 d,  0 h,  0 min,  0.174 sec
 SCC setup                      ...        0 min,  0.008 sec (  4.788%)
 Dispersion                     ...        0 min,  0.002 sec (  1.217%)
 classical contributions        ...        0 min,  0.000 sec (  0.067%)
 integral evaluation            ...        0 min,  0.006 sec (  3.467%)
 iterations                     ...        0 min,  0.127 sec ( 72.974%)
 molecular gradient             ...        0 min,  0.010 sec (  5.839%)
 printout                       ...        0 min,  0.020 sec ( 11.592%)

         :::::::::::::::::::::::::::::::::::::::::::::::::::::
         ::                     SUMMARY                     ::
         :::::::::::::::::::::::::::::::::::::::::::::::::::::
         :: total energy            -114.315577144582 Eh    ::
         :: total w/o Gsasa/hb      -114.274899502593 Eh    ::
         :: gradient norm              0.088607326636 Eh/a0 ::
         :: HOMO-LUMO gap              0.062878210490 eV    ::
         ::.................................................::
         :: SCC energy              -116.083014072429 Eh    ::
         :: -> isotropic ES            0.107775759438 Eh    ::
         :: -> anisotropic ES          0.010973262006 Eh    ::
         :: -> anisotropic XC          0.052512379367 Eh    ::
         :: -> dispersion             -0.090386889310 Eh    ::
         :: -> Gsolv                  -0.057224580609 Eh    ::
         ::    -> Gelec               -0.016546938619 Eh    ::
         ::    -> Gsasa               -0.045201521861 Eh    ::
         ::    -> Ghb                  0.000000000000 Eh    ::
         ::    -> Gshift               0.004523879872 Eh    ::
         :: repulsion energy           1.767436927846 Eh    ::
         :: add. restraining           0.000000000000 Eh    ::
         :: total charge               0.000000000084 e     ::
         :::::::::::::::::::::::::::::::::::::::::::::::::::::

      ----------------------------------------------------------- 
     |                   =====================                   |
     |                        A N C O P T                        |
     |                   =====================                   |
     |               Approximate Normal Coordinate               |
     |                Rational Function Optimizer                |
      ----------------------------------------------------------- 

Optimization log is written to '/dev/null'
      ----------------------------------------------------------- 
     |                   =====================                   |
     |                        A N C O P T                        |
     |                   =====================                   |
     |               Approximate Normal Coordinate               |
     |                Rational Function Optimizer                |
      ----------------------------------------------------------- 

          ...................................................
          :                      SETUP                      :
          :.................................................:
          :   optimization level         verytight          :
          :   max. optcycles                  1340          :
          :   ANC micro-cycles                  20          :
          :   degrees of freedom               195          :
          :.................................................:
          :   RF solver                   davidson          :
          :   write xtbopt.log                true          :
          :   linear?                        false          :
          :   energy convergence         0.1000000E-06 Eh   :
          :   grad. convergence          0.2000000E-03 Eh/α :
          :   maxmium RF displ.          1.0000000          :
          :   Hlow (freq-cutoff)         0.1000000E-01      :
          :   Hmax (freq-cutoff)         5.0000000          :
          :   S6 in model hess.         20.0000000          :
          ...................................................

generating ANC from exact Hessian ...
Using Lindh-Hessian (1995)
 Shifting diagonal of input Hessian by   9.926644482132940E-003
 Lowest  eigenvalues of input Hessian
    0.000000    0.000000    0.000000    0.000000    0.000000    0.000000
    0.010000    0.010068    0.010158    0.010560    0.010912    0.010981
    0.011532    0.011602    0.011911    0.012062    0.012265    0.012736
 Highest eigenvalues
    2.189693    2.201373    2.203979    2.258066    2.337291    2.640998
 

........................................................................
.............................. CYCLE    1 ..............................
........................................................................

 iter      E             dE          RMSdq      gap      omega  full diag
   1   -116.0825252 -0.116083E+03  0.382E-05    0.06       0.0  T
   2   -116.0825252  0.482430E-09  0.729E-05    0.06     167.6  T
   3   -116.0825252 -0.345210E-09  0.395E-05    0.06     309.6  T
     SCC iter.                  ...        0 min,  0.021 sec
     gradient                   ...        0 min,  0.009 sec
 * total energy  :  -114.3155771 Eh     change       -0.2377675E-08 Eh
   gradient norm :     0.0886114 Eh/α   predicted     0.0000000E+00 (-100.00%)
   displ. norm   :     0.1243905 α      lambda       -0.4534810E-02
   maximum displ.:     0.0402080 α      in ANC's #13, #43, #31, ...

........................................................................
.............................. CYCLE    2 ..............................
........................................................................

 iter      E             dE          RMSdq      gap      omega  full diag
   1   -116.0639690 -0.116064E+03  0.203E-01    0.21       0.0  T
   2   -116.0289003  0.350686E-01  0.542E-01    0.01       1.0  T
   3   -116.0642562 -0.353559E-01  0.141E-01    0.16       1.0  T
   4   -116.0660223 -0.176603E-02  0.862E-02    0.14       1.0  T
   5   -116.0658972  0.125022E-03  0.854E-02    0.13       1.0  T
   6   -116.0667580 -0.860775E-03  0.155E-02    0.11       1.0  T
   7   -116.0667725 -0.144614E-04  0.717E-03    0.11       1.7  T
   8   -116.0667753 -0.278136E-05  0.515E-03    0.11       2.4  T
   9   -116.0667757 -0.422942E-06  0.345E-03    0.11       3.5  T
  10   -116.0667766 -0.964254E-06  0.175E-03    0.11       7.0  T
  11   -116.0667769 -0.276444E-06  0.592E-04    0.11      20.6  T
  12   -116.0667769 -0.286169E-07  0.118E-04    0.11     103.7  T
     SCC iter.                  ...        0 min,  0.080 sec
     gradient                   ...        0 min,  0.009 sec
 * total energy  :  -114.3190013 Eh     change       -0.3424122E-02 Eh
   gradient norm :     0.0531982 Eh/α   predicted    -0.2302873E-02 ( -32.75%)
   displ. norm   :     0.1772328 α      lambda       -0.3852146E-02
   maximum displ.:     0.0673620 α      in ANC's #13, #10, #31, ...

........................................................................
.............................. CYCLE    3 ..............................
........................................................................

 iter      E             dE          RMSdq      gap      omega  full diag
   1   -116.0613686 -0.116061E+03  0.166E-01    0.33       0.0  T
   2   -116.0581869  0.318172E-02  0.177E-01    0.14       1.0  T
   3   -116.0615943 -0.340748E-02  0.988E-02    0.28       1.0  T
   4   -116.0627130 -0.111870E-02  0.397E-02    0.24       1.0  T
   5   -116.0623962  0.316802E-03  0.516E-02    0.22       1.0  T
   6   -116.0627387 -0.342440E-03  0.169E-02    0.22       1.0  T
   7   -116.0627771 -0.384043E-04  0.343E-03    0.22       3.6  T
   8   -116.0627776 -0.562623E-06  0.241E-03    0.23       5.1  T
   9   -116.0627780 -0.369205E-06  0.108E-03    0.23      11.3  T
  10   -116.0627781 -0.880842E-07  0.330E-04    0.22      37.0  T
  11   -116.0627781 -0.834665E-08  0.105E-04    0.22     116.6  T
     SCC iter.                  ...        0 min,  0.073 sec
     gradient                   ...        0 min,  0.009 sec
 * total energy  :  -114.3210880 Eh     change       -0.2086687E-02 Eh
   gradient norm :     0.0178042 Eh/α   predicted    -0.1986988E-02 (  -4.78%)
   displ. norm   :     0.0865109 α      lambda       -0.3463702E-03
   maximum displ.:     0.0496064 α      in ANC's #10, #13, #9, ...

........................................................................
.............................. CYCLE    4 ..............................
........................................................................

 iter      E             dE          RMSdq      gap      omega  full diag
   1   -116.0660639 -0.116066E+03  0.373E-02    0.25       0.0  T
   2   -116.0660550  0.897637E-05  0.276E-02    0.24       1.0  T
   3   -116.0660719 -0.169451E-04  0.171E-02    0.24       1.0  T
   4   -116.0660678  0.409488E-05  0.135E-02    0.25       1.0  T
   5   -116.0660840 -0.161581E-04  0.597E-03    0.24       2.0  T
   6   -116.0660858 -0.180680E-05  0.480E-03    0.24       2.5  T
   7   -116.0660890 -0.321004E-05  0.879E-04    0.24      13.9  T
   8   -116.0660891 -0.738549E-07  0.287E-04    0.24      42.6  T
   9   -116.0660891 -0.158816E-08  0.109E-04    0.24     111.7  T
     SCC iter.                  ...        0 min,  0.060 sec
     gradient                   ...        0 min,  0.009 sec
 * total energy  :  -114.3213638 Eh     change       -0.2758904E-03 Eh
   gradient norm :     0.0104578 Eh/α   predicted    -0.1744853E-03 ( -36.76%)
   displ. norm   :     0.1675148 α      lambda       -0.3989933E-03
   maximum displ.:     0.1087596 α      in ANC's #10, #9, #13, ...

........................................................................
.............................. CYCLE    5 ..............................
........................................................................

 iter      E             dE          RMSdq      gap      omega  full diag
   1   -116.0702419 -0.116070E+03  0.604E-02    0.26       0.0  T
   2   -116.0701296  0.112314E-03  0.536E-02    0.27       1.0  T
   3   -116.0702446 -0.115048E-03  0.314E-02    0.25       1.0  T
   4   -116.0701415  0.103121E-03  0.365E-02    0.27       1.0  T
   5   -116.0702035 -0.620010E-04  0.294E-02    0.27       1.0  T
   6   -116.0703215 -0.117989E-03  0.431E-03    0.26       2.8  T
   7   -116.0703235 -0.201724E-05  0.140E-03    0.26       8.7  T
   8   -116.0703237 -0.147103E-06  0.505E-04    0.26      24.2  T
   9   -116.0703237 -0.352695E-08  0.201E-04    0.26      60.9  T
     SCC iter.                  ...        0 min,  0.060 sec
     gradient                   ...        0 min,  0.009 sec
 * total energy  :  -114.3215939 Eh     change       -0.2300730E-03 Eh
   gradient norm :     0.0053247 Eh/α   predicted    -0.2051050E-03 ( -10.85%)
   displ. norm   :     0.0778818 α      lambda       -0.6534049E-04
   maximum displ.:     0.0560410 α      in ANC's #10, #9, #5, ...

........................................................................
.............................. CYCLE    6 ..............................
........................................................................

 iter      E             dE          RMSdq      gap      omega  full diag
   1   -116.0705568 -0.116071E+03  0.205E-02    0.27       0.0  T
   2   -116.0705528  0.402468E-05  0.138E-02    0.27       1.0  T
   3   -116.0705339  0.188525E-04  0.154E-02    0.26       1.0  T
   4   -116.0705555 -0.215898E-04  0.555E-03    0.27       2.2  T
   5   -116.0705564 -0.926373E-06  0.472E-03    0.27       2.6  T
   6   -116.0705594 -0.298341E-05  0.108E-03    0.26      11.4  T
   7   -116.0705595 -0.119769E-06  0.406E-04    0.27      30.1  T
   8   -116.0705595 -0.119845E-07  0.149E-04    0.27      82.2  T
     SCC iter.                  ...        0 min,  0.053 sec
     gradient                   ...        0 min,  0.009 sec
 * total energy  :  -114.3216475 Eh     change       -0.5357802E-04 Eh
   gradient norm :     0.0050165 Eh/α   predicted    -0.3287733E-04 ( -38.64%)
   displ. norm   :     0.1620638 α      lambda       -0.1189008E-03
   maximum displ.:     0.1140938 α      in ANC's #10, #9, #5, ...

........................................................................
.............................. CYCLE    7 ..............................
........................................................................

 iter      E             dE          RMSdq      gap      omega  full diag
   1   -116.0700443 -0.116070E+03  0.413E-02    0.27       0.0  T
   2   -116.0700443  0.509091E-08  0.239E-02    0.27       1.0  T
   3   -116.0699246  0.119663E-03  0.291E-02    0.26       1.0  T
   4   -116.0700246 -0.100007E-03  0.125E-02    0.27       1.0  T
   5   -116.0700444 -0.197537E-04  0.387E-03    0.27       3.2  T
   6   -116.0700463 -0.193210E-05  0.861E-04    0.27      14.2  T
   7   -116.0700463 -0.111348E-07  0.429E-04    0.27      28.5  T
   8   -116.0700463 -0.334886E-08  0.277E-04    0.27      44.0  T
     SCC iter.                  ...        0 min,  0.053 sec
     gradient                   ...        0 min,  0.009 sec
 * total energy  :  -114.3217254 Eh     change       -0.7792268E-04 Eh
   gradient norm :     0.0031329 Eh/α   predicted    -0.6101520E-04 ( -21.70%)
   displ. norm   :     0.0877490 α      lambda       -0.3529398E-04
   maximum displ.:     0.0593124 α      in ANC's #10, #9, #5, ...

........................................................................
.............................. CYCLE    8 ..............................
........................................................................

 iter      E             dE          RMSdq      gap      omega  full diag
   1   -116.0697727 -0.116070E+03  0.225E-02    0.27       0.0  T
   2   -116.0697694  0.329636E-05  0.144E-02    0.26       1.0  T
   3   -116.0697297  0.396902E-04  0.191E-02    0.27       1.0  T
   4   -116.0697325 -0.281837E-05  0.173E-02    0.27       1.0  T
   5   -116.0697733 -0.407617E-04  0.304E-03    0.26       4.0  T
   6   -116.0697746 -0.126763E-05  0.667E-04    0.27      18.3  T
   7   -116.0697746 -0.303778E-07  0.400E-04    0.27      30.6  T
   8   -116.0697746 -0.104838E-07  0.138E-04    0.27      88.2  T
     SCC iter.                  ...        0 min,  0.053 sec
     gradient                   ...        0 min,  0.009 sec
 * total energy  :  -114.3217491 Eh     change       -0.2367520E-04 Eh
   gradient norm :     0.0022574 Eh/α   predicted    -0.1779737E-04 ( -24.83%)
   displ. norm   :     0.0559696 α      lambda       -0.1593321E-04
   maximum displ.:     0.0347826 α      in ANC's #10, #9, #5, ...

........................................................................
.............................. CYCLE    9 ..............................
........................................................................

 iter      E             dE          RMSdq      gap      omega  full diag
   1   -116.0698969 -0.116070E+03  0.137E-02    0.26       0.0  T
   2   -116.0698937  0.317672E-05  0.983E-03    0.26       1.2  T
   3   -116.0698884  0.533321E-05  0.981E-03    0.27       1.2  T
   4   -116.0698948 -0.645853E-05  0.522E-03    0.26       2.3  T
   5   -116.0698954 -0.561863E-06  0.473E-03    0.26       2.6  T
   6   -116.0698985 -0.315660E-05  0.470E-04    0.26      26.0  T
   7   -116.0698985 -0.162151E-07  0.271E-04    0.26      45.1  T
   8   -116.0698986 -0.457602E-08  0.106E-04    0.26     115.0  T
     SCC iter.                  ...        0 min,  0.054 sec
     gradient                   ...        0 min,  0.009 sec
 * total energy  :  -114.3217598 Eh     change       -0.1074313E-04 Eh
   gradient norm :     0.0014473 Eh/α   predicted    -0.7996738E-05 ( -25.56%)
   displ. norm   :     0.0592690 α      lambda       -0.8442013E-05
   maximum displ.:     0.0309062 α      in ANC's #10, #2, #5, ...

........................................................................
.............................. CYCLE   10 ..............................
........................................................................

 iter      E             dE          RMSdq      gap      omega  full diag
   1   -116.0701890 -0.116070E+03  0.139E-02    0.26       0.0  T
   2   -116.0701847  0.427679E-05  0.102E-02    0.26       1.2  T
   3   -116.0701689  0.158142E-04  0.133E-02    0.26       1.0  T
   4   -116.0701537  0.151682E-04  0.163E-02    0.26       1.0  T
   5   -116.0701902 -0.364466E-04  0.229E-03    0.26       5.3  T
   6   -116.0701908 -0.667076E-06  0.443E-04    0.26      27.5  T
   7   -116.0701909 -0.928252E-08  0.283E-04    0.26      43.1  T
     SCC iter.                  ...        0 min,  0.047 sec
     gradient                   ...        0 min,  0.009 sec
 * total energy  :  -114.3217667 Eh     change       -0.6882894E-05 Eh
   gradient norm :     0.0014208 Eh/α   predicted    -0.4232727E-05 ( -38.50%)
   displ. norm   :     0.0288739 α      lambda       -0.4228475E-05
   maximum displ.:     0.0165603 α      in ANC's #2, #10, #6, ...

........................................................................
.............................. CYCLE   11 ..............................
........................................................................

 iter      E             dE          RMSdq      gap      omega  full diag
   1   -116.0702106 -0.116070E+03  0.961E-03    0.26       0.0  T
   2   -116.0702107 -0.408131E-07  0.541E-03    0.26       2.3  T
   3   -116.0702080  0.264302E-05  0.478E-03    0.26       2.6  T
   4   -116.0702072  0.840113E-06  0.506E-03    0.26       2.4  T
   5   -116.0702108 -0.357814E-05  0.578E-04    0.26      21.1  T
   6   -116.0702108 -0.328017E-07  0.236E-04    0.26      51.7  T
   7   -116.0702108  0.249764E-08  0.217E-04    0.26      56.4  T
     SCC iter.                  ...        0 min,  0.047 sec
     gradient                   ...        0 min,  0.009 sec
 * total energy  :  -114.3217714 Eh     change       -0.4700061E-05 Eh
   gradient norm :     0.0011350 Eh/α   predicted    -0.2115694E-05 ( -54.99%)
   displ. norm   :     0.0507127 α      lambda       -0.5595053E-05
   maximum displ.:     0.0321367 α      in ANC's #2, #10, #6, ...

........................................................................
.............................. CYCLE   12 ..............................
........................................................................

 iter      E             dE          RMSdq      gap      omega  full diag
   1   -116.0701188 -0.116070E+03  0.160E-02    0.26       0.0  T
   2   -116.0701173  0.155437E-05  0.967E-03    0.26       1.3  T
   3   -116.0700363  0.809685E-04  0.245E-02    0.26       1.0  T
   4   -116.0701120 -0.756471E-04  0.788E-03    0.26       1.5  T
   5   -116.0701191 -0.719490E-05  0.182E-03    0.26       6.7  T
   6   -116.0701195 -0.399200E-06  0.427E-04    0.26      28.6  T
   7   -116.0701196 -0.541320E-08  0.312E-04    0.26      39.2  T
     SCC iter.                  ...        0 min,  0.048 sec
     gradient                   ...        0 min,  0.009 sec
 * total energy  :  -114.3217764 Eh     change       -0.4975911E-05 Eh
   gradient norm :     0.0007434 Eh/α   predicted    -0.2802673E-05 ( -43.68%)
   displ. norm   :     0.0383253 α      lambda       -0.2056360E-05
   maximum displ.:     0.0239676 α      in ANC's #2, #10, #6, ...

........................................................................
.............................. CYCLE   13 ..............................
........................................................................

 iter      E             dE          RMSdq      gap      omega  full diag
   1   -116.0701562 -0.116070E+03  0.905E-03    0.26       0.0  T
   2   -116.0701561  0.682718E-07  0.520E-03    0.26       2.4  T
   3   -116.0701439  0.122326E-04  0.960E-03    0.26       1.3  T
   4   -116.0701538 -0.986462E-05  0.441E-03    0.26       2.8  T
   5   -116.0701563 -0.254929E-05  0.675E-04    0.26      18.1  T
   6   -116.0701564 -0.452152E-07  0.244E-04    0.26      50.1  T
   7   -116.0701564 -0.981061E-09  0.175E-04    0.26      70.0  T
     SCC iter.                  ...        0 min,  0.046 sec
     gradient                   ...        0 min,  0.009 sec
 * total energy  :  -114.3217786 Eh     change       -0.2251474E-05 Eh
   gradient norm :     0.0004649 Eh/α   predicted    -0.1032026E-05 ( -54.16%)
   displ. norm   :     0.0260231 α      lambda       -0.1326968E-05
   maximum displ.:     0.0195377 α      in ANC's #2, #10, #6, ...

........................................................................
.............................. CYCLE   14 ..............................
........................................................................

 iter      E             dE          RMSdq      gap      omega  full diag
   1   -116.0702837 -0.116070E+03  0.529E-03    0.26       0.0  T
   2   -116.0702836  0.143932E-06  0.322E-03    0.26       3.8  T
   3   -116.0702783  0.523557E-05  0.642E-03    0.26       1.9  T
   4   -116.0702816 -0.329500E-05  0.401E-03    0.26       3.0  T
   5   -116.0702837 -0.208830E-05  0.868E-04    0.26      14.1  T
   6   -116.0702838 -0.100902E-06  0.143E-04    0.26      85.5  T
   7   -116.0702838 -0.386109E-10  0.101E-04    0.26     120.7  T
     SCC iter.                  ...        0 min,  0.046 sec
     gradient                   ...        0 min,  0.009 sec
 * total energy  :  -114.3217802 Eh     change       -0.1546599E-05 Eh
   gradient norm :     0.0007040 Eh/α   predicted    -0.6675581E-06 ( -56.84%)
   displ. norm   :     0.0286604 α      lambda       -0.2041118E-05
   maximum displ.:     0.0219912 α      in ANC's #2, #18, #8, ...

........................................................................
.............................. CYCLE   15 ..............................
........................................................................

 iter      E             dE          RMSdq      gap      omega  full diag
   1   -116.0705324 -0.116071E+03  0.609E-03    0.26       0.0  T
   2   -116.0705298  0.258540E-05  0.556E-03    0.26       2.2  T
   3   -116.0705203  0.946439E-05  0.966E-03    0.26       1.3  T
   4   -116.0705301 -0.974934E-05  0.453E-03    0.26       2.7  T
   5   -116.0705326 -0.253969E-05  0.832E-04    0.26      14.7  T
   6   -116.0705327 -0.844551E-07  0.183E-04    0.26      66.8  T
   7   -116.0705327 -0.442043E-09  0.120E-04    0.26     101.7  T
     SCC iter.                  ...        0 min,  0.047 sec
     gradient                   ...        0 min,  0.009 sec
 * total energy  :  -114.3217803 Eh     change       -0.6661021E-07 Eh
   gradient norm :     0.0008854 Eh/α   predicted    -0.1023857E-05 (1437.09%)
   displ. norm   :     0.0060483 α      lambda       -0.9484247E-06
   maximum displ.:     0.0028876 α      in ANC's #2, #10, #11, ...

........................................................................
.............................. CYCLE   16 ..............................
........................................................................

 iter      E             dE          RMSdq      gap      omega  full diag
   1   -116.0704029 -0.116070E+03  0.204E-03    0.26       0.0  T
   2   -116.0704029  0.400022E-07  0.133E-03    0.26       9.2  T
   3   -116.0704024  0.511418E-06  0.207E-03    0.26       5.9  T
   4   -116.0704024 -0.565013E-07  0.193E-03    0.26       6.3  T
   5   -116.0704029 -0.499136E-06  0.401E-04    0.26      30.5  T
   6   -116.0704030 -0.206343E-07  0.562E-05    0.26     217.6  T
     SCC iter.                  ...        0 min,  0.040 sec
     gradient                   ...        0 min,  0.009 sec
 * total energy  :  -114.3217814 Eh     change       -0.1139247E-05 Eh
   gradient norm :     0.0004765 Eh/α   predicted    -0.4753156E-06 ( -58.28%)
   displ. norm   :     0.0161260 α      lambda       -0.1262311E-05
   maximum displ.:     0.0111903 α      in ANC's #2, #10, #9, ...

........................................................................
.............................. CYCLE   17 ..............................
........................................................................

 iter      E             dE          RMSdq      gap      omega  full diag
   1   -116.0702760 -0.116070E+03  0.410E-03    0.26       0.0  T
   2   -116.0702759  0.102101E-06  0.255E-03    0.26       4.8  T
   3   -116.0702715  0.439219E-05  0.570E-03    0.26       2.1  T
   4   -116.0702750 -0.355112E-05  0.272E-03    0.26       4.5  T
   5   -116.0702760 -0.946933E-06  0.612E-04    0.26      20.0  T
   6   -116.0702760 -0.492332E-07  0.102E-04    0.26     120.3  T
     SCC iter.                  ...        0 min,  0.040 sec
     gradient                   ...        0 min,  0.009 sec
 * total energy  :  -114.3217827 Eh     change       -0.1304914E-05 Eh
   gradient norm :     0.0002241 Eh/α   predicted    -0.6326481E-06 ( -51.52%)
   displ. norm   :     0.0161260 α      lambda        0.0000000E+00
   maximum displ.:     0.0111903 α      in ANC's #2, #10, #9, ...

........................................................................
.............................. CYCLE   18 ..............................
........................................................................

 iter      E             dE          RMSdq      gap      omega  full diag
   1   -116.0701446 -0.116070E+03  0.410E-03    0.26       0.0  T
   2   -116.0701445  0.957781E-07  0.255E-03    0.26       4.8  T
   3   -116.0701402  0.430839E-05  0.566E-03    0.26       2.2  T
   4   -116.0701437 -0.347477E-05  0.271E-03    0.26       4.5  T
   5   -116.0701446 -0.933317E-06  0.603E-04    0.26      20.2  T
   6   -116.0701447 -0.477282E-07  0.104E-04    0.26     117.2  T
     SCC iter.                  ...        0 min,  0.040 sec
     gradient                   ...        0 min,  0.009 sec
 * total energy  :  -114.3217828 Eh     change       -0.1318286E-06 Eh
   gradient norm :     0.0007507 Eh/α   predicted    -0.3834532E-08 ( -97.09%)
   displ. norm   :     0.0066882 α      lambda       -0.6372802E-06
   maximum displ.:     0.0055770 α      in ANC's #2, #4, #3, ...

........................................................................
.............................. CYCLE   19 ..............................
........................................................................

 iter      E             dE          RMSdq      gap      omega  full diag
   1   -116.0702041 -0.116070E+03  0.155E-03    0.26       0.0  T
   2   -116.0702040  0.249244E-07  0.102E-03    0.26      12.0  T
   3   -116.0702032  0.884305E-06  0.258E-03    0.26       4.7  T
   4   -116.0702040 -0.841813E-06  0.785E-04    0.26      15.6  T
   5   -116.0702041 -0.764469E-07  0.152E-04    0.26      80.3  T
     SCC iter.                  ...        0 min,  0.034 sec
     gradient                   ...        0 min,  0.009 sec
 * total energy  :  -114.3217837 Eh     change       -0.8150882E-06 Eh
   gradient norm :     0.0004689 Eh/α   predicted    -0.3207217E-06 ( -60.65%)
   displ. norm   :     0.0158695 α      lambda       -0.1016852E-05
   maximum displ.:     0.0134614 α      in ANC's #2, #4, #3, ...

........................................................................
.............................. CYCLE   20 ..............................
........................................................................

 iter      E             dE          RMSdq      gap      omega  full diag
   1   -116.0703219 -0.116070E+03  0.298E-03    0.26       0.0  T
   2   -116.0703215  0.377509E-06  0.240E-03    0.26       5.1  T
   3   -116.0703176  0.392432E-05  0.562E-03    0.26       2.2  T
   4   -116.0703218 -0.418697E-05  0.995E-04    0.26      12.3  T
   5   -116.0703219 -0.130581E-06  0.369E-04    0.26      33.1  T
   6   -116.0703219 -0.182287E-07  0.747E-05    0.26     163.5  T
     SCC iter.                  ...        0 min,  0.040 sec
     gradient                   ...        0 min,  0.009 sec
 * total energy  :  -114.3217848 Eh     change       -0.1105050E-05 Eh
   gradient norm :     0.0001254 Eh/α   predicted    -0.5110934E-06 ( -53.75%)
   displ. norm   :     0.0167784 α      lambda       -0.5781444E-06
   maximum displ.:     0.0144965 α      in ANC's #2, #3, #4, ...
 * RMSD in coord.:     0.1129773 α      energy gain  -0.6207613E-02 Eh

generating ANC from exact Hessian ...
Using Lindh-Hessian (1995)
 Shifting diagonal of input Hessian by   9.922225769862240E-003
 Lowest  eigenvalues of input Hessian
    0.000000    0.000000    0.000000    0.000000    0.000000    0.000000
    0.010000    0.010052    0.010149    0.010552    0.010906    0.010993
    0.011511    0.011610    0.011908    0.012037    0.012366    0.012776
 Highest eigenvalues
    2.179980    2.205898    2.215471    2.260579    2.280526    2.631167
 

........................................................................
.............................. CYCLE   21 ..............................
........................................................................

 iter      E             dE          RMSdq      gap      omega  full diag
   1   -116.0703450 -0.116070E+03  0.273E-03    0.26       0.0  T
   2   -116.0703449  0.118744E-06  0.186E-03    0.26       6.6  T
   3   -116.0703409  0.401867E-05  0.545E-03    0.26       2.2  T
   4   -116.0703449 -0.403194E-05  0.102E-03    0.26      12.0  T
   5   -116.0703450 -0.119357E-06  0.994E-05    0.26     122.9  T
   6   -116.0703450 -0.286477E-09  0.788E-05    0.26     155.1  T
     SCC iter.                  ...        0 min,  0.040 sec
     gradient                   ...        0 min,  0.009 sec
 * total energy  :  -114.3217855 Eh     change       -0.7871622E-06 Eh
   gradient norm :     0.0002804 Eh/α   predicted     0.0000000E+00 (-100.00%)
   displ. norm   :     0.0085986 α      lambda       -0.4045542E-06
   maximum displ.:     0.0083050 α      in ANC's #2, #3, #31, ...

........................................................................
.............................. CYCLE   22 ..............................
........................................................................

 iter      E             dE          RMSdq      gap      omega  full diag
   1   -116.0702904 -0.116070E+03  0.133E-03    0.26       0.0  T
   2   -116.0702904 -0.211223E-08  0.799E-04    0.26      15.3  T
   3   -116.0702903  0.392704E-07  0.644E-04    0.26      19.0  T
     SCC iter.                  ...        0 min,  0.020 sec
     gradient                   ...        0 min,  0.009 sec
 * total energy  :  -114.3217861 Eh     change       -0.5319442E-06 Eh
   gradient norm :     0.0001067 Eh/α   predicted    -0.2221853E-06 ( -58.23%)
   displ. norm   :     0.0110153 α      lambda       -0.4195694E-06
   maximum displ.:     0.0104523 α      in ANC's #2, #3, #7, ...

........................................................................
.............................. CYCLE   23 ..............................
........................................................................

 iter      E             dE          RMSdq      gap      omega  full diag
   1   -116.0702497 -0.116070E+03  0.174E-03    0.26       0.0  T
   2   -116.0702492  0.413974E-06  0.199E-03    0.26       6.1  T
   3   -116.0702489  0.355336E-06  0.250E-03    0.26       4.9  T
   4   -116.0702497 -0.760679E-06  0.527E-04    0.26      23.2  T
   5   -116.0702497 -0.261155E-07  0.274E-04    0.26      44.5  T
     SCC iter.                  ...        0 min,  0.033 sec
     gradient                   ...        0 min,  0.009 sec
 * total energy  :  -114.3217867 Eh     change       -0.6134474E-06 Eh
   gradient norm :     0.0001781 Eh/α   predicted    -0.2141695E-06 ( -65.09%)
   displ. norm   :     0.0107962 α      lambda       -0.3790607E-06
   maximum displ.:     0.0100752 α      in ANC's #2, #3, #7, ...

........................................................................
.............................. CYCLE   24 ..............................
........................................................................

 iter      E             dE          RMSdq      gap      omega  full diag
   1   -116.0702377 -0.116070E+03  0.152E-03    0.26       0.0  T
   2   -116.0702376  0.393764E-07  0.104E-03    0.26      11.7  T
   3   -116.0702365  0.113050E-05  0.290E-03    0.26       4.2  T
   4   -116.0702376 -0.109263E-05  0.798E-04    0.26      15.3  T
   5   -116.0702377 -0.817435E-07  0.900E-05    0.26     135.7  T
   6   -116.0702377 -0.903484E-09  0.357E-05    0.26     342.2  T
     SCC iter.                  ...        0 min,  0.040 sec
     gradient                   ...        0 min,  0.009 sec
 * total energy  :  -114.3217873 Eh     change       -0.5671833E-06 Eh
   gradient norm :     0.0002148 Eh/α   predicted    -0.1928044E-06 ( -66.01%)
   displ. norm   :     0.0106771 α      lambda       -0.3889531E-06
   maximum displ.:     0.0097023 α      in ANC's #2, #3, #7, ...

........................................................................
.............................. CYCLE   25 ..............................
........................................................................

 iter      E             dE          RMSdq      gap      omega  full diag
   1   -116.0702456 -0.116070E+03  0.142E-03    0.26       0.0  T
   2   -116.0702455  0.144530E-06  0.138E-03    0.26       8.9  T
   3   -116.0702451  0.386184E-06  0.204E-03    0.26       6.0  T
   4   -116.0702455 -0.343709E-06  0.123E-03    0.26       9.9  T
   5   -116.0702457 -0.199612E-06  0.149E-04    0.26      81.9  T
   6   -116.0702457 -0.318579E-08  0.462E-05    0.26     264.2  T
     SCC iter.                  ...        0 min,  0.040 sec
     gradient                   ...        0 min,  0.009 sec
 * total energy  :  -114.3217878 Eh     change       -0.5721200E-06 Eh
   gradient norm :     0.0001607 Eh/α   predicted    -0.1975107E-06 ( -65.48%)
   displ. norm   :     0.0123760 α      lambda       -0.4452070E-06
   maximum displ.:     0.0109109 α      in ANC's #2, #3, #7, ...

........................................................................
.............................. CYCLE   26 ..............................
........................................................................

 iter      E             dE          RMSdq      gap      omega  full diag
   1   -116.0702676 -0.116070E+03  0.162E-03    0.26       0.0  T
   2   -116.0702676  0.100729E-07  0.100E-03    0.26      12.2  T
   3   -116.0702667  0.905561E-06  0.254E-03    0.26       4.8  T
   4   -116.0702676 -0.878828E-06  0.554E-04    0.26      22.0  T
   5   -116.0702676 -0.380239E-07  0.906E-05    0.26     134.8  T
     SCC iter.                  ...        0 min,  0.033 sec
     gradient                   ...        0 min,  0.009 sec
 * total energy  :  -114.3217885 Eh     change       -0.6450519E-06 Eh
   gradient norm :     0.0000881 Eh/α   predicted    -0.2232804E-06 ( -65.39%)
   displ. norm   :     0.0146781 α      lambda       -0.4890408E-06
   maximum displ.:     0.0125567 α      in ANC's #2, #3, #7, ...

........................................................................
.............................. CYCLE   27 ..............................
........................................................................

 iter      E             dE          RMSdq      gap      omega  full diag
   1   -116.0702960 -0.116070E+03  0.201E-03    0.26       0.0  T
   2   -116.0702959  0.511298E-07  0.132E-03    0.26       9.3  T
   3   -116.0702935  0.246186E-05  0.422E-03    0.26       2.9  T
   4   -116.0702959 -0.249820E-05  0.405E-04    0.26      30.1  T
   5   -116.0702960 -0.163608E-07  0.154E-04    0.26      79.3  T
   6   -116.0702960 -0.323085E-08  0.287E-05    0.26     425.4  T
     SCC iter.                  ...        0 min,  0.040 sec
     gradient                   ...        0 min,  0.009 sec
 * total energy  :  -114.3217892 Eh     change       -0.7187241E-06 Eh
   gradient norm :     0.0000793 Eh/α   predicted    -0.2465145E-06 ( -65.70%)
   displ. norm   :     0.0166670 α      lambda       -0.5204864E-06
   maximum displ.:     0.0139065 α      in ANC's #2, #3, #7, ...

........................................................................
.............................. CYCLE   28 ..............................
........................................................................

 iter      E             dE          RMSdq      gap      omega  full diag
   1   -116.0703095 -0.116070E+03  0.230E-03    0.26       0.0  T
   2   -116.0703095  0.479352E-07  0.148E-03    0.26       8.3  T
   3   -116.0703063  0.313666E-05  0.473E-03    0.26       2.6  T
   4   -116.0703095 -0.318087E-05  0.294E-04    0.26      41.5  T
   5   -116.0703095 -0.700697E-08  0.103E-04    0.26     119.1  T
   6   -116.0703095 -0.142059E-08  0.422E-05    0.26     289.3  T
     SCC iter.                  ...        0 min,  0.040 sec
     gradient                   ...        0 min,  0.009 sec
 * total energy  :  -114.3217900 Eh     change       -0.7675684E-06 Eh
   gradient norm :     0.0001209 Eh/α   predicted    -0.2634255E-06 ( -65.68%)
   displ. norm   :     0.0182324 α      lambda       -0.5489424E-06
   maximum displ.:     0.0148703 α      in ANC's #2, #3, #8, ...

........................................................................
.............................. CYCLE   29 ..............................
........................................................................

 iter      E             dE          RMSdq      gap      omega  full diag
   1   -116.0703187 -0.116070E+03  0.252E-03    0.26       0.0  T
   2   -116.0703187  0.679803E-07  0.164E-03    0.26       7.4  T
   3   -116.0703148  0.390758E-05  0.530E-03    0.26       2.3  T
   4   -116.0703187 -0.397276E-05  0.321E-04    0.26      38.1  T
   5   -116.0703187 -0.834498E-08  0.706E-05    0.26     173.1  T
   6   -116.0703187 -0.362220E-09  0.288E-05    0.26     424.4  T
     SCC iter.                  ...        0 min,  0.040 sec
     gradient                   ...        0 min,  0.011 sec
 * total energy  :  -114.3217908 Eh     change       -0.8076069E-06 Eh
   gradient norm :     0.0001371 Eh/α   predicted    -0.2770936E-06 ( -65.69%)
   displ. norm   :     0.0201042 α      lambda       -0.5855072E-06
   maximum displ.:     0.0161113 α      in ANC's #2, #3, #8, ...

........................................................................
.............................. CYCLE   30 ..............................
........................................................................

 iter      E             dE          RMSdq      gap      omega  full diag
   1   -116.0703220 -0.116070E+03  0.276E-03    0.26       0.0  T
   2   -116.0703220  0.241439E-07  0.168E-03    0.26       7.3  T
   3   -116.0703191  0.284671E-05  0.448E-03    0.26       2.7  T
   4   -116.0703220 -0.286280E-05  0.322E-04    0.26      37.9  T
   5   -116.0703220 -0.943278E-08  0.132E-04    0.26      92.5  T
   6   -116.0703220 -0.248775E-08  0.378E-05    0.26     323.5  T
     SCC iter.                  ...        0 min,  0.042 sec
     gradient                   ...        0 min,  0.009 sec
 * total energy  :  -114.3217916 Eh     change       -0.8656264E-06 Eh
   gradient norm :     0.0001199 Eh/α   predicted    -0.2953900E-06 ( -65.88%)
   displ. norm   :     0.0220750 α      lambda       -0.6239367E-06
   maximum displ.:     0.0174764 α      in ANC's #2, #3, #8, ...

........................................................................
.............................. CYCLE   31 ..............................
........................................................................

 iter      E             dE          RMSdq      gap      omega  full diag
   1   -116.0703179 -0.116070E+03  0.302E-03    0.26       0.0  T
   2   -116.0703179  0.713551E-08  0.180E-03    0.26       6.8  T
   3   -116.0703169  0.100746E-05  0.264E-03    0.26       4.6  T
   4   -116.0703178 -0.953875E-06  0.673E-04    0.26      18.2  T
   5   -116.0703179 -0.616767E-07  0.152E-04    0.26      80.3  T
     SCC iter.                  ...        0 min,  0.033 sec
     gradient                   ...        0 min,  0.009 sec
 * total energy  :  -114.3217926 Eh     change       -0.9167217E-06 Eh
   gradient norm :     0.0000885 Eh/α   predicted    -0.3143486E-06 ( -65.71%)
   displ. norm   :     0.0231028 α      lambda       -0.6340570E-06
   maximum displ.:     0.0182278 α      in ANC's #2, #3, #8, ...

........................................................................
.............................. CYCLE   32 ..............................
........................................................................

 iter      E             dE          RMSdq      gap      omega  full diag
   1   -116.0703109 -0.116070E+03  0.315E-03    0.26       0.0  T
   2   -116.0703109  0.336679E-08  0.187E-03    0.26       6.5  T
   3   -116.0703102  0.736056E-06  0.227E-03    0.26       5.4  T
   4   -116.0703109 -0.715588E-06  0.449E-04    0.26      27.2  T
   5   -116.0703109 -0.245097E-07  0.140E-04    0.26      87.3  T
     SCC iter.                  ...        0 min,  0.034 sec
     gradient                   ...        0 min,  0.009 sec
 * total energy  :  -114.3217935 Eh     change       -0.9245265E-06 Eh
   gradient norm :     0.0000539 Eh/α   predicted    -0.3212664E-06 ( -65.25%)
   displ. norm   :     0.0233208 α      lambda       -0.6097858E-06
   maximum displ.:     0.0183819 α      in ANC's #2, #3, #8, ...

........................................................................
.............................. CYCLE   33 ..............................
........................................................................

 iter      E             dE          RMSdq      gap      omega  full diag
   1   -116.0703051 -0.116070E+03  0.317E-03    0.26       0.0  T
   2   -116.0703051  0.153744E-08  0.188E-03    0.26       6.5  T
   3   -116.0703049  0.161548E-06  0.108E-03    0.26      11.3  T
   4   -116.0703051 -0.141250E-06  0.431E-04    0.26      28.3  T
   5   -116.0703051 -0.171247E-07  0.245E-04    0.26      49.9  T
     SCC iter.                  ...        0 min,  0.034 sec
     gradient                   ...        0 min,  0.009 sec
 * total energy  :  -114.3217944 Eh     change       -0.8832493E-06 Eh
   gradient norm :     0.0000627 Eh/α   predicted    -0.3075086E-06 ( -65.18%)
   displ. norm   :     0.0229207 α      lambda       -0.5616268E-06
   maximum displ.:     0.0180482 α      in ANC's #2, #3, #8, ...

........................................................................
.............................. CYCLE   34 ..............................
........................................................................

 iter      E             dE          RMSdq      gap      omega  full diag
   1   -116.0703049 -0.116070E+03  0.311E-03    0.26       0.0  T
   2   -116.0703048  0.490586E-07  0.194E-03    0.26       6.3  T
   3   -116.0703008  0.406797E-05  0.537E-03    0.26       2.3  T
   4   -116.0703048 -0.398660E-05  0.986E-04    0.26      12.4  T
   5   -116.0703049 -0.136738E-06  0.900E-05    0.26     135.7  T
   6   -116.0703049 -0.612047E-09  0.394E-05    0.26     310.0  T
     SCC iter.                  ...        0 min,  0.040 sec
     gradient                   ...        0 min,  0.009 sec
 * total energy  :  -114.3217952 Eh     change       -0.8457226E-06 Eh
   gradient norm :     0.0000759 Eh/α   predicted    -0.2841288E-06 ( -66.40%)
   displ. norm   :     0.0223108 α      lambda       -0.5226129E-06
   maximum displ.:     0.0175816 α      in ANC's #2, #3, #1, ...

........................................................................
.............................. CYCLE   35 ..............................
........................................................................

 iter      E             dE          RMSdq      gap      omega  full diag
   1   -116.0703078 -0.116070E+03  0.302E-03    0.26       0.0  T
   2   -116.0703077  0.302512E-07  0.186E-03    0.26       6.6  T
   3   -116.0703051  0.262058E-05  0.433E-03    0.26       2.8  T
   4   -116.0703076 -0.246540E-05  0.118E-03    0.26      10.4  T
   5   -116.0703078 -0.190750E-06  0.100E-04    0.26     122.2  T
   6   -116.0703078 -0.953264E-09  0.432E-05    0.26     282.6  T
     SCC iter.                  ...        0 min,  0.040 sec
     gradient                   ...        0 min,  0.009 sec
 * total energy  :  -114.3217960 Eh     change       -0.7857196E-06 Eh
   gradient norm :     0.0000659 Eh/α   predicted    -0.2645458E-06 ( -66.33%)
   displ. norm   :     0.0211737 α      lambda       -0.4842924E-06
   maximum displ.:     0.0167526 α      in ANC's #2, #3, #1, ...

........................................................................
.............................. CYCLE   36 ..............................
........................................................................

 iter      E             dE          RMSdq      gap      omega  full diag
   1   -116.0703153 -0.116070E+03  0.285E-03    0.26       0.0  T
   2   -116.0703152  0.377538E-07  0.177E-03    0.26       6.9  T
   3   -116.0703118  0.342156E-05  0.493E-03    0.26       2.5  T
   4   -116.0703152 -0.338880E-05  0.761E-04    0.26      16.0  T
   5   -116.0703153 -0.746841E-07  0.853E-05    0.26     143.2  T
   6   -116.0703153 -0.691827E-09  0.413E-05    0.26     295.6  T
     SCC iter.                  ...        0 min,  0.040 sec
     gradient                   ...        0 min,  0.009 sec
 * total energy  :  -114.3217967 Eh     change       -0.7208922E-06 Eh
   gradient norm :     0.0000508 Eh/α   predicted    -0.2447789E-06 ( -66.05%)
   displ. norm   :     0.0200735 α      lambda       -0.4378530E-06
   maximum displ.:     0.0159704 α      in ANC's #2, #3, #1, ...

........................................................................
.............................. CYCLE   37 ..............................
........................................................................

 iter      E             dE          RMSdq      gap      omega  full diag
   1   -116.0703216 -0.116070E+03  0.269E-03    0.26       0.0  T
   2   -116.0703216  0.143993E-07  0.162E-03    0.26       7.5  T
   3   -116.0703198  0.178848E-05  0.356E-03    0.26       3.4  T
   4   -116.0703216 -0.176342E-05  0.573E-04    0.26      21.3  T
   5   -116.0703216 -0.417211E-07  0.785E-05    0.26     155.6  T
   6   -116.0703216 -0.550855E-09  0.390E-05    0.26     313.3  T
     SCC iter.                  ...        0 min,  0.040 sec
     gradient                   ...        0 min,  0.009 sec
 * total energy  :  -114.3217974 Eh     change       -0.6600167E-06 Eh
   gradient norm :     0.0000448 Eh/α   predicted    -0.2211791E-06 ( -66.49%)
   displ. norm   :     0.0187109 α      lambda       -0.3893348E-06
   maximum displ.:     0.0149823 α      in ANC's #2, #3, #1, ...

........................................................................
.............................. CYCLE   38 ..............................
........................................................................

 iter      E             dE          RMSdq      gap      omega  full diag
   1   -116.0703263 -0.116070E+03  0.249E-03    0.26       0.0  T
   2   -116.0703263  0.589023E-08  0.149E-03    0.26       8.2  T
   3   -116.0703254  0.898319E-06  0.251E-03    0.26       4.9  T
   4   -116.0703263 -0.884839E-06  0.421E-04    0.26      29.1  T
   5   -116.0703263 -0.207376E-07  0.768E-05    0.26     159.1  T
     SCC iter.                  ...        0 min,  0.034 sec
     gradient                   ...        0 min,  0.009 sec
 * total energy  :  -114.3217980 Eh     change       -0.5947467E-06 Eh
   gradient norm :     0.0000460 Eh/α   predicted    -0.1975179E-06 ( -66.79%)
   displ. norm   :     0.0168040 α      lambda       -0.3432741E-06
   maximum displ.:     0.0135922 α      in ANC's #2, #3, #1, ...

........................................................................
.............................. CYCLE   39 ..............................
........................................................................

 iter      E             dE          RMSdq      gap      omega  full diag
   1   -116.0703299 -0.116070E+03  0.222E-03    0.26       0.0  T
   2   -116.0703299 -0.200259E-09  0.131E-03    0.26       9.3  T
   3   -116.0703298  0.485240E-07  0.588E-04    0.26      20.8  T
   4   -116.0703298 -0.241948E-07  0.428E-04    0.26      28.5  T
     SCC iter.                  ...        0 min,  0.027 sec
     gradient                   ...        0 min,  0.009 sec
 * total energy  :  -114.3217985 Eh     change       -0.4966837E-06 Eh
   gradient norm :     0.0000710 Eh/α   predicted    -0.1755572E-06 ( -64.65%)
   displ. norm   :     0.0148585 α      lambda       -0.3129259E-06
   maximum displ.:     0.0122651 α      in ANC's #2, #3, #1, ...

........................................................................
.............................. CYCLE   40 ..............................
........................................................................

 iter      E             dE          RMSdq      gap      omega  full diag
   1   -116.0703345 -0.116070E+03  0.199E-03    0.26       0.0  T
   2   -116.0703341  0.487434E-06  0.223E-03    0.26       5.5  T
   3   -116.0703336  0.497011E-06  0.279E-03    0.26       4.4  T
   4   -116.0703345 -0.984132E-06  0.438E-04    0.26      27.9  T
   5   -116.0703346 -0.236185E-07  0.982E-05    0.26     124.4  T
     SCC iter.                  ...        0 min,  0.034 sec
     gradient                   ...        0 min,  0.009 sec
 * total energy  :  -114.3217989 Eh     change       -0.4801108E-06 Eh
   gradient norm :     0.0000651 Eh/α   predicted    -0.1577626E-06 ( -67.14%)
   displ. norm   :     0.0124847 α      lambda       -0.2597190E-06
   maximum displ.:     0.0105611 α      in ANC's #2, #3, #1, ...

........................................................................
.............................. CYCLE   41 ..............................
........................................................................

 iter      E             dE          RMSdq      gap      omega  full diag
   1   -116.0703346 -0.116070E+03  0.160E-03    0.26       0.0  T
   2   -116.0703345  0.508970E-07  0.113E-03    0.26      10.8  T
   3   -116.0703329  0.166565E-05  0.348E-03    0.26       3.5  T
   4   -116.0703346 -0.171826E-05  0.110E-04    0.26     111.2  T
   5   -116.0703346 -0.918959E-09  0.508E-05    0.26     240.6  T
   6   -116.0703346 -0.306727E-09  0.204E-05    0.26     600.1  T
     SCC iter.                  ...        0 min,  0.040 sec
     gradient                   ...        0 min,  0.009 sec
 * total energy  :  -114.3217993 Eh     change       -0.3876822E-06 Eh
   gradient norm :     0.0000524 Eh/α   predicted    -0.1305802E-06 ( -66.32%)
   displ. norm   :     0.0103681 α      lambda       -0.2115109E-06
   maximum displ.:     0.0089117 α      in ANC's #2, #3, #1, ...

........................................................................
.............................. CYCLE   42 ..............................
........................................................................

 iter      E             dE          RMSdq      gap      omega  full diag
   1   -116.0703361 -0.116070E+03  0.130E-03    0.26       0.0  T
   2   -116.0703360  0.462475E-07  0.965E-04    0.26      12.7  T
   3   -116.0703350  0.100870E-05  0.274E-03    0.26       4.5  T
   4   -116.0703361 -0.105655E-05  0.108E-04    0.26     112.6  T
   5   -116.0703361 -0.879055E-09  0.317E-05    0.26     385.2  T
     SCC iter.                  ...        0 min,  0.033 sec
     gradient                   ...        0 min,  0.009 sec
 * total energy  :  -114.3217997 Eh     change       -0.3203903E-06 Eh
   gradient norm :     0.0000441 Eh/α   predicted    -0.1104900E-06 ( -65.51%)
   displ. norm   :     0.0096406 α      lambda       -0.1957702E-06
   maximum displ.:     0.0085220 α      in ANC's #2, #3, #1, ...
 * RMSD in coord.:     0.0434211 α      energy gain  -0.1489290E-04 Eh

generating ANC from exact Hessian ...
Using Lindh-Hessian (1995)
 Shifting diagonal of input Hessian by   9.921911819979338E-003
 Lowest  eigenvalues of input Hessian
    0.000000    0.000000    0.000000    0.000000    0.000000    0.000000
    0.010000    0.010052    0.010148    0.010552    0.010910    0.010990
    0.011514    0.011612    0.011910    0.012042    0.012370    0.012777
 Highest eigenvalues
    2.179926    2.205920    2.215488    2.260753    2.280500    2.631176
 

........................................................................
.............................. CYCLE   43 ..............................
........................................................................

 iter      E             dE          RMSdq      gap      omega  full diag
   1   -116.0703377 -0.116070E+03  0.118E-03    0.26       0.0  T
   2   -116.0703376  0.354823E-07  0.863E-04    0.26      14.2  T
   3   -116.0703368  0.842471E-06  0.250E-03    0.26       4.9  T
   4   -116.0703377 -0.877756E-06  0.132E-04    0.26      92.3  T
     SCC iter.                  ...        0 min,  0.027 sec
     gradient                   ...        0 min,  0.009 sec
 * total energy  :  -114.3218000 Eh     change       -0.3007117E-06 Eh
   gradient norm :     0.0000407 Eh/α   predicted     0.0000000E+00 (-100.00%)
   displ. norm   :     0.0000610 α      lambda        0.0000000E+00
   maximum displ.:     0.0000566 α      in ANC's #2, #3, #122, ...

........................................................................
.............................. CYCLE   44 ..............................
........................................................................

 iter      E             dE          RMSdq      gap      omega  full diag
   1   -116.0703362 -0.116070E+03  0.399E-05    0.26       0.0  T
   2   -116.0703362  0.174950E-09  0.427E-05    0.26     286.0  T
   3   -116.0703362  0.175362E-10  0.442E-05    0.26     276.6  T
     SCC iter.                  ...        0 min,  0.020 sec
     gradient                   ...        0 min,  0.009 sec
 * total energy  :  -114.3218000 Eh     change       -0.4271300E-08 Eh
   gradient norm :     0.0000403 Eh/α   predicted    -0.1563420E-08 ( -63.40%)
   displ. norm   :     0.0000610 α      lambda        0.0000000E+00
   maximum displ.:     0.0000566 α      in ANC's #2, #3, #122, ...

   *** GEOMETRY OPTIMIZATION CONVERGED AFTER 44 ITERATIONS ***

------------------------------------------------------------------------
 total energy gain   :        -0.0062228 Eh       -3.9049 kcal/mol
 total RMSD          :         0.1342047 a0        0.0710 Å
 total power (kW/mol):        -0.3713179 (step)   -6.3310 (real)
------------------------------------------------------------------------

 ANCopt (total)                0 d,  0 h,  0 min,  2.581 sec
 optimizer setup                ...        0 min,  0.000 sec (  0.010%)
 model hessian                  ...        0 min,  0.070 sec (  2.728%)
 ANC generation                 ...        0 min,  0.012 sec (  0.455%)
 coordinate transformation      ...        0 min,  0.004 sec (  0.165%)
 single point calculation       ...        0 min,  2.469 sec ( 95.665%)
 optimization log               ...        0 min,  0.011 sec (  0.409%)
 hessian update                 ...        0 min,  0.005 sec (  0.209%)
 rational function              ...        0 min,  0.005 sec (  0.193%)

================
 final structure:
================
67
 xtb: 6.7.1 (edcfbbe)
C            5.61332976431759       -4.81475158948633        0.63324322350592
O            4.31607180047811       -4.58161306438993        0.12144433806619
C            3.89020978369326       -3.30515665418084       -0.03242844329933
C            2.58903333414021       -3.16868774777179       -0.55089315739313
C            2.01719454907278       -1.93467939847236       -0.75299714896256
C            2.75046538796183       -0.80232717870712       -0.41660328592872
C            4.07967157996099       -0.92831671563180        0.05352612558402
C            4.64956921555092       -2.17480685820658        0.25820121263708
C            4.59252105964733        0.40955433293099        0.18820146783192
C            5.81169751109020        0.92201090436536        0.58559046396497
C            5.99391755218196        2.30907218356505        0.59056871008804
O            7.22025132276142        2.73011902094733        0.98717740062338
C            7.50089983062239        4.11464325973986        1.02073978938429
C            4.94948559624993        3.15972075590980        0.20515685119579
C            3.72497334105589        2.65504105570284       -0.19238769759967
C            3.54768855262836        1.28100891235104       -0.20854003759879
N            2.43119555700411        0.53509035441704       -0.54359250534825
C            1.19952366872102        1.06782496674653       -0.89985885432002
N            1.19282258221194        2.13516234453566       -1.65198064204378
C            0.01629387952831        2.67652722699289       -1.98521334598167
N           -1.17725769114553        2.17136317373134       -1.65620261331032
C           -1.22065465920753        1.10595007875265       -0.90263558360665
N           -2.46971051677174        0.61467198392656       -0.54810386954583
C           -3.56402188157208        1.39641528547215       -0.22551686550082
C           -3.70009610328271        2.78011977798689       -0.22590984986571
C           -4.90743389567061        3.31140883764504        0.16492114703864
C           -5.98386340506733        2.49457179702750        0.56155911150872
O           -7.10882423620379        3.15973172503174        0.91729970021092
C           -8.24021115062213        2.42104575392759        1.33303809150906
C           -5.84738125145444        1.10838508794416        0.57154727080829
C           -4.63423845002077        0.56492339109038        0.17838866993122
C           -4.16482539422597       -0.79083059511062        0.06391871316390
C           -4.75784630690361       -2.01762759427729        0.28286444787372
C           -4.02772712229099       -3.18090983102072        0.01717670376117
O           -4.67488895769894       -4.34415409060897        0.27011280737726
C           -4.00816008010876       -5.57024504358023        0.04678637011552
C           -2.72920216983610       -3.09284500040279       -0.49942594028931
C           -2.13078642397833       -1.86727449289068       -0.72159560262504
C           -2.82831644968738       -0.71239482470238       -0.40517356331667
C           -0.02074865477330        0.48099721103500       -0.37374367176540
C           -0.03175725188052       -0.31777854272235        0.73794505932758
N           -0.03843714633090       -1.00764828735594        1.67802222963359
H            6.38074258968367       -4.40150496109515       -0.02725930567296
H            5.72492277294759       -4.39582620076006        1.63708106487114
H            5.71639043162928       -5.89749475258968        0.67725451546843
H            2.04978597491836       -4.07012870064331       -0.79362117266975
H            1.02844613692491       -1.85709798521900       -1.17461686673477
H            5.65958603737074       -2.24457274422271        0.62552082980370
H            6.62618562322303        0.28585139151461        0.89111508663827
H            8.53335475535826        4.19173570913935        1.35733366040011
H            6.84766856583159        4.63634222103512        1.72583315702881
H            7.40619484481648        4.56440578948901        0.02843347998687
H            5.08696098087482        4.22830718556299        0.21222173502079
H            2.92841427277027        3.31430921697192       -0.49789743348570
H            0.03061676815072        3.55551078044785       -2.60740550147247
H           -2.88475076562212        3.41225594967142       -0.53805403079718
H           -5.06059719375051        4.37870017556633        0.17624539757788
H           -8.59808876641470        1.76204770662222        0.53712061518996
H           -8.02297088620767        1.83336697224762        2.22936921137733
H           -9.00321735298762        3.16321411012925        1.56084544799551
H           -6.65003724880329        0.45710545373004        0.87401153425024
H           -5.76782888468732       -2.10591024441268        0.64831714952448
H           -3.76014939711529       -5.70084943209535       -1.01041197011683
H           -3.09961838494707       -5.64464272185100        0.65073060453856
H           -4.71277144280214       -6.34183168047428        0.35216513305332
H           -2.17472155702713       -3.98471510740596       -0.73942838484973
H           -1.13988787210900       -1.82571627411389       -1.14375937033705
 
 Bond Distances (Angstroems)
 ---------------------------
C1-O2=1.4139         C1-H43=1.0936        C1-H44=1.0935        C1-H45=1.0885        O2-C1=1.4139         O2-C3=1.3544         
C3-O2=1.3544         C3-C4=1.4073         C3-C8=1.3924         C4-C3=1.4073         C4-C5=1.3750         C4-H46=1.0781        
C5-C4=1.3750         C5-C6=1.3903         C5-H47=1.0777        C6-C5=1.3903         C6-C7=1.4155         C6-N17=1.3808        
C7-C6=1.4155         C7-C8=1.3858         C7-C9=1.4391         C8-C3=1.3924         C8-C7=1.3858         C8-H48=1.0770        
C9-C7=1.4391         C9-C10=1.3809        C9-C16=1.4172        C10-C9=1.3809        C10-C11=1.3990       C10-H49=1.0777       
C11-C10=1.3990       C11-O12=1.3559       C11-C14=1.4011       O12-C11=1.3559       O12-C13=1.4131       C13-O12=1.4131       
C13-H50=1.0887       C13-H51=1.0936       C13-H52=1.0936       C14-C11=1.4011       C14-C15=1.3828       C14-H53=1.0774       
C15-C14=1.3828       C15-C16=1.3855       C15-H54=1.0782       C16-C9=1.4172        C16-C15=1.3855       C16-N17=1.3839       
N17-C6=1.3808        N17-C16=1.3839       N17-C18=1.3884       C18-N17=1.3884       C18-N19=1.3057       C18-C40=1.4527       
N19-C18=1.3057       N19-C20=1.3373       C20-N19=1.3373       C20-N21=1.3372       C20-H55=1.0770       N21-C20=1.3372       
N21-C22=1.3057       C22-N21=1.3057       C22-N23=1.3882       C22-C40=1.4526       N23-C22=1.3882       N23-C24=1.3830       
N23-C39=1.3821       C24-N23=1.3830       C24-C25=1.3904       C24-C31=1.4142       C25-C24=1.3904       C25-C26=1.3757       
C25-H56=1.0779       C26-C25=1.3757       C26-C27=1.4083       C26-H57=1.0783       C27-C26=1.4083       C27-O28=1.3544       
C27-C30=1.3929       O28-C27=1.3544       O28-C29=1.4137       C29-O28=1.4137       C29-H58=1.0935       C29-H59=1.0936       
C29-H60=1.0885       C30-C27=1.3929       C30-C31=1.3862       C30-H61=1.0770       C31-C24=1.4142       C31-C30=1.3862       
C31-C32=1.4393       C32-C31=1.4393       C32-C33=1.3801       C32-C39=1.4186       C33-C32=1.3801       C33-C34=1.3989       
C33-H62=1.0777       C34-C33=1.3989       C34-O35=1.3550       C34-C37=1.4003       O35-C34=1.3550       O35-C36=1.4134       
C36-O35=1.4134       C36-H63=1.0937       C36-H64=1.0935       C36-H65=1.0886       C37-C34=1.4003       C37-C38=1.3818       
C37-H66=1.0773       C38-C37=1.3818       C38-C39=1.3858       C38-H67=1.0779       C39-N23=1.3821       C39-C32=1.4186       
C39-C38=1.3858       C40-C18=1.4527       C40-C22=1.4526       C40-C41=1.3689       C41-C40=1.3689       C41-N42=1.1661       
N42-C41=1.1661       H43-C1=1.0936        H44-C1=1.0935        H45-C1=1.0885        H46-C4=1.0781        H47-C5=1.0777        
H48-C8=1.0770        H49-C10=1.0777       H50-C13=1.0887       H51-C13=1.0936       H52-C13=1.0936       H53-C14=1.0774       
H54-C15=1.0782       H55-C20=1.0770       H56-C25=1.0779       H57-C26=1.0783       H58-C29=1.0935       H59-C29=1.0936       
H60-C29=1.0885       H61-C30=1.0770       H62-C33=1.0777       H63-C36=1.0937       H64-C36=1.0935       H65-C36=1.0886       
H66-C37=1.0773       H67-C38=1.0779       
 C  H  Rav=1.0845 sigma=0.0073  Rmin=1.0770  Rmax=1.0937    25
 C  C  Rav=1.4006 sigma=0.0223  Rmin=1.3689  Rmax=1.4527    29
 N  C  Rav=1.3417 sigma=0.0636  Rmin=1.1661  Rmax=1.3884    11
 O  C  Rav=1.3842 sigma=0.0293  Rmin=1.3544  Rmax=1.4139     8
 
 selected bond angles (degree)
 --------------------
H43-C1-O2=111.28               H44-C1-O2=111.27               H44-C1-H43=109.76              H45-C1-O2=105.40               
H45-C1-H43=109.50              H45-C1-H44=109.53              C3-O2-C1=119.01                C4-C3-O2=115.09                
C8-C3-O2=124.74                C8-C3-C4=120.16                C5-C4-C3=121.72                H46-C4-C3=117.67               
H46-C4-C5=120.62               C6-C5-C4=118.43                H47-C5-C4=120.24               H47-C5-C6=121.33               
C7-C6-C5=120.21                N17-C6-C5=130.14               N17-C6-C7=109.50               C8-C7-C6=121.02                
C9-C7-C6=106.44                C9-C7-C8=132.52                C7-C8-C3=118.37                H48-C8-C3=122.01               
H48-C8-C7=119.62               C10-C9-C7=133.36               C16-C9-C7=106.42               C16-C9-C10=120.22              
C11-C10-C9=118.94              H49-C10-C9=121.99              H49-C10-C11=119.07             
 
 selected dihedral angles (degree)
 ---------------------------------
C3-O2-C1-H43=297.81           C3-O2-C1-H44= 60.55           C3-O2-C1-H45=179.19           C4-C3-O2-C1=179.83            
C8-C3-O2-C1=  1.11            C5-C4-C3-O2=179.51            C5-C4-C3-C8=358.30            H46-C4-C3-O2=359.13           
H46-C4-C3-C8=177.92           C6-C5-C4-C3=359.23            C6-C5-C4-H46=179.62           H47-C5-C4-C3=178.45           
H47-C5-C4-H46=358.85          C7-C6-C5-C4=  3.36            C7-C6-C5-H47=184.15           N17-C6-C5-C4=178.37           
N17-C6-C5-H47=359.15          C8-C7-C6-C5=356.39            C8-C7-C6-N17=180.44           C9-C7-C6-C5=174.71            
C9-C7-C6-N17=358.76           C7-C8-C3-O2=180.15            C7-C8-C3-C4=  1.49            H48-C8-C3-O2=  0.69           
H48-C8-C3-C4=182.03           C3-C8-C7-C6=  1.11            C3-C8-C7-C9=183.31            H48-C8-C7-C6=180.59           
H48-C8-C7-C9=  2.78           C10-C9-C7-C6=180.68           C10-C9-C7-C8=358.72           C16-C9-C7-C6=359.95           
C16-C9-C7-C8=177.99           C11-C10-C9-C7=179.27          C11-C10-C9-C16=  0.08         H49-C10-C9-C7=359.30          
H49-C10-C9-C16=180.11         
           -------------------------------------------------
          |                Final Singlepoint                |
           -------------------------------------------------

          ...................................................
          :                      SETUP                      :
          :.................................................:
          :  # basis functions                 193          :
          :  # atomic orbitals                 193          :
          :  # shells                          109          :
          :  # electrons                       206          :
          :  max. iterations                   250          :
          :  Hamiltonian                  GFN2-xTB          :
          :  restarted?                      false          :
          :  GBSA solvation                   true          :
          :  PC potential                    false          :
          :  electronic temp.          300.0000000     K    :
          :  accuracy                    1.0000000          :
          :  -> integral cutoff          0.2500000E+02      :
          :  -> integral neglect         0.1000000E-07      :
          :  -> SCF convergence          0.1000000E-05 Eh   :
          :  -> wf. convergence          0.1000000E-03 e    :
          :  Broyden damping             0.4000000          :
          :  net charge                          0          :
          :  unpaired electrons                  2          :
          ...................................................

 iter      E             dE          RMSdq      gap      omega  full diag
   1   -116.0703362 -0.116070E+03  0.284E-05    0.26       0.0  T
   2   -116.0703361  0.145876E-08  0.104E-04    0.26     117.5  T
   3   -116.0703362 -0.149807E-08  0.182E-05    0.26     672.8  T

   *** convergence criteria satisfied after 3 iterations ***

[...]
    23   7 N       24   6 C                                       1.3830049
    24   6 C       25   6 C                                       1.3903794
    25   6 C       26   6 C                                       1.3757477
    26   6 C       27   6 C                                       1.4082774
    27   6 C       28   8 O                                       1.3544469
    28   8 O       29   6 C                                       1.4136945
    27   6 C       30   6 C                                       1.3929254
    24   6 C       31   6 C                                       1.4141720
    30   6 C       31   6 C                                       1.3862323
    31   6 C       32   6 C                                       1.4392780 (max)
    32   6 C       33   6 C                                       1.3800878
    33   6 C       34   6 C                                       1.3988888
    34   6 C       35   8 O                                       1.3549659
    35   8 O       36   6 C                                       1.4134007
    34   6 C       37   6 C                                       1.4002861
    37   6 C       38   6 C                                       1.3818409
    23   7 N       39   6 C                                       1.3820760
    32   6 C       39   6 C                                       1.4186107
    38   6 C       39   6 C                                       1.3857916
    40   6 C       41   6 C                                       1.3689471
    41   6 C       42   7 N                                       1.1660661
     1   6 C       43   1 H                                       1.0935991
     1   6 C       44   1 H                                       1.0934542
     1   6 C       45   1 H                                       1.0885272
     4   6 C       46   1 H                                       1.0781005
     5   6 C       47   1 H                                       1.0776853
     8   6 C       48   1 H                                       1.0769982
    10   6 C       49   1 H                                       1.0776991
    13   6 C       50   1 H                                       1.0886699
    13   6 C       51   1 H                                       1.0936351
    13   6 C       52   1 H                                       1.0935847
    14   6 C       53   1 H                                       1.0774166
    15   6 C       54   1 H                                       1.0781824
    20   6 C       55   1 H                                       1.0770054
    25   6 C       56   1 H                                       1.0778768
    26   6 C       57   1 H                                       1.0782849
    29   6 C       58   1 H                                       1.0935445
    29   6 C       59   1 H                                       1.0936039
    29   6 C       60   1 H                                       1.0885260
    30   6 C       61   1 H                                       1.0769896 (min)
    33   6 C       62   1 H                                       1.0776894
    36   6 C       63   1 H                                       1.0937254
    36   6 C       64   1 H                                       1.0934953
    36   6 C       65   1 H                                       1.0886136
    37   6 C       66   1 H                                       1.0772569
    38   6 C       67   1 H                                       1.0778819

 * 4 distinct bonds (by element types)

   Z      Z             #   av. dist./Å        max./Å        min./Å
   1 H    6 C          25     1.0844818     1.0937254     1.0769896
   6 C    6 C          27     1.3967945     1.4392780     1.3689471
   6 C    7 N          11     1.3416781     1.3884336     1.1660661
   6 C    8 O           8     1.3842255     1.4139202     1.3543916

           -------------------------------------------------
          |               Frequency Printout                |
           -------------------------------------------------
 projected vibrational frequencies (cm⁻¹)
eigval :       -0.00     0.00     0.00     0.00     0.00     0.00
eigval :       12.09    16.45    20.75    34.69    52.85    54.01
eigval :       64.33    65.77    72.74    76.89    92.59   101.15
eigval :      105.27   109.06   115.41   119.11   129.97   135.47
eigval :      149.85   173.64   181.46   201.12   207.54   210.98
eigval :      215.15   223.11   228.47   234.67   247.44   249.85
eigval :      255.63   259.14   269.16   280.13   298.83   334.06
eigval :      338.16   339.39   366.34   376.96   382.70   391.49
eigval :      392.72   400.43   403.92   415.52   417.77   422.14
eigval :      435.40   466.90   469.77   480.53   500.97   510.70
eigval :      516.85   535.38   545.49   558.66   568.67   579.99
eigval :      581.56   588.86   608.89   609.73   610.42   625.22
eigval :      638.87   647.04   671.62   672.10   688.35   698.64
eigval :      699.46   708.46   721.84   751.63   773.10   784.14
eigval :      785.97   795.84   804.41   805.57   811.50   833.55
eigval :      842.22   844.50   852.13   883.57   888.61   894.98
eigval :      900.28   906.43   915.11   917.23   925.75   934.91
eigval :      955.04  1016.54  1020.84  1028.97  1045.37  1046.01
eigval :     1047.21  1050.16  1109.24  1111.71  1112.34  1112.43
eigval :     1113.10  1122.95  1126.02  1130.95  1145.67  1146.70
eigval :     1148.72  1152.81  1155.22  1169.49  1173.62  1181.81
eigval :     1182.62  1188.27  1193.93  1225.46  1231.02  1235.77
eigval :     1238.45  1251.89  1265.79  1269.72  1280.81  1294.95
eigval :     1320.09  1325.81  1345.39  1345.82  1359.21  1361.87
eigval :     1364.97  1390.81  1391.10  1391.40  1391.87  1412.23
eigval :     1413.55  1415.82  1426.52  1445.15  1447.28  1455.94
eigval :     1458.46  1458.57  1458.75  1459.56  1460.10  1466.50
eigval :     1468.92  1469.71  1470.58  1475.80  1486.21  1543.57
eigval :     1547.83  1555.58  1562.41  1564.62  1566.27  1578.36
eigval :     1594.91  2206.10  2945.07  2945.90  2946.34  2946.35
eigval :     2955.18  2956.22  2956.50  2956.61  3028.12  3028.83
eigval :     3029.49  3029.71  3098.60  3100.42  3102.75  3105.49
eigval :     3106.02  3113.92  3114.34  3115.16  3115.44  3120.18
eigval :     3121.23  3121.39  3122.21
 reduced masses (amu)
   1: 12.10   2: 12.12   3: 12.16   4: 12.13   5: 12.15   6: 12.13   7: 11.92   8: 12.06
   9: 11.89  10: 11.69  11: 11.45  12: 11.87  13: 10.32  14: 10.12  15: 10.68  16: 10.26
  17: 11.61  18: 11.77  19: 11.33  20: 11.38  21: 11.08  22: 12.03  23: 11.36  24: 11.54
  25: 11.56  26: 11.25  27: 11.03  28: 10.10  29:  5.99  30:  8.49  31:  7.57  32:  6.39
  33:  6.23  34:  6.86  35: 10.10  36:  9.43  37:  8.83  38:  9.41  39:  9.97  40: 10.99
  41: 12.19  42: 11.91  43: 11.05  44: 10.99  45: 11.79  46: 11.76  47: 11.65  48:  9.69
  49:  9.75  50: 11.88  51: 11.78  52:  9.75  53: 10.53  54:  9.90  55: 11.95  56: 11.74
  57: 11.53  58: 11.42  59: 11.97  60: 11.63  61: 11.32  62: 11.30  63: 11.05  64: 10.92
  65: 11.32  66: 11.99  67: 11.76  68: 11.80  69: 11.53  70: 11.09  71: 11.23  72: 11.66
  73: 11.64  74: 11.57  75: 11.82  76: 11.82  77: 12.07  78: 11.74  79: 11.75  80:  3.51
  81: 11.60  82: 11.42  83: 12.54  84: 12.03  85: 12.11  86:  4.91  87:  4.47  88:  4.73
  89:  4.59  90:  3.37  91:  3.49  92:  3.47  93:  3.51  94:  3.44  95: 11.60  96:  3.59
  97:  3.23  98:  3.30  99: 11.71 100: 11.62 101: 10.45 102: 10.44 103: 11.89 104:  8.86
 105:  8.11 106: 10.15 107: 11.21 108: 11.15 109: 10.49 110: 10.08 111:  3.73 112:  7.66
 113:  3.72 114:  3.75 115:  3.73 116:  4.75 117:  5.44 118:  5.78 119:  5.92 120:  5.31
 121:  7.80 122:  6.91 123:  8.48 124:  6.14 125:  7.83 126:  8.00 127:  8.06 128:  5.99
 129:  7.08 130:  4.94 131:  5.03 132:  7.70 133:  6.91 134:  7.63 135:  9.59 136:  9.08
 137: 11.03 138: 11.45 139: 12.18 140: 11.21 141: 11.48 142: 11.47 143: 12.15 144: 11.31
 145: 11.24 146:  2.92 147:  2.80 148:  2.76 149:  2.93 150:  9.80 151:  9.77 152: 10.18
 153: 10.54 154: 10.51 155: 10.39 156: 11.49 157:  1.55 158:  1.81 159:  1.55 160:  1.75
 161: 11.09 162:  4.20 163:  2.89 164:  2.35 165:  2.24 166:  8.37 167: 11.16 168: 11.74
 169: 11.75 170: 11.63 171: 11.68 172: 11.68 173: 11.73 174: 11.71 175: 11.73 176: 12.73
 177:  1.96 178:  1.94 179:  1.96 180:  1.95 181:  1.44 182:  1.44 183:  1.45 184:  1.46
 185:  1.71 186:  1.71 187:  1.71 188:  1.71 189:  1.77 190:  1.80 191:  1.78 192:  1.80
 193:  1.78 194:  1.83 195:  1.84 196:  1.87 197:  1.89 198:  1.86 199:  1.83 200:  1.83
 201:  1.85
 IR intensities (km·mol⁻¹)
   1:  0.65   2:  1.13   3:  0.40   4:  0.32   5:  0.71   6:  0.08   7:  0.62   8:  2.18
   9:  5.14  10:  1.29  11:  0.74  12:  1.17  13:  1.85  14:  0.26  15:  2.39  16:  1.37
  17:  1.73  18:  2.02  19: 10.20  20:  2.18  21:  3.76  22:  4.28  23:  4.58  24:  2.22
  25:  7.63  26:  9.42  27:  0.32  28:  5.14  29:  0.55  30:  1.00  31:  3.62  32:  4.29
  33:  0.58  34:  1.13  35: 23.58  36:  0.81  37: 16.58  38:  2.31  39:  7.75  40:  2.71
  41: 13.34  42: 16.78  43: 12.83  44:  0.91  45:  5.66  46:  5.46  47: 17.15  48:  4.70
  49:  4.82  50:  1.70  51: 15.62  52:  3.13  53: 32.63  54:  9.67  55: 26.25  56: 80.73
  57: 26.06  58: 52.03  59:  9.46  60:132.13  61: 35.86  62:  2.50  63: 12.56  64:  9.63
  65:  9.19  66:191.70  67:124.77  68:187.87  69: 19.60  70:  2.78  71:  7.92  72: 76.18
  73:  5.18  74: 13.69  75:  2.96  76:  1.72  77: 49.49  78:  0.12  79:  0.25  80:  6.61
  81:  1.66  82: 36.27  83:190.76  84: 33.67  85: 26.75  86: 23.26  87: 11.29  88:102.55
  89: 54.59  90:  7.33  91:  6.92  92: 12.38  93:  5.25  94:  1.24  95:133.01  96:  4.19
  97:  3.94  98:  2.38  99:  4.23 100: 32.37 101:193.52 102:  6.84 103: 39.19 104:120.93
 105:  1.53 106:339.22 107: 19.77 108: 86.52 109: 23.06 110: 34.40 111:  3.70 112: 41.81
 113:  7.69 114:  1.45 115:  2.36 116:957.49 117:****** 118:****** 119:245.03 120: 32.15
 121: 92.73 122:****** 123:****** 124:****** 125:630.95 126:****** 127:201.21 128: 87.55
 129:761.30 130:479.57 131: 65.68 132:368.14 133:****** 134:****** 135:224.77 136:273.53
 137: 74.89 138:546.27 139: 16.70 140:****** 141:296.17 142:649.22 143: 24.41 144:171.96
 145:131.73 146:  8.51 147: 16.15 148:  4.79 149:  3.69 150:685.30 151:238.67 152:******
 153: 65.69 154:354.07 155:373.72 156:106.10 157:  7.60 158: 17.28 159:  4.06 160:  9.93
 161: 75.52 162: 86.95 163: 16.94 164:168.32 165: 60.96 166:818.65 167: 18.02 168:******
 169:  8.03 170:****** 171:110.90 172:921.34 173:253.39 174:****** 175:140.74 176:325.37
 177: 23.31 178: 33.17 179: 22.90 180: 32.74 181: 46.43 182: 56.21 183: 16.33 184:132.18
 185: 10.81 186:  6.34 187: 22.48 188:  9.23 189: 72.73 190: 39.51 191: 14.52 192: 18.23
 193: 15.70 194: 15.46 195: 26.86 196: 27.91 197: 76.33 198:115.25 199: 47.53 200:  4.20
 201: 19.73
 Raman intensities (Ä⁴*amu⁻¹)
   1:  0.00   2:  0.00   3:  0.00   4:  0.00   5:  0.00   6:  0.00   7:  0.00   8:  0.00
   9:  0.00  10:  0.00  11:  0.00  12:  0.00  13:  0.00  14:  0.00  15:  0.00  16:  0.00
  17:  0.00  18:  0.00  19:  0.00  20:  0.00  21:  0.00  22:  0.00  23:  0.00  24:  0.00
  25:  0.00  26:  0.00  27:  0.00  28:  0.00  29:  0.00  30:  0.00  31:  0.00  32:  0.00
  33:  0.00  34:  0.00  35:  0.00  36:  0.00  37:  0.00  38:  0.00  39:  0.00  40:  0.00
  41:  0.00  42:  0.00  43:  0.00  44:  0.00  45:  0.00  46:  0.00  47:  0.00  48:  0.00
  49:  0.00  50:  0.00  51:  0.00  52:  0.00  53:  0.00  54:  0.00  55:  0.00  56:  0.00
  57:  0.00  58:  0.00  59:  0.00  60:  0.00  61:  0.00  62:  0.00  63:  0.00  64:  0.00
  65:  0.00  66:  0.00  67:  0.00  68:  0.00  69:  0.00  70:  0.00  71:  0.00  72:  0.00
  73:  0.00  74:  0.00  75:  0.00  76:  0.00  77:  0.00  78:  0.00  79:  0.00  80:  0.00
  81:  0.00  82:  0.00  83:  0.00  84:  0.00  85:  0.00  86:  0.00  87:  0.00  88:  0.00
  89:  0.00  90:  0.00  91:  0.00  92:  0.00  93:  0.00  94:  0.00  95:  0.00  96:  0.00
  97:  0.00  98:  0.00  99:  0.00 100:  0.00 101:  0.00 102:  0.00 103:  0.00 104:  0.00
 105:  0.00 106:  0.00 107:  0.00 108:  0.00 109:  0.00 110:  0.00 111:  0.00 112:  0.00
 113:  0.00 114:  0.00 115:  0.00 116:  0.00 117:  0.00 118:  0.00 119:  0.00 120:  0.00
 121:  0.00 122:  0.00 123:  0.00 124:  0.00 125:  0.00 126:  0.00 127:  0.00 128:  0.00
 129:  0.00 130:  0.00 131:  0.00 132:  0.00 133:  0.00 134:  0.00 135:  0.00 136:  0.00
 137:  0.00 138:  0.00 139:  0.00 140:  0.00 141:  0.00 142:  0.00 143:  0.00 144:  0.00
 145:  0.00 146:  0.00 147:  0.00 148:  0.00 149:  0.00 150:  0.00 151:  0.00 152:  0.00
 153:  0.00 154:  0.00 155:  0.00 156:  0.00 157:  0.00 158:  0.00 159:  0.00 160:  0.00
 161:  0.00 162:  0.00 163:  0.00 164:  0.00 165:  0.00 166:  0.00 167:  0.00 168:  0.00
 169:  0.00 170:  0.00 171:  0.00 172:  0.00 173:  0.00 174:  0.00 175:  0.00 176:  0.00
 177:  0.00 178:  0.00 179:  0.00 180:  0.00 181:  0.00 182:  0.00 183:  0.00 184:  0.00
 185:  0.00 186:  0.00 187:  0.00 188:  0.00 189:  0.00 190:  0.00 191:  0.00 192:  0.00
 193:  0.00 194:  0.00 195:  0.00 196:  0.00 197:  0.00 198:  0.00 199:  0.00 200:  0.00
 201:  0.00
 output can be read by thermo (or use thermo option).
 writing <g98.out> molden fake output.
 recommended (thermochemical) frequency scaling factor: 1.0
           -------------------------------------------------
          |             Thermodynamic Functions             |
           -------------------------------------------------

Molecule has no symmetry elements
It seems to be the C1 point group
c1  symmetry found (for desy threshold:  0.10E+00) used in thermo

          ...................................................
          :                      SETUP                      :
          :.................................................:
          :  # frequencies                         195      :
          :  # imaginary freq.                       0      :
          :  linear?                             false      :
          :  only rotor calc.                    false      :
          :  symmetry                               c1      :
          :  rotational number                       1      :
          :  scaling factor                  1.0000000      :
          :  rotor cutoff                   50.0000000 cm⁻¹ :
          :  imag. cutoff                  -20.0000000 cm⁻¹ :
          :.................................................:

    mode    ω/cm⁻¹     T·S(HO)/kcal·mol⁻¹    T·S(FR)/kcal·mol⁻¹   T·S(vib)
   ------------------------------------------------------------------------
       1     12.09    -2.27597 (  0.34%)    -1.47702 ( 99.66%)    -1.47974
       2     16.45    -2.09368 (  1.16%)    -1.38585 ( 98.84%)    -1.39405
       3     20.75    -1.95627 (  2.88%)    -1.31710 ( 97.12%)    -1.33551
       4     34.69    -1.65216 ( 18.81%)    -1.16484 ( 81.19%)    -1.25651
       5     52.85    -1.40368 ( 55.51%)    -1.04014 ( 44.49%)    -1.24195
       6     54.01    -1.39086 ( 57.65%)    -1.03370 ( 42.35%)    -1.23960
       7     64.33    -1.28797 ( 73.26%)    -0.98191 ( 26.74%)    -1.20612
       8     65.77    -1.27494 ( 74.96%)    -0.97534 ( 25.04%)    -1.19992
       9     72.74    -1.21580 ( 81.75%)    -0.94550 ( 18.25%)    -1.16647
      10     76.89    -1.18331 ( 84.83%)    -0.92907 ( 15.17%)    -1.14474
      11     92.59    -1.07472 ( 92.16%)    -0.87402 (  7.84%)    -1.05899
      12    101.15    -1.02325 ( 94.37%)    -0.84781 (  5.63%)    -1.01336
      13    105.27    -1.00008 ( 95.16%)    -0.83599 (  4.84%)    -0.99214
      14    109.06    -0.97962 ( 95.77%)    -0.82553 (  4.23%)    -0.97309
      15    115.41    -0.94689 ( 96.60%)    -0.80876 (  3.40%)    -0.94219
      16    119.11    -0.92868 ( 96.99%)    -0.79941 (  3.01%)    -0.92479
      17    129.97    -0.87850 ( 97.86%)    -0.77356 (  2.14%)    -0.87625
      18    135.47    -0.85474 ( 98.18%)    -0.76126 (  1.82%)    -0.85304
      19    149.85    -0.79728 ( 98.78%)    -0.73138 (  1.22%)    -0.79647
      20    173.64    -0.71427 ( 99.32%)    -0.68773 (  0.68%)    -0.71409
      21    181.46    -0.68973 ( 99.43%)    -0.67470 (  0.57%)    -0.68965
      22    201.12    -0.63291 ( 99.62%)    -0.64421 (  0.38%)    -0.63295
      23    207.54    -0.61574 ( 99.66%)    -0.63490 (  0.34%)    -0.61580
      24    210.98    -0.60679 ( 99.69%)    -0.63004 (  0.31%)    -0.60686
      25    215.15    -0.59616 ( 99.71%)    -0.62424 (  0.29%)    -0.59624
      26    223.11    -0.57654 ( 99.75%)    -0.61348 (  0.25%)    -0.57663
      27    228.47    -0.56378 ( 99.77%)    -0.60644 (  0.23%)    -0.56387
      28    234.67    -0.54947 ( 99.79%)    -0.59851 (  0.21%)    -0.54957
      29    247.44    -0.52139 ( 99.83%)    -0.58281 (  0.17%)    -0.52149
      30    249.85    -0.51628 ( 99.84%)    -0.57994 (  0.16%)    -0.51638
      31    255.63    -0.50431 ( 99.85%)    -0.57317 (  0.15%)    -0.50441
      32    259.14    -0.49718 ( 99.86%)    -0.56913 (  0.14%)    -0.49728
      33    269.16    -0.47752 ( 99.88%)    -0.55789 (  0.12%)    -0.47761
      34    280.13    -0.45702 ( 99.90%)    -0.54605 (  0.10%)    -0.45711
      35    298.83    -0.42441 ( 99.92%)    -0.52692 (  0.08%)    -0.42449
   ------------------------------------------------------------------------

   temp. (K)  partition function   enthalpy   heat capacity  entropy
                                   cal/mol     cal/K/mol   cal/K/mol   J/K/mol
 298.15  VIB  0.553E+16            21472.540    132.569    133.586
         ROT  0.620E+08              888.752      2.981     38.638
         INT  0.343E+24            22361.292    135.550    172.224
         TR   0.127E+29             1481.254      4.968     44.809
         TOT                       23842.5463   140.5181   217.0335   908.0680

       T/K    H(0)-H(T)+PV         H(T)/Eh          T*S/Eh         G(T)/Eh
   ------------------------------------------------------------------------
    298.15    0.379955E-01    0.533175E+00    0.103120E+00    0.430056E+00
   ------------------------------------------------------------------------

         :::::::::::::::::::::::::::::::::::::::::::::::::::::
         ::                  THERMODYNAMIC                  ::
         :::::::::::::::::::::::::::::::::::::::::::::::::::::
         :: total free energy        -113.891744071995 Eh   ::
         ::.................................................::
         :: total energy             -114.321799956977 Eh   ::
         :: zero point energy           0.495179972122 Eh   ::
         :: G(RRHO) w/o ZPVE           -0.065124087140 Eh   ::
         :: G(RRHO) contrib.            0.430055884982 Eh   ::
         :::::::::::::::::::::::::::::::::::::::::::::::::::::

optimized geometry written to: xtbopt.xyz


           -------------------------------------------------
          | TOTAL ENERGY             -114.321799956977 Eh   |
          | TOTAL ENTHALPY           -113.788624468780 Eh   |
          | TOTAL FREE ENERGY        -113.891744071995 Eh   |
          | GRADIENT NORM               0.000041064731 Eh/α |
          | HOMO-LUMO GAP               0.258226318159 eV   |
           -------------------------------------------------

------------------------------------------------------------------------
 * finished run on 2025/09/10 at 21:28:33.876     
------------------------------------------------------------------------
 total:
 * wall-time:     0 d,  0 h,  0 min,  5.672 sec
 *  cpu-time:     0 d,  0 h,  3 min, 33.205 sec
 * ratio c/w:    37.586 speedup
 SCF:
 * wall-time:     0 d,  0 h,  0 min,  0.174 sec
 *  cpu-time:     0 d,  0 h,  0 min,  6.779 sec
 * ratio c/w:    38.982 speedup
 ANC optimizer:
 * wall-time:     0 d,  0 h,  0 min,  2.635 sec
 *  cpu-time:     0 d,  0 h,  1 min, 45.373 sec
 * ratio c/w:    39.993 speedup
 analytical hessian:
 * wall-time:     0 d,  0 h,  0 min,  2.736 sec
 *  cpu-time:     0 d,  0 h,  1 min, 36.422 sec
 * ratio c/w:    35.238 speedup

