$hessian                                                                        
        0.3306358382  -0.0393723140   0.2605637191  -0.1020259420   0.0595490078
       -0.0599686232   0.0207329647   0.0260659851   0.0297968749  -0.0213719413
        0.0201113144  -0.0185215834  -0.0079499137  -0.0556699666  -0.0193731406
       -0.1602129146   0.0260563088  -0.1355260182   0.0044853369   0.0027281902
       -0.0010698241  -0.0003300931  -0.0019462102  -0.0028030214   0.0006660502
        0.0008510133   0.0011384562  -0.0001500194  -0.0015522405  -0.0004185599
       -0.0009495926   0.0008367750  -0.0008961580   0.0007455949   0.0004420151
        0.0011704314  -0.0000433156  -0.0000659660  -0.0003455992  -0.0014470014
       -0.0041019753  -0.0001265185   0.0005025309   0.0001240290  -0.0003352323
       -0.0000257796  -0.0001301342   0.0000214034  -0.0001278190   0.0000732697
       -0.0000004232   0.0002641149  -0.0001679456  -0.0000293116  -0.0007052739
        0.0006614141   0.0001909206   0.0006654158  -0.0012221947  -0.0001765490
       -0.0003760672   0.0010978993   0.0001358537   0.0000714594  -0.0004000748
        0.0000052811   0.0000286633   0.0000788539   0.0000084505  -0.0000330928
       -0.0000759415   0.0000149104  -0.0000013535   0.0000921445  -0.0000064382
        0.0000353557  -0.0000523590   0.0000140353  -0.0000978160   0.0001515736
       -0.0000337494   0.0001545815  -0.0001130336  -0.0000111083  -0.0001078279
        0.0000281687   0.0000296737   0.0001519919  -0.0000084127  -0.0000032307
       -0.0001387335  -0.0000663577   0.0000521980   0.0003570989   0.0001219644
       -0.0000130675  -0.0004905862   0.0000851876  -0.0001102740   0.0009004056
       -0.0008508625   0.0001791616  -0.0015427326   0.0014224990  -0.0006821040
        0.0008910947  -0.0007339795   0.0001420557  -0.0504171577  -0.0504947918
       -0.0306591776  -0.0087921987   0.0157901566  -0.0081907238   0.0044795684
       -0.0009611926  -0.0035506566  -0.0084572498   0.0014497177  -0.0105913356
        0.0000247790   0.0000037913  -0.0000955321   0.0000112619  -0.0000024199
        0.0000109985   0.0000173108   0.0000224295  -0.0000112160   0.0000144306
        0.0000715794   0.0000310513  -0.0000678042  -0.0000238678   0.0000346936
       -0.0000114612  -0.0000211108   0.0000129989   0.0000179601   0.0000006172
        0.0000393997  -0.0000418595   0.0000472272  -0.0000038628   0.0000350913
       -0.0000120710  -0.0000101699   0.0000296217   0.0000062980  -0.0000064193
        0.0000184626   0.0000194077  -0.0000066808   0.0000085943   0.0000120129
       -0.0000023830  -0.0000162097   0.0000324846  -0.0000105647  -0.0000263765
        0.0001811431  -0.0000367305   0.0000125550  -0.0001690564   0.0000334199
       -0.0393723140   0.6670201481   0.0496357316   0.1090055489  -0.2639187743
        0.0978139889  -0.0096505539  -0.0697413534  -0.0263435934   0.0171102093
       -0.0076530454   0.0227932607  -0.0198718100   0.0234635851  -0.0184700336
       -0.0224457194  -0.0923660437  -0.0381232449   0.0006533730  -0.0055718960
       -0.0018626585  -0.0009950462  -0.0002954885  -0.0012585813  -0.0002897694
       -0.0007868498  -0.0005837327  -0.0002350744   0.0009673607   0.0000583706
        0.0008097761  -0.0005365410   0.0008322956  -0.0007692857  -0.0006699695
       -0.0011915453   0.0013002745   0.0004952393   0.0018740770  -0.0015612474
       -0.0020592667  -0.0031145661  -0.0005570130   0.0002264671   0.0000208891
        0.0000756501   0.0004594731  -0.0001133126   0.0002319826  -0.0001387691
       -0.0000113173  -0.0002934686   0.0001608111   0.0000197257   0.0003783017
       -0.0005769313  -0.0001263391  -0.0004578349   0.0010874350   0.0000687868
        0.0003599093  -0.0009961745  -0.0000548070  -0.0000710670   0.0003333079
       -0.0000136621  -0.0000392425  -0.0000833645   0.0000010365   0.0000266146
        0.0000340453  -0.0000074470   0.0000237340  -0.0000421430  -0.0000064584
        0.0000097554   0.0000842614  -0.0000244388   0.0000317353  -0.0000967141
        0.0000281906  -0.0000328077   0.0001256715  -0.0000156393   0.0000761858
       -0.0000271409  -0.0000236120  -0.0000626529   0.0000212138  -0.0000198839
       -0.0001321585   0.0001328715  -0.0000590187   0.0001409098   0.0000823907
        0.0000934846   0.0003161515  -0.0002121634   0.0000926070  -0.0006625447
        0.0006431784  -0.0000887269   0.0013399422  -0.0011194022   0.0006844561
       -0.0007739043   0.0002826763  -0.0002244239  -0.0505260698  -0.2432629511
       -0.0992896224   0.0015861631  -0.0005710333   0.0010390900  -0.0004274856
       -0.0042075558  -0.0029539047   0.0157772247  -0.0005367811   0.0191539010
        0.0000002103  -0.0000570715   0.0000505558   0.0000093564  -0.0000205131
       -0.0000030059   0.0000066419   0.0000106901   0.0000009307  -0.0000118804
        0.0000022836  -0.0000257016   0.0001195359   0.0000476664  -0.0000503923
        0.0000379752   0.0000309981  -0.0000228587  -0.0000159012   0.0000375015
       -0.0000169669   0.0000228196  -0.0000237428   0.0000006329  -0.0000467043
        0.0000281143   0.0000064190  -0.0000541931  -0.0000035585   0.0000081962
       -0.0000241066  -0.0000349741   0.0000107284  -0.0000360184  -0.0000165832
        0.0000122741  -0.0000498821  -0.0000813038   0.0000307047   0.0000681137
       -0.0001139939   0.0000700787  -0.0000523385   0.0000447030  -0.0003009172
        0.2605637191   0.0496357316   0.4395296484  -0.0502158716   0.0355127714
       -0.1039266027   0.0217725217   0.0192651634   0.0337199999  -0.0177384745
        0.0236991098  -0.0231123975  -0.0108889671  -0.0629623532  -0.0289952504
       -0.1462618075   0.0221358829  -0.2135055449  -0.0018609951   0.0010957121
        0.0038942171  -0.0021393047  -0.0028361441  -0.0019568530   0.0008201450
        0.0009766282   0.0012752379   0.0000776687  -0.0017221195  -0.0006960726
       -0.0010885720   0.0009545282  -0.0010004681   0.0009317551   0.0005093260
        0.0012152997   0.0000421659   0.0000224887  -0.0003319087  -0.0016112385
       -0.0053317528  -0.0005107996   0.0004052714   0.0003656208  -0.0004030188
       -0.0000120393  -0.0002102771   0.0000315271  -0.0002001154   0.0000927422
       -0.0000059554   0.0003146005  -0.0001732943  -0.0000427188  -0.0007725940
        0.0007075760   0.0001747776   0.0007199385  -0.0014917059  -0.0002099411
       -0.0003729758   0.0012998394   0.0001861695   0.0000475699  -0.0004254008
       -0.0000166897   0.0000467811   0.0000733861   0.0000211491  -0.0000457571
       -0.0000851049   0.0000210827   0.0000004242   0.0001070322  -0.0000052313
        0.0000394989  -0.0000588557   0.0000169177  -0.0001227407   0.0001660650
       -0.0000508046   0.0001375049  -0.0000937350  -0.0000100231  -0.0001094044
        0.0000520496   0.0000387081   0.0001207943  -0.0000366532  -0.0000008190
       -0.0001895130  -0.0000579017   0.0000272675   0.0003087906   0.0001978311
       -0.0000175323  -0.0005464265  -0.0000471694  -0.0000997625   0.0010996358
       -0.0007875680   0.0002041024  -0.0016151694   0.0015843927  -0.0006389150
        0.0009443257  -0.0007632135   0.0002423018  -0.0305556449  -0.0995127085
       -0.0882877005  -0.0112204286   0.0198176026  -0.0098150655  -0.0039341608
       -0.0032455283   0.0021645408  -0.0071682719   0.0016472138  -0.0088943925
       -0.0000095081  -0.0000171131  -0.0000770554   0.0000030046  -0.0000059854
        0.0000233363  -0.0000298513   0.0000137562   0.0000275545   0.0000229537
        0.0000908734   0.0000284336  -0.0000658617  -0.0000271349   0.0000359235
       -0.0000097070  -0.0000272024   0.0000107266   0.0000248235   0.0000134958
        0.0000767346  -0.0000474073   0.0000506058  -0.0000049002   0.0000381592
       -0.0000170207  -0.0000150209   0.0000338495   0.0000065370  -0.0000086698
        0.0000133847   0.0000187512  -0.0000055790   0.0000239885   0.0000101717
       -0.0000025982  -0.0000149636   0.0000311688  -0.0000051670  -0.0000021531
        0.0001631842   0.0000207572   0.0002966494  -0.0003812956  -0.0003329557
       -0.1020259420   0.1090055489  -0.0502158716   0.3346850781  -0.0493306327
        0.2719059187  -0.0747761419  -0.0659189556  -0.0524496492  -0.0058649118
       -0.0190215275  -0.0095234663  -0.0011966456   0.0071915751   0.0054831515
       -0.0208832009   0.0123535241  -0.0258575768  -0.0012362395  -0.0008865619
       -0.0014582599   0.0005101352   0.0007680644   0.0007203893  -0.0002367373
       -0.0001948206  -0.0002982686   0.0000289766   0.0003003607   0.0001405659
        0.0000109705  -0.0002761072   0.0001226581  -0.0003308747   0.0000408768
       -0.0001715254   0.0000092278  -0.0007581348  -0.0015444069   0.0012959128
        0.0016086192  -0.0049914319   0.0000899167   0.0000680746  -0.0000492355
       -0.0001223500  -0.0000349006   0.0000326067  -0.0000336862  -0.0000085451
        0.0000432639  -0.0000210575   0.0001052514  -0.0000403720   0.0003779390
       -0.0004531348   0.0001234529  -0.0004148220   0.0004132244  -0.0000439027
        0.0003017461  -0.0002085086  -0.0000369173  -0.0000341713   0.0001275635
        0.0000103680  -0.0000267789  -0.0000300991   0.0000131491   0.0000170144
        0.0000104194  -0.0000077822   0.0000187720  -0.0000290066   0.0000025700
       -0.0000096080   0.0000538246  -0.0000205047   0.0000177958  -0.0000619785
        0.0000059851  -0.0000539326   0.0000405497   0.0000030579   0.0000236076
       -0.0000085075  -0.0000088158  -0.0000127110   0.0000110642  -0.0000155743
       -0.0000486976   0.0000477383   0.0000128888   0.0001684679   0.0000288034
        0.0000689755   0.0000993197  -0.0000382616  -0.0000010232  -0.0001903448
        0.0000656876  -0.0001246514   0.0005049634  -0.0000108466   0.0001551078
       -0.0004220189   0.0003851760   0.0002705708   0.0027370555  -0.0049523508
        0.0018583521  -0.1374305004  -0.0011804617  -0.1318198353   0.0026957085
        0.0102293914   0.0042591128   0.0018621680   0.0005110129  -0.0064030661
        0.0000260682  -0.0000262639   0.0000418645   0.0000229815  -0.0000024806
       -0.0000055683   0.0000089100   0.0000078723  -0.0000235216  -0.0000069950
        0.0000013935  -0.0000187655   0.0000517436   0.0000484248  -0.0000330340
        0.0000154445   0.0000458704  -0.0000019004  -0.0000106937   0.0000262050
       -0.0000212178   0.0000148010  -0.0000168245   0.0000022750  -0.0000267085
        0.0000185772   0.0000016536  -0.0000324666  -0.0000012192   0.0000087563
       -0.0000120594  -0.0000202553   0.0000076694  -0.0000287698  -0.0000091478
        0.0000103135  -0.0000285057  -0.0000391626   0.0000126824   0.0000087732
       -0.0000090601  -0.0000250813  -0.0000859258   0.0000130620  -0.0001061333
        0.0595490078  -0.2639187743   0.0355127714  -0.0493306327   0.6422437804
        0.0364245738  -0.0187869985  -0.2752006087  -0.0658783856  -0.0495615159
        0.0185041216  -0.0618564031   0.0074031471  -0.0593521442  -0.0030464242
        0.0473888410   0.0271576904   0.0646259791  -0.0018743149   0.0035706808
       -0.0009621595  -0.0005802314  -0.0023100937  -0.0018026466   0.0011862667
        0.0014333982   0.0018084533   0.0002744845  -0.0026367036  -0.0005288989
       -0.0018000160   0.0013403682  -0.0017552424   0.0015938196   0.0011111439
        0.0024171261  -0.0024346210  -0.0000068412  -0.0032962410   0.0031972758
        0.0016453365   0.0059299800   0.0010787085  -0.0002004822  -0.0006085067
       -0.0002106128  -0.0007337546   0.0001521147  -0.0005017348   0.0003171464
       -0.0000233592   0.0006580340  -0.0004191838  -0.0000657191  -0.0012542062
        0.0014968496   0.0000072220   0.0012309681  -0.0025298820  -0.0000849370
       -0.0009791948   0.0022547608   0.0000895291   0.0002389516  -0.0007509863
        0.0000110562   0.0000353467   0.0001430143   0.0000177667  -0.0000271478
       -0.0000928529   0.0000116614  -0.0000192263   0.0001092329   0.0000173648
        0.0000282340  -0.0000943261   0.0000291187  -0.0001472426   0.0001203972
       -0.0000364310   0.0001958012  -0.0001332662  -0.0000114612  -0.0001379385
        0.0000002657   0.0000693913   0.0000958920  -0.0000611155   0.0000132224
       -0.0001204379  -0.0000548278   0.0000239897   0.0004212605   0.0001125467
       -0.0000428447  -0.0007826017   0.0002047563  -0.0001175055   0.0023724789
       -0.0016820084  -0.0000800651  -0.0038735621   0.0029043129  -0.0006430066
        0.0017491638  -0.0014312715   0.0002792901   0.0098892852  -0.0254194520
        0.0072894630  -0.0021037772  -0.0437578117  -0.0027973248  -0.0044995065
       -0.0256635735  -0.0100887451   0.0004315215   0.0013657314  -0.0009835512
        0.0000279537   0.0000214875  -0.0001225715  -0.0000095957   0.0000074911
        0.0000015981   0.0000031277   0.0000256431   0.0000153450   0.0000236641
        0.0001004283   0.0000585078  -0.0001307160  -0.0000985736   0.0000619898
       -0.0000386499  -0.0000270198   0.0000210030   0.0000312742  -0.0000337637
        0.0000718562  -0.0000781228   0.0000847235  -0.0000031828   0.0000815324
       -0.0000321956  -0.0000152242   0.0000785420   0.0000171550  -0.0000121281
        0.0000385439   0.0000486401  -0.0000148971   0.0000485275   0.0000173470
       -0.0000116536   0.0000172614   0.0000840785  -0.0000307159  -0.0000657787
        0.0001295258  -0.0000022436  -0.0000205325   0.0000694587  -0.0000378983
       -0.0599686232   0.0978139889  -0.1039266027   0.2719059187   0.0364245738
        0.4634694032  -0.0424472656  -0.1262978550  -0.1212866743  -0.0170916307
       -0.0201848752  -0.0269435930   0.0059763416  -0.0020654897   0.0019396193
       -0.0188807709   0.0204723376  -0.0175516370  -0.0018434515  -0.0002690309
       -0.0022860982   0.0004756791   0.0003926138   0.0005055793   0.0000456621
        0.0000797716   0.0000086748   0.0000877060  -0.0002219522   0.0000547256
       -0.0001749675   0.0000207926  -0.0003822633   0.0001693639   0.0003022036
        0.0001560853  -0.0016873692  -0.0012852272  -0.0014458335  -0.0045046951
        0.0013574429   0.0002288457   0.0000631386   0.0003188534   0.0003442462
       -0.0001074831  -0.0002068641   0.0001035789  -0.0001086479   0.0000101934
        0.0000147837   0.0000981478  -0.0000269076   0.0000021681   0.0000273761
       -0.0000366912  -0.0000267570  -0.0001221444   0.0000287369  -0.0000408914
        0.0000852869   0.0000672509   0.0000399916   0.0000082580   0.0000326854
       -0.0000250150  -0.0000364343  -0.0000108264   0.0000063001   0.0000240216
        0.0000106169  -0.0000082219   0.0000166372  -0.0000266132   0.0000059644
       -0.0000165253   0.0000434648  -0.0000109772  -0.0000133740  -0.0000673675
        0.0000119090  -0.0000844026   0.0000537404  -0.0000047186  -0.0000011293
       -0.0000337988   0.0000037710  -0.0000472971  -0.0000112439  -0.0000056144
       -0.0000403913  -0.0000046654   0.0000327508   0.0001769587   0.0000082593
        0.0001050670  -0.0000601718  -0.0000616103  -0.0000030086   0.0002465140
       -0.0000565013  -0.0000811241  -0.0000853854  -0.0000030956  -0.0001327074
        0.0001847953  -0.0000460591  -0.0000998988   0.0045129032  -0.0109002132
        0.0041480181  -0.1319854475  -0.0031830384  -0.2002717265   0.0017530574
        0.0080205565   0.0044100495  -0.0064975536  -0.0005119135  -0.0006577850
        0.0000481140  -0.0000249153   0.0000240022  -0.0000039683  -0.0000097339
        0.0000159650  -0.0000204656   0.0000051803   0.0000042168  -0.0000319509
        0.0000155508   0.0000000224   0.0000126416   0.0000105044  -0.0000244002
        0.0000016311   0.0000341670  -0.0000106058  -0.0000107774   0.0000184490
        0.0000040276   0.0000035957  -0.0000016966   0.0000044022  -0.0000104652
        0.0000118077   0.0000019695  -0.0000164280   0.0000003620   0.0000057243
       -0.0000076909  -0.0000152467   0.0000082922  -0.0000165770   0.0000000561
        0.0000114388  -0.0000199671  -0.0000195464   0.0000071203  -0.0000127700
        0.0000270687  -0.0000094757   0.0000324729   0.0000017499  -0.0004430832
        0.0207329647  -0.0096505539   0.0217725217  -0.0747761419  -0.0187869985
       -0.0424472656   0.3084231626  -0.0504130490   0.2537194864  -0.1395548604
       -0.0089204892  -0.1262656655  -0.0213636649   0.0370901083  -0.0172410806
       -0.0135733871  -0.0131485196  -0.0155144510   0.0054042989   0.0026175726
       -0.0007918976  -0.0003092235  -0.0004729560  -0.0002712735  -0.0006685717
       -0.0006399291  -0.0004770449  -0.0003731704   0.0012882317   0.0000827691
        0.0009128909  -0.0006939809   0.0010944532  -0.0013919217  -0.0007001799
       -0.0017670301   0.0041897126  -0.0006671901   0.0023904982  -0.0102152191
       -0.0131822472  -0.0176659872  -0.0003355120  -0.0003310444   0.0004953849
        0.0002994255   0.0012256926  -0.0000558618   0.0002177055  -0.0002554840
       -0.0001832579  -0.0004612043   0.0006052950  -0.0001532533   0.0006998265
       -0.0018887590   0.0008418984  -0.0015989367   0.0018519145  -0.0008161057
        0.0017689368  -0.0006109209   0.0004925039  -0.0006497739   0.0004647618
       -0.0000031886   0.0002017960  -0.0001719241   0.0000575283  -0.0001374008
       -0.0000416359   0.0000337706   0.0000485301   0.0000751394  -0.0000065047
        0.0000333644   0.0000342911  -0.0000234749   0.0000598476   0.0001784330
       -0.0000931055   0.0000735273  -0.0000221145   0.0000039297   0.0000524861
        0.0001002626   0.0000240936   0.0000551107  -0.0000183560  -0.0000298826
       -0.0000660737  -0.0000383066   0.0000294764   0.0000240628   0.0000617220
       -0.0000552192   0.0003528141  -0.0004964836  -0.0001825799  -0.0013893675
        0.0005413250   0.0002254169   0.0020276826  -0.0011226568  -0.0017988468
       -0.0015880450   0.0014778503   0.0009862252   0.0037332459   0.0029391593
       -0.0038424754  -0.0049182897  -0.0158950424  -0.0098106323  -0.0759334055
        0.0879883205  -0.0428845217  -0.0002504781  -0.0004272287   0.0001401011
       -0.0000346546  -0.0000005751   0.0000438663   0.0000537094   0.0000255961
       -0.0000408151   0.0000266695   0.0000070160  -0.0001030309   0.0000141712
        0.0000786526  -0.0000104800   0.0002404112   0.0001494469  -0.0000610258
        0.0000660397  -0.0000123309  -0.0000414442   0.0000446367   0.0000632148
        0.0000949509   0.0000471195  -0.0000858536   0.0000070247  -0.0000584656
        0.0000095345  -0.0000160563  -0.0000460256  -0.0000087997   0.0000076619
       -0.0000131756  -0.0000268898   0.0000044846  -0.0000329091  -0.0000115063
        0.0000075210  -0.0000280129  -0.0000519556   0.0000038589   0.0000130552
       -0.0000702618   0.0000288070  -0.0000493125  -0.0000093176   0.0000652257
        0.0260659851  -0.0697413534   0.0192651634  -0.0659189556  -0.2752006087
       -0.1262978550  -0.0504130490   0.6737350145   0.0400030429   0.0268157676
       -0.0885634993   0.0282361114   0.0079536053   0.0279451533   0.0166756264
       -0.0172871896  -0.0132673961  -0.0235931600   0.0066583819  -0.0072858481
        0.0042241359  -0.0000608983   0.0010599662   0.0006278833  -0.0007031440
       -0.0007791447  -0.0010043044  -0.0002399096   0.0016845420   0.0002761487
        0.0011728414  -0.0011557434   0.0010613616  -0.0022413946  -0.0009225886
       -0.0030990377   0.0025161988  -0.0048640394   0.0012699667  -0.0228307534
       -0.0051382148  -0.0323572751  -0.0016819322  -0.0010556642  -0.0021417092
       -0.0000804114   0.0012813974  -0.0002750641   0.0005728027  -0.0001801703
        0.0000608168  -0.0003010749  -0.0001317424   0.0002665242  -0.0006316478
        0.0000823749  -0.0004533249   0.0003494561   0.0005128281   0.0002201274
       -0.0001068326  -0.0005291591  -0.0001628830   0.0001100471   0.0001728690
       -0.0000534354  -0.0000615152   0.0000046560  -0.0000213912   0.0000409913
        0.0000494356  -0.0000033752  -0.0000313979  -0.0000627625  -0.0000042854
       -0.0000126032  -0.0000001942   0.0000116162   0.0000114382  -0.0000618385
        0.0000337334  -0.0000747690   0.0000462536  -0.0000060353   0.0000243107
       -0.0000461766  -0.0000327311  -0.0000704704   0.0000263067   0.0000134894
        0.0001307643  -0.0000913191  -0.0000292138  -0.0003366628  -0.0000946124
       -0.0000613592   0.0001312259  -0.0000209727   0.0000975022   0.0002172334
        0.0006484294  -0.0001557118   0.0011153566  -0.0006834927   0.0010697649
       -0.0000677956  -0.0021355361  -0.0018996335   0.0027531859  -0.0041375436
        0.0015386423  -0.0008480979  -0.0020599123  -0.0028089730   0.0880430518
       -0.2296057084   0.0798366868  -0.0005931775   0.0004296963  -0.0003052579
       -0.0000959326   0.0000324694  -0.0000152128  -0.0000028143   0.0000236810
       -0.0000198724  -0.0000826158  -0.0000121091  -0.0001339134  -0.0000378443
        0.0001261674  -0.0000148218   0.0000662456   0.0001042142  -0.0001097316
       -0.0000032449   0.0000107224  -0.0000421217  -0.0000083243  -0.0000040478
       -0.0000462701   0.0000257329  -0.0000294010  -0.0000050368  -0.0000132060
       -0.0000004829   0.0000069530  -0.0000113535  -0.0000083654  -0.0000021086
       -0.0000134058  -0.0000079539   0.0000042139  -0.0000050960  -0.0000020231
       -0.0000010445   0.0000252894  -0.0000070773   0.0000074925   0.0000416353
       -0.0000552372  -0.0000220741   0.0000259729  -0.0000342381   0.0003712203
        0.0297968749  -0.0263435934   0.0337199999  -0.0524496492  -0.0658783856
       -0.1212866743   0.2537194864   0.0400030429   0.4474038766  -0.1241788123
       -0.0189110340  -0.2065873686  -0.0220975969   0.0520419587  -0.0191012528
       -0.0167220924  -0.0188606039  -0.0282710681  -0.0001365714  -0.0002864534
        0.0056177501   0.0000199032   0.0000283853   0.0002677113  -0.0006016608
       -0.0008846819  -0.0012275414  -0.0003262332   0.0019953145   0.0001572378
        0.0015123001  -0.0010705043   0.0013726112  -0.0019041216  -0.0009423423
       -0.0029051161   0.0026624471  -0.0023901722   0.0042259561  -0.0178727692
       -0.0188029140  -0.0257637865  -0.0009853683   0.0009006094  -0.0010673459
        0.0001506792   0.0013491846  -0.0002535768   0.0005100913  -0.0001885372
       -0.0001746532  -0.0006483613   0.0002922948  -0.0000301319   0.0005209655
       -0.0007679439  -0.0000600799  -0.0009060732   0.0021466956  -0.0001065269
        0.0006870169  -0.0016396573   0.0001177334  -0.0002174829   0.0005677389
       -0.0000263042   0.0000325369  -0.0001353581   0.0000067285   0.0000113284
        0.0000697054  -0.0000074934   0.0000159864  -0.0000598785  -0.0000087514
        0.0000028480   0.0000587949  -0.0000232063   0.0000874622  -0.0000711942
        0.0000202283  -0.0000967581   0.0001430509  -0.0000039818   0.0000938886
       -0.0000254985  -0.0000349152  -0.0000997219   0.0000101149  -0.0000020708
        0.0000209954  -0.0000249441  -0.0000058949  -0.0001978891  -0.0001179588
       -0.0000112310   0.0005326941  -0.0003281039   0.0000988322  -0.0013311071
        0.0009916512  -0.0000278845   0.0047318076  -0.0029947832  -0.0015613954
       -0.0010863299  -0.0008433777  -0.0011209529  -0.0038226553   0.0017968641
        0.0027123077  -0.0066719689  -0.0206232161  -0.0128987307  -0.0426742384
        0.0799288144  -0.0729852912  -0.0002063737  -0.0004977905  -0.0000097557
       -0.0000269522   0.0000054426   0.0000512169  -0.0000302966   0.0000128477
        0.0000189171  -0.0000963756  -0.0000267926  -0.0000489123  -0.0000306982
        0.0001212856  -0.0000030922   0.0001262931   0.0000787965  -0.0000501595
        0.0000348249  -0.0000213170  -0.0000216501   0.0000039644   0.0000142180
        0.0000230272   0.0000494007  -0.0000529039   0.0000019211  -0.0000487676
        0.0000180290   0.0000064407  -0.0000418899  -0.0000096586   0.0000088942
       -0.0000125308  -0.0000271572   0.0000086756  -0.0000245423  -0.0000038457
        0.0000081267  -0.0000102265  -0.0000454843   0.0000172925   0.0000282789
       -0.0000989337   0.0000143669   0.0002040405   0.0004001801  -0.0001930562
       -0.0213719413   0.0171102093  -0.0177384745  -0.0058649118  -0.0495615159
       -0.0170916307  -0.1395548604   0.0268157676  -0.1241788123   0.3424405405
       -0.0691023274   0.2612664174  -0.0934099821   0.0575732020  -0.0372852649
        0.0160977765   0.0166306888   0.0252088086  -0.0252317492   0.0218023330
       -0.0301267555   0.0016845142   0.0027926493   0.0033630982   0.0003066497
        0.0001222134   0.0002116660   0.0003951323  -0.0009155194   0.0002033583
       -0.0002347067  -0.0004223797  -0.0019035966  -0.0003842915   0.0009602656
       -0.0022502117  -0.0103107995  -0.0180597718  -0.0121466870  -0.0634212963
       -0.0259770371  -0.0391481577   0.0036160847   0.0138281218   0.0079833849
       -0.0014086683   0.0008206081   0.0001535377  -0.0005418124   0.0005245429
       -0.0005410152   0.0004892146  -0.0001168154   0.0001137051   0.0003939155
       -0.0001082022  -0.0002549265  -0.0002548482  -0.0004722519   0.0005663777
       -0.0003946388   0.0003944226  -0.0006166023   0.0004735654  -0.0002291801
       -0.0000501325  -0.0001137667   0.0000610536  -0.0000500193   0.0001510353
        0.0000710413  -0.0000285241  -0.0000046815  -0.0001481586   0.0000076416
       -0.0001004234   0.0000390947   0.0000125137   0.0000728013  -0.0002784630
        0.0000781822  -0.0003498764   0.0001425598   0.0000277448   0.0000578983
       -0.0000610914  -0.0000477054  -0.0001130871   0.0000199438   0.0000073729
        0.0001423555   0.0000760959  -0.0000770044  -0.0001834086  -0.0000821642
        0.0000111408  -0.0000366895   0.0004208456   0.0001417292   0.0001777247
       -0.0008211418   0.0005698286  -0.0027287501   0.0010235790   0.0021963788
       -0.0000386370   0.0045472881  -0.0004716170  -0.0000594688   0.0003884699
       -0.0003212791   0.0046326849  -0.0004462215  -0.0035370661  -0.0091251110
        0.0024209915  -0.0105122733   0.0045219008  -0.0010324814  -0.0043701439
        0.0002649704  -0.0001234750   0.0001757018  -0.0000541337  -0.0000348520
        0.0000662030  -0.0002651111  -0.0000381431  -0.0000633893  -0.0001371658
        0.0000611700   0.0000121004  -0.0002065822  -0.0003041570   0.0003163645
       -0.0001156631   0.0001310371  -0.0000163153  -0.0000593862  -0.0001008253
       -0.0001546983  -0.0000069129   0.0000351333   0.0000006821   0.0000203320
        0.0000072817   0.0000178875   0.0000069306  -0.0000011670   0.0000017261
       -0.0000004965  -0.0000021997   0.0000051733   0.0000180203   0.0000145886
       -0.0000006398   0.0000256133   0.0000153338   0.0000111796   0.0000382308
        0.0000183686  -0.0000077797   0.0000559663  -0.0004293585   0.0002608175
        0.0201113144  -0.0076530454   0.0236991098  -0.0190215275   0.0185041216
       -0.0201848752  -0.0089204892  -0.0885634993  -0.0189110340  -0.0691023274
        0.5985269067   0.0386698910   0.1001543964  -0.2099783820   0.0813694657
       -0.0131980636  -0.0616761787  -0.0289586983  -0.0007290093  -0.0086833649
       -0.0007744020   0.0035766140   0.0045784285   0.0048261529  -0.0010385136
        0.0004631609  -0.0012121087   0.0010586410  -0.0022164762   0.0005204142
       -0.0026887962   0.0011249657  -0.0035181676   0.0044855460   0.0029787875
        0.0067318491  -0.0189560034  -0.0015603900  -0.0217219202  -0.0135543804
       -0.1969738296  -0.0713108914   0.0065888083  -0.0362020766  -0.0056401425
        0.0015919717  -0.0033565894  -0.0006525452  -0.0007067381  -0.0005820355
        0.0012784191   0.0006626785  -0.0014038235   0.0004084056  -0.0015372547
        0.0044370157  -0.0007584235   0.0026845291  -0.0049240520   0.0016253137
       -0.0033714682   0.0026951982  -0.0011930687   0.0011429333  -0.0009856559
       -0.0000948907  -0.0003868086   0.0001382322  -0.0001000791   0.0002657881
        0.0000661913  -0.0000784083  -0.0000003091  -0.0001513811   0.0000111402
       -0.0000789904   0.0000059942   0.0000535553  -0.0000764708  -0.0004013070
        0.0001624209  -0.0003142476  -0.0000283937  -0.0000015520  -0.0000367094
       -0.0002226461  -0.0000571693  -0.0001955299  -0.0000035060   0.0000731684
        0.0001189531   0.0001132768  -0.0001364110   0.0000828267  -0.0002019230
       -0.0000236530  -0.0008902708   0.0010652015   0.0003142476   0.0037997368
       -0.0015961680   0.0000304388  -0.0082608599   0.0032055664   0.0013171579
        0.0009758276  -0.0021613881  -0.0012722468   0.0003233765   0.0003713415
        0.0001781386  -0.0006350314  -0.0039839399  -0.0034357528   0.0165605936
       -0.0011282438   0.0203677966  -0.0002707324  -0.0033230305  -0.0025233497
        0.0002318343  -0.0000430295   0.0000642369   0.0000616489  -0.0000667409
        0.0001126886   0.0001507422   0.0001633031   0.0002503829   0.0000651972
       -0.0001873367   0.0001187762  -0.0005417148  -0.0006051358   0.0002038626
        0.0000557574   0.0000065826   0.0001292562  -0.0001520795  -0.0000222819
       -0.0004284690  -0.0001467040   0.0002353502   0.0000134892   0.0001076424
       -0.0000101879   0.0000517622   0.0000977973   0.0000250983  -0.0000006347
        0.0000219202   0.0000384153   0.0000122214   0.0000924473   0.0000093103
        0.0000025872   0.0000758849   0.0001100250   0.0000098078  -0.0000322216
        0.0000453263  -0.0000026548  -0.0003021556  -0.0000117614   0.0003853918
       -0.0185215834   0.0227932607  -0.0231123975  -0.0095234663  -0.0618564031
       -0.0269435930  -0.1262656655   0.0282361114  -0.2065873686   0.2612664174
        0.0386698910   0.4538406212  -0.0286313469   0.0285240485  -0.0777737832
        0.0198656402   0.0096439853   0.0257378880  -0.0348692695   0.0223342745
       -0.0307295172   0.0049783708   0.0036230402   0.0051084723  -0.0001379755
       -0.0000511645  -0.0005517745   0.0010092309  -0.0016863171   0.0006676915