$hessian                                                                        
        0.6752524045   0.0167588355  -0.0000021584  -0.1101498926   0.0188266161
        0.0000001981   0.0476443373   0.0011483659  -0.0000000724  -0.0284375222
        0.0235849387   0.0000000088   0.0027375201   0.0013095433  -0.0000000042
       -0.0012873514   0.0021913955  -0.0000000722  -0.0019679534  -0.0014078768
        0.0000000501   0.0019915417  -0.0009774682  -0.0000000926  -0.0025588811
        0.0007632944   0.0000000250   0.0031768722  -0.0013560812  -0.0000000270
       -0.0019541489   0.0002542590   0.0000000303   0.0009513005  -0.0018692108
        0.0000000150   0.0013705527   0.0017284585  -0.0000000079  -0.0022399192
        0.0000559637  -0.0000000022   0.0039076138   0.0010250484  -0.0000000104
       -0.0034728022   0.0020224254   0.0000000189   0.0041215002  -0.0020626162
        0.0000000166  -0.0079968052  -0.0052370537   0.0000000170   0.0119110099
       -0.0005153982   0.0000000168  -0.0654849282  -0.0485826803   0.0000002966
       -0.3380190621   0.0936175804   0.0000009462  -0.1658097238  -0.1293530432
        0.0000006535  -0.0112516405   0.0280091355   0.0000000401  -0.0020500450
       -0.0040182589   0.0000000632  -0.0000072211  -0.0002746911  -0.0000000128
       -0.0000404879   0.0000461812   0.0000000121   0.0000526693  -0.0000340817
        0.0000000006  -0.0000099296  -0.0000713452   0.0000000160  -0.0000894369
       -0.0000591184   0.0000000005  -0.0000969077   0.0000625827  -0.0000000043
       -0.0000024889   0.0000819670  -0.0000000011  -0.0000842180   0.0000592512
       -0.0000000201   0.0002825411  -0.0000973466  -0.0000000063  -0.0103884972
        0.0043704280   0.0000000666
        0.0167588355   0.6439724004  -0.0000005334   0.0990599843  -0.2900901830
       -0.0000001909  -0.0536815574  -0.0624257570   0.0000002063   0.0347573916
       -0.0159847594  -0.0000001296  -0.0072003942  -0.0047347671   0.0000000343
        0.0029436246  -0.0021686846   0.0000000382   0.0010244071   0.0010182291
       -0.0000000299  -0.0011464240   0.0006107340   0.0000000752   0.0022883369
        0.0000723931  -0.0000000215  -0.0024876050   0.0009879626   0.0000000175
        0.0015767594  -0.0002562069  -0.0000000235  -0.0007274435   0.0014932778
       -0.0000000128  -0.0011173322  -0.0012090790   0.0000000068   0.0015718438
        0.0000912721   0.0000000039  -0.0028099334  -0.0006800269   0.0000000089
        0.0018925377  -0.0009801086  -0.0000000140  -0.0030550468  -0.0003189289
       -0.0000000114   0.0038866883   0.0048447411  -0.0000000064  -0.0131062977
       -0.0049118614   0.0000000377   0.0008859428   0.0360017945  -0.0000000577
        0.0183094888  -0.1062791809   0.0000000352  -0.1292773000  -0.1806773980
        0.0000006386   0.0042843830  -0.0077756912  -0.0000000112  -0.0033533859
       -0.0023764811   0.0000000220   0.0000714601   0.0008721947   0.0000000081
        0.0000127043   0.0001189321  -0.0000000096  -0.0000443992   0.0000494425
        0.0000000001   0.0000268276   0.0000885402  -0.0000000131   0.0000772755
        0.0000500281  -0.0000000023   0.0000975774  -0.0000502030   0.0000000017
       -0.0000113668  -0.0000706919   0.0000000007   0.0000342030  -0.0000505112
        0.0000000167  -0.0000418559  -0.0001597617   0.0000000103   0.0285000701
       -0.0090716609  -0.0000000948
       -0.0000021584  -0.0000005334   0.1115805701   0.0000001655   0.0000000569
       -0.0475912931  -0.0000000891   0.0000000846   0.0007733943   0.0000000498
       -0.0000000552  -0.0052789442  -0.0000000313  -0.0000000167  -0.0001350268
        0.0000000334   0.0000000130   0.0001904465  -0.0000000079  -0.0000000127
        0.0001373809  -0.0000000045  -0.0000000157   0.0000611498  -0.0000000081
        0.0000000036  -0.0000456989   0.0000000046   0.0000000046  -0.0000624282
       -0.0000000010   0.0000000042   0.0000791870   0.0000000024   0.0000000023
        0.0000088345   0.0000000006  -0.0000000037  -0.0000270070  -0.0000000052
       -0.0000000042  -0.0000165552  -0.0000000103  -0.0000000078   0.0000893185
        0.0000000094   0.0000000084  -0.0000095043  -0.0000000155   0.0000000030
       -0.0007821351   0.0000000316   0.0000000101   0.0002758370  -0.0000000035
        0.0000000121   0.0061800550   0.0000002139   0.0000001235   0.0013942658
        0.0000010913  -0.0000002360  -0.0434131177   0.0000006424   0.0000006407
       -0.0332564032   0.0000000493  -0.0000001154   0.0012243781   0.0000000449
        0.0000000310   0.0082166095  -0.0000000019   0.0000000035  -0.0001171435
       -0.0000000007   0.0000000021   0.0000464457   0.0000000050   0.0000000057
       -0.0000001889  -0.0000000009  -0.0000000026   0.0000221358  -0.0000000012
       -0.0000000012  -0.0000160881  -0.0000000001   0.0000000017  -0.0000285660
        0.0000000015   0.0000000030  -0.0000435622   0.0000000006  -0.0000000007
       -0.0000933751   0.0000000019  -0.0000000033  -0.0001617175  -0.0000000087
       -0.0000000055   0.0007987466
       -0.1101498926   0.0990599843   0.0000001655   0.6772942188   0.0075289691
       -0.0000025726  -0.2098750541  -0.1643054786   0.0000010673  -0.0573911061
       -0.0129030269   0.0000002340  -0.0002544072   0.0048933691   0.0000000256
       -0.0037273054  -0.0011758931  -0.0000000235   0.0007002034   0.0002442956
        0.0000000196  -0.0007045643   0.0003859976  -0.0000000796  -0.0008003028
       -0.0010014408   0.0000000164   0.0005148849   0.0000364105  -0.0000000140
       -0.0004775741   0.0001080374   0.0000000187   0.0001636444  -0.0002865242
        0.0000000145   0.0002102406   0.0000178529   0.0000000022  -0.0000579328
       -0.0001576855  -0.0000000051   0.0000049055  -0.0001639169   0.0000000003
        0.0009645536  -0.0008048733   0.0000000071  -0.0006103439   0.0022325605
        0.0000000324   0.0015050211   0.0008318292  -0.0000000321  -0.0039486654
       -0.0006387116   0.0000000251   0.0043844020  -0.0101354735  -0.0000000199
       -0.0122747641   0.0329469028   0.0000000646   0.0046384255  -0.0196598083
       -0.0000000040  -0.2899936795   0.0563809088   0.0000010673   0.0055973810
        0.0051616375  -0.0000000361  -0.0002383322  -0.0000314936  -0.0000000154
       -0.0000257967   0.0000219537   0.0000000095  -0.0000165705  -0.0000252223
       -0.0000000008  -0.0000116142  -0.0000561834   0.0000000138  -0.0000439945
       -0.0000342715   0.0000000042  -0.0000544906   0.0000311176  -0.0000000011
        0.0000184608   0.0000234757  -0.0000000010  -0.0000294799  -0.0000761733
       -0.0000000148   0.0002464776  -0.0002471059  -0.0000000119  -0.0055569484
        0.0017979803   0.0000000437
        0.0188266161  -0.2900901830   0.0000000569   0.0075289691   0.6403647492
       -0.0000007070  -0.0889126035  -0.2306474240   0.0000008725  -0.0662401029
        0.0319426508   0.0000002128   0.0118679309   0.0070293348  -0.0000000491
       -0.0024475800   0.0026239770  -0.0000000782  -0.0013664926  -0.0016937541
        0.0000000517   0.0016659501  -0.0008953010  -0.0000001407  -0.0035313572
       -0.0000421481   0.0000000345   0.0037120650  -0.0013074808  -0.0000000316
       -0.0024193971   0.0003638425   0.0000000416   0.0011123017  -0.0021410204
        0.0000000248   0.0015445272   0.0016565644  -0.0000000079  -0.0021087348
       -0.0001509070  -0.0000000066   0.0036361574   0.0008542190  -0.0000000114
       -0.0020631527   0.0008805015   0.0000000198   0.0030714846   0.0008970972
        0.0000000399  -0.0048413177  -0.0033098513  -0.0000000058   0.0072448364
        0.0012424696  -0.0000000046  -0.0200694817  -0.0444586540   0.0000001111
        0.0910596873  -0.0051756377  -0.0000002835   0.0042489609  -0.0244321441
        0.0000000010   0.0559798484  -0.0569597143  -0.0000002254  -0.0188140582
       -0.0256295010   0.0000001164   0.0002912712  -0.0011615092  -0.0000000238
       -0.0000050697  -0.0001220333   0.0000000149   0.0000704933  -0.0000630952
       -0.0000000029  -0.0000343370  -0.0001239949   0.0000000250  -0.0001158177
       -0.0000772042   0.0000000064  -0.0001329151   0.0000767622  -0.0000000016
        0.0000125560   0.0000924160  -0.0000000011  -0.0000935491   0.0000105122
       -0.0000000307  -0.0000493540  -0.0000211903  -0.0000000244   0.0013716654
        0.0004676513   0.0000000072
        0.0000001981  -0.0000001909  -0.0475912931  -0.0000025726  -0.0000007070
        0.1139060203   0.0000009316   0.0000010359  -0.0418935268   0.0000001419
       -0.0000001294  -0.0013678350  -0.0000001810   0.0000001923   0.0045673396
        0.0000004200   0.0000001543   0.0014211838  -0.0000002713  -0.0000001152
       -0.0001428820   0.0000002767  -0.0000001806  -0.0002962367  -0.0000000787
        0.0000002134  -0.0000168695   0.0000001242  -0.0000000684   0.0000584858
       -0.0000001138  -0.0000000127  -0.0000077784   0.0000000147  -0.0000000835
       -0.0000037966   0.0000000242   0.0000000609   0.0000073073  -0.0000000996
        0.0000000409   0.0000091518   0.0000000348   0.0000000215  -0.0000261715
        0.0000000154   0.0000001492   0.0000043987  -0.0000000723  -0.0000001017
       -0.0000159189   0.0000001465  -0.0000000311   0.0001531686   0.0000001047
       -0.0000001116  -0.0001623458  -0.0000001786   0.0000000942  -0.0048968947
       -0.0000000008  -0.0000001216   0.0011900804  -0.0000000103   0.0000001087
        0.0003538392   0.0000010743  -0.0000002244  -0.0338691301   0.0000000164
       -0.0000000022  -0.0000526514   0.0000000079  -0.0000000255   0.0003020997
       -0.0000000083  -0.0000000049   0.0000546281  -0.0000000071   0.0000000021
        0.0000383280   0.0000000066   0.0000000214  -0.0000020014   0.0000000159
        0.0000000067   0.0000018898   0.0000000181  -0.0000000062   0.0000030356
        0.0000000069  -0.0000000197   0.0000039822  -0.0000000181  -0.0000000299
        0.0000174810  -0.0000000142   0.0000000385  -0.0000506234   0.0000000479
        0.0000000265   0.0083035354
        0.0476443373  -0.0536815574  -0.0000000891  -0.2098750541  -0.0889126035
        0.0000009316   0.6420475007   0.0179800867  -0.0000023692  -0.2773422328
        0.0387778806   0.0000008959  -0.0572253264  -0.0180456881   0.0000002808
        0.0032272333  -0.0061474474   0.0000000691  -0.0012426437   0.0017592923
       -0.0000000274  -0.0005422862   0.0000962609   0.0000001110   0.0030243426
        0.0012409144  -0.0000000341  -0.0024208117   0.0004889787   0.0000000251
        0.0017682488  -0.0003093953  -0.0000000282  -0.0006833720   0.0013655415
       -0.0000000208  -0.0010099074  -0.0006666279   0.0000000024   0.0009123504
        0.0003340236   0.0000000090  -0.0015701591  -0.0000481801   0.0000000048
       -0.0008428605   0.0009800388  -0.0000000172  -0.0000324959  -0.0041666372
       -0.0000000355  -0.0003322358   0.0002966306   0.0000000259   0.0023633130
        0.0019321269  -0.0000000091  -0.0100695497   0.0615317263  -0.0000000401
       -0.0486154925  -0.0111614115   0.0000001277   0.0006118824   0.0022163343
        0.0000000245  -0.0239365919  -0.0209584789   0.0000001221  -0.0666685536
        0.0713436706   0.0000000564   0.0012925172   0.0029988490  -0.0000000054
        0.0000491119   0.0004404748  -0.0000000165  -0.0002064056   0.0000873886
       -0.0000000018   0.0000576285   0.0001531637  -0.0000000191   0.0000927805
        0.0000752320  -0.0000000043   0.0001281155  -0.0000642658   0.0000000019
       -0.0000318573  -0.0000573744   0.0000000008   0.0000729350   0.0001027065
        0.0000000217  -0.0002158033   0.0001507173   0.0000000129  -0.0004286579
       -0.0001323705  -0.0000000062
        0.0011483659  -0.0624257570   0.0000000846  -0.1643054786  -0.2306474240
        0.0000010359   0.0179800867   0.6769062398  -0.0000010569   0.0929696386
       -0.1028680223  -0.0000002756  -0.0328819528   0.0031872594   0.0000001310
       -0.0001368259  -0.0027499073   0.0000000540  -0.0025423611  -0.0000663720
       -0.0000000145   0.0003703221  -0.0006566782   0.0000000643   0.0008604867
        0.0007724656  -0.0000000132  -0.0007549913   0.0001801725   0.0000000132
        0.0006081586  -0.0000220618  -0.0000000169  -0.0002634118   0.0004948793
       -0.0000000112  -0.0003160671  -0.0003383791   0.0000000006   0.0004241622
       -0.0000092266   0.0000000025  -0.0006170619  -0.0000165973   0.0000000025
       -0.0000068077   0.0000444569  -0.0000000036  -0.0005442907  -0.0009435842
       -0.0000000304  -0.0000041688  -0.0008074082   0.0000000168   0.0027960705
       -0.0058101781   0.0000000044   0.0286289787  -0.0000705137  -0.0000000823
       -0.0190323402  -0.0009891007   0.0000000131   0.0017742328  -0.0052865054
        0.0000000105   0.0029026632   0.0038943887  -0.0000000150   0.0724171999
       -0.2744187253   0.0000000626  -0.0023467672   0.0020827303   0.0000000156
        0.0000376266   0.0000305629  -0.0000000069  -0.0001380578   0.0000103439
        0.0000000015   0.0000088253   0.0000125112  -0.0000000119   0.0000075928
        0.0000228455  -0.0000000038   0.0000100701  -0.0000087405   0.0000000011
       -0.0000155191   0.0000104981   0.0000000013   0.0000033500   0.0000955076
        0.0000000129   0.0014119831  -0.0004297620   0.0000000106  -0.0004537119
        0.0008200819   0.0000000031
       -0.0000000724   0.0000002063   0.0007733943   0.0000010673   0.0000008725
       -0.0418935268  -0.0000023692  -0.0000010569   0.1062747727   0.0000009470
        0.0000000503  -0.0471797775   0.0000005285  -0.0000001160   0.0022752997
       -0.0000004255  -0.0000001308   0.0029237582   0.0000002979   0.0000001333
        0.0005512836  -0.0000002872   0.0000001999   0.0001734136   0.0000000793
       -0.0000002224  -0.0000246344  -0.0000001204   0.0000000669  -0.0000643044
        0.0000001191   0.0000000071   0.0000462505  -0.0000000159   0.0000000818
        0.0000018510  -0.0000000304  -0.0000000605   0.0000078214   0.0000000930
       -0.0000000311   0.0000487445  -0.0000000369  -0.0000000195   0.0001792211
       -0.0000000038  -0.0000001446   0.0000011268   0.0000000833   0.0000000935
       -0.0011348335  -0.0000001700   0.0000000396  -0.0001259355  -0.0000000904
        0.0000001165   0.0056938395   0.0000001868  -0.0000002061   0.0012154244
        0.0000000893   0.0000000044  -0.0034361359   0.0000000183  -0.0000000114
        0.0065381711   0.0000000866   0.0000000802   0.0007894779   0.0000000344
        0.0000000887  -0.0312524770  -0.0000000050  -0.0000000162  -0.0016424852
        0.0000000079  -0.0000000058  -0.0001622140   0.0000000065  -0.0000000091
       -0.0002221330  -0.0000000070  -0.0000000129  -0.0000434994  -0.0000000119
       -0.0000000040  -0.0000330278  -0.0000000105   0.0000000025   0.0000323153
       -0.0000000016   0.0000000108   0.0000575743   0.0000000087   0.0000000185
        0.0000231474   0.0000000022  -0.0000000185  -0.0002328477   0.0000000019
       -0.0000000070  -0.0001590553
       -0.0284375222   0.0347573916   0.0000000498  -0.0573911061  -0.0662401029
        0.0000001419  -0.2773422328   0.0929696386   0.0000009470   0.6801014907
       -0.0029531928  -0.0000022817  -0.1815266961  -0.1066738439   0.0000009400
       -0.0432752911  -0.0143399630   0.0000000531  -0.0026747027   0.0003401002
        0.0000000571  -0.0027648994  -0.0005884867  -0.0000001974  -0.0021539538
       -0.0037509325   0.0000000561   0.0009662616   0.0003581582  -0.0000000285
       -0.0009741544   0.0002589957   0.0000000460   0.0001263833  -0.0006700177
        0.0000000375   0.0006195441  -0.0002756688   0.0000000030   0.0001106001
       -0.0004990365  -0.0000000183   0.0001527102  -0.0009389776  -0.0000000014
        0.0035879382  -0.0025296182   0.0000000200  -0.0017548119   0.0079089910
        0.0000000735   0.0047944654  -0.0031316968  -0.0000000662  -0.0198640566
        0.0295236247   0.0000000721  -0.1020462215   0.0423679319   0.0000000871
        0.0423180420  -0.0064521643  -0.0000000671  -0.0001923135   0.0006537479
        0.0000000016  -0.0017779044  -0.0030836199   0.0000000581  -0.0107678258
        0.0051959697   0.0000000442   0.0085846447   0.0015481977  -0.0000000812
        0.0001576347  -0.0003080968   0.0000000348  -0.0001277636   0.0000436027
       -0.0000000004  -0.0000643142  -0.0001863688   0.0000000372  -0.0000557888
       -0.0000850414   0.0000000107  -0.0001277729   0.0000380900  -0.0000000056
        0.0000822908   0.0000044950  -0.0000000043  -0.0000087790  -0.0003915656
       -0.0000000383  -0.0057898676   0.0010531561  -0.0000000081  -0.0024840275
       -0.0039236968   0.0000000278
        0.0235849387  -0.0159847594  -0.0000000552  -0.0129030269   0.0319426508
       -0.0000001294   0.0387778806  -0.1028680223   0.0000000503  -0.0029531928
        0.6367498334  -0.0000009481  -0.1005947452  -0.2034727142   0.0000008253
       -0.0211036261   0.0171808403  -0.0000000368   0.0024914892  -0.0016372278
        0.0000000217  -0.0000923607  -0.0002895634  -0.0000001475  -0.0027471433
       -0.0024025705   0.0000000485   0.0016472838  -0.0006517683  -0.0000000194
       -0.0011649439   0.0001253393   0.0000000331   0.0002749136  -0.0012328661
        0.0000000274   0.0010011163   0.0006448210  -0.0000000031  -0.0011250827
       -0.0000311231  -0.0000000137   0.0025749323   0.0001527689  -0.0000000136
       -0.0005596263   0.0007893600   0.0000000212   0.0049062860   0.0025135345
        0.0000000389  -0.0096414683  -0.0160653523   0.0000000206   0.0459708662
       -0.0079435410  -0.0000001071   0.0612268527  -0.2455810475   0.0000000452
       -0.0360419979  -0.0450657708   0.0000002800   0.0006021751   0.0000965397
       -0.0000000132  -0.0038084353  -0.0028115857   0.0000000392   0.0281273961
       -0.0114867782  -0.0000000749  -0.0168778334  -0.0294901011   0.0000001118
        0.0000655024  -0.0004464478   0.0000000258   0.0003481111   0.0000358305
        0.0000000035  -0.0000557705  -0.0001147378   0.0000000267  -0.0000253298
       -0.0000607766   0.0000000073  -0.0000663476   0.0000203837  -0.0000000035
        0.0000443808  -0.0000208980  -0.0000000041  -0.0000801182  -0.0001805648
       -0.0000000341   0.0007762552  -0.0000834976  -0.0000000218  -0.0025793315
       -0.0023301877  -0.0000000009
        0.0000000088  -0.0000001296  -0.0052789442   0.0000002340   0.0000002128
       -0.0013678350   0.0000008959  -0.0000002756  -0.0471797775  -0.0000022817
       -0.0000009481   0.1257911855   0.0000008180   0.0000007758  -0.0316855396
        0.0000002529   0.0000000646  -0.0046472447  -0.0000001200  -0.0000000124
        0.0023240712   0.0000001487  -0.0000000625   0.0020773680  -0.0000000015
        0.0000001058   0.0001836836   0.0000000388  -0.0000000319  -0.0003442675
       -0.0000000403  -0.0000000016   0.0000292012   0.0000000126  -0.0000000236
        0.0000251060   0.0000000065   0.0000000195   0.0000181236  -0.0000000419
        0.0000000174   0.0000419819   0.0000000098   0.0000000216   0.0001028582
       -0.0000000162   0.0000000637  -0.0001059058   0.0000000027  -0.0000001035
        0.0002077708   0.0000000100   0.0000000374  -0.0027800569  -0.0000000164
       -0.0000000953   0.0014634827   0.0000000296   0.0000001719  -0.0555894284
       -0.0000000666   0.0000000854  -0.0016137241   0.0000000048   0.0000000012
        0.0003563469   0.0000000553   0.0000000229   0.0084777500   0.0000000042
       -0.0000000042   0.0008556249  -0.0000000170   0.0000000600  -0.0026973876
        0.0000000006   0.0000000001  -0.0001463244  -0.0000000066  -0.0000000053
       -0.0005711922   0.0000000024   0.0000000050  -0.0000278092   0.0000000015
        0.0000000014  -0.0000170623   0.0000000044  -0.0000000006   0.0000215477
        0.0000000023  -0.0000000030   0.0000478919  -0.0000000048   0.0000000000
       -0.0000647966   0.0000000383   0.0000000018   0.0051380146   0.0000000307
        0.0000000286   0.0069552874
        0.0027375201  -0.0072003942  -0.0000000313  -0.0002544072   0.0118679309
       -0.0000001810  -0.0572253264  -0.0328819528   0.0000005285  -0.1815266961
       -0.1005947452   0.0000008180   0.6766353016   0.0004785769  -0.0000025532
       -0.2826624389   0.0274904780   0.0000006081  -0.0613769807  -0.0141492751
        0.0000004042   0.0116711208  -0.0100672407  -0.0000001170  -0.0036022279
        0.0122465967  -0.0000000151   0.0079226133  -0.0035739136  -0.0000000575
       -0.0038105647   0.0005007604   0.0000000851   0.0026162535  -0.0033705401
        0.0000000251   0.0020975541   0.0041561071  -0.0000000189  -0.0045070650
        0.0001778860   0.0000000093   0.0072595671   0.0034484636  -0.0000000090
       -0.0108557890   0.0054366388   0.0000000200   0.0024063288  -0.0120505026
        0.0000001239  -0.0253437601   0.0358998472   0.0000000197  -0.0116174996
       -0.0038737896   0.0000000493   0.0140902646  -0.0135172071  -0.0000000235
       -0.0041688572   0.0022200437   0.0000001660   0.0001062870  -0.0000683510
        0.0000000003  -0.0015230643  -0.0012140196   0.0000000366   0.0018898652
       -0.0014665236   0.0000000439  -0.0815112580   0.0967295852   0.0000001421
        0.0021049186   0.0023888457  -0.0000000166  -0.0010714773   0.0002124227
       -0.0000000164   0.0000855482   0.0000024093   0.0000000416  -0.0002620161
       -0.0001138928   0.0000000054  -0.0001674433   0.0001448194  -0.0000000085
       -0.0000783874   0.0003294655  -0.0000000004  -0.0000011826   0.0004969246
       -0.0000000379  -0.0002067552  -0.0004949811  -0.0000000362   0.0001500540
        0.0004095277  -0.0000000046
        0.0013095433  -0.0047347671  -0.0000000167   0.0048933691   0.0070293348
        0.0000001923  -0.0180456881   0.0031872594  -0.0000001160  -0.1066738439
       -0.2034727142   0.0000007758   0.0004785769   0.7064689534  -0.0000012338
        0.0413322671  -0.0993905386   0.0000001396  -0.0294456278   0.0070767245
        0.0000000046  -0.0032733366  -0.0034597490   0.0000002515   0.0024919533
        0.0011205672  -0.0000000430  -0.0022742310   0.0004539797   0.0000000344
        0.0014607422  -0.0002541343  -0.0000000498  -0.0005628292   0.0012589555
       -0.0000000336  -0.0009039517  -0.0006726242   0.0000000029   0.0009953913
        0.0002982938   0.0000000106  -0.0015846338  -0.0003071254   0.0000000042
        0.0009047168   0.0005051826  -0.0000000208   0.0003913488  -0.0097572961
       -0.0000000596   0.0361716777  -0.0080204205  -0.0000000660  -0.0109566940
        0.0025059569  -0.0000000043  -0.0131643122  -0.0544627174   0.0000001893
        0.0011519044  -0.0063718386  -0.0000000920   0.0003336089   0.0003041561
        0.0000000048   0.0005932438   0.0003786783  -0.0000000130   0.0021743565
        0.0018393841  -0.0000000396   0.0972204838  -0.3435921511   0.0000001543
       -0.0022047639   0.0014468639  -0.0000000249  -0.0015992568   0.0000482578
       -0.0000000041   0.0001034382   0.0001643589  -0.0000000367   0.0000743478
        0.0000913112  -0.0000000091   0.0001149813  -0.0000338466   0.0000000058
       -0.0000563843  -0.0000192343   0.0000000041   0.0000901935   0.0002177308
        0.0000000396  -0.0004172163   0.0011456156   0.0000000318  -0.0011233750
       -0.0009924071   0.0000000174
       -0.0000000042   0.0000000343  -0.0001350268   0.0000000256  -0.0000000491
        0.0045673396   0.0000002808   0.0000001310   0.0022752997   0.0000009400
        0.0000008253  -0.0316855396  -0.0000025532  -0.0000012338   0.0569067771
        0.0000008991   0.0000000550  -0.0318724677   0.0000002548   0.0000000154
        0.0038782886  -0.0000000573   0.0000000698   0.0044266203   0.0000000069
       -0.0000000750  -0.0000032112  -0.0000000359   0.0000000196  -0.0008205412
        0.0000000307  -0.0000000014  -0.0000110948  -0.0000000085   0.0000000218
        0.0000682099  -0.0000000115  -0.0000000238   0.0000072453   0.0000000327
       -0.0000000034  -0.0001357371  -0.0000000312  -0.0000000108  -0.0000999943
        0.0000000363  -0.0000000501   0.0005659808   0.0000000311   0.0000000959
        0.0040691080  -0.0000000437  -0.0000001370   0.0007350547   0.0000000686
        0.0000000408  -0.0029296089  -0.0000000220   0.0000001440   0.0026683560
        0.0000000314   0.0000000229   0.0051335625  -0.0000000099  -0.0000000039
       -0.0011593968   0.0000000033   0.0000000059   0.0002212855  -0.0000000191
        0.0000000017  -0.0015432082   0.0000001512   0.0000001353  -0.0132174696
        0.0000000045  -0.0000000129  -0.0016592860  -0.0000000008  -0.0000000057
        0.0000899054  -0.0000000024  -0.0000000023  -0.0000266571  -0.0000000022
        0.0000000005   0.0000061573  -0.0000000009  -0.0000000009   0.0000422544
        0.0000000002  -0.0000000007  -0.0000177123   0.0000000012   0.0000000023
        0.0000018334   0.0000000018  -0.0000000066  -0.0003237982   0.0000000026
       -0.0000000041  -0.0000225289
       -0.0012873514   0.0029436246   0.0000000334  -0.0037273054  -0.0024475800
        0.0000004200   0.0032272333  -0.0001368259  -0.0000004255  -0.0432752911
       -0.0211036261   0.0000002529  -0.2826624389   0.0413322671   0.0000008991
        0.6596671129   0.0664488938  -0.0000012758  -0.1655226346  -0.1492802751
        0.0000001929  -0.0663674722  -0.0028042132   0.0000005578   0.0126331989
       -0.0230572786  -0.0000000511  -0.0148044630   0.0060591724   0.0000000939
        0.0074629933  -0.0007643684  -0.0000001524  -0.0038419455   0.0061566486
       -0.0000000680  -0.0037310122  -0.0058961337   0.0000000210   0.0061355444
       -0.0001461387   0.0000000054  -0.0123201615  -0.0042507818   0.0000000205
        0.0082252490  -0.0069193196  -0.0000000218  -0.0202431528   0.0415447186
       -0.0000002026  -0.0794400763   0.0462584118  -0.0000000527   0.0119575412
       -0.0150600190  -0.0000000517  -0.0002266865   0.0050434774  -0.0000000012
        0.0013211029  -0.0001800035  -0.0000002497   0.0002874243   0.0003451575
        0.0000000050   0.0003740261  -0.0000273165  -0.0000000415  -0.0001259252
        0.0002317186  -0.0000000834  -0.0114230949   0.0108954619   0.0000000816
        0.0044569214   0.0068748189  -0.0000000497  -0.0055408291   0.0008833213
        0.0000000094   0.0001512070   0.0002675982  -0.0000000861   0.0003889779
        0.0002148710  -0.0000000202   0.0002915943  -0.0002205003   0.0000000097
        0.0000661917  -0.0004643666   0.0000000015   0.0000400713  -0.0005240108
        0.0000000839  -0.0024584182  -0.0030119272   0.0000001265   0.0003118688
        0.0007945236   0.0000000188
        0.0021913955  -0.0021686846   0.0000000130  -0.0011758931   0.0026239770
        0.0000001543  -0.0061474474  -0.0027499073  -0.0000001308  -0.0143399630
        0.0171808403   0.0000000646   0.0274904780  -0.0993905386   0.0000000550
        0.0664488938   0.6435619648  -0.0000011861  -0.1051709492  -0.2595312756
        0.0000004503  -0.0477439414   0.0279412056   0.0000001930   0.0025547476
       -0.0309523133   0.0000000090  -0.0063610860   0.0023222035   0.0000000225
        0.0014144101  -0.0001657980  -0.0000000639  -0.0009705022   0.0009592432
       -0.0000000238  -0.0002251516  -0.0016983566   0.0000000101   0.0014048486
       -0.0000166076  -0.0000000058  -0.0035635639  -0.0033376704   0.0000000060
        0.0077897828  -0.0049972941   0.0000000019   0.0266184019   0.0102482664
       -0.0000001635   0.0565287984  -0.1985062378   0.0000004499  -0.0311253576
       -0.0545352273   0.0000002299   0.0161251915  -0.0027213082  -0.0000000466
       -0.0044531463  -0.0039589907  -0.0000000698   0.0002334083   0.0001164550
        0.0000000051  -0.0001102717  -0.0001824910  -0.0000000166   0.0001235317
       -0.0003319280  -0.0000000416   0.0296512269  -0.0078963917  -0.0000001002
       -0.0161879998  -0.0290660472   0.0000000606   0.0014866624   0.0007473159
        0.0000000268  -0.0000290646   0.0000608174  -0.0000000400   0.0001771611
        0.0000551428  -0.0000000110   0.0001216506  -0.0000817219   0.0000000120
        0.0000922522  -0.0002870741   0.0000000116   0.0000559444  -0.0007259506
        0.0000000473  -0.0028890670  -0.0028083857   0.0000000636  -0.0000153809
        0.0002927684   0.0000000131
       -0.0000000722   0.0000000382   0.0001904465  -0.0000000235  -0.0000000782
        0.0014211838   0.0000000691   0.0000000540   0.0029237582   0.0000000531
       -0.0000000368  -0.0046472447   0.0000006081   0.0000001396  -0.0318724677
       -0.0000012758  -0.0000011861   0.1229312969   0.0000002658   0.0000006114
       -0.0420696028   0.0000003761  -0.0000002295  -0.0028411772  -0.0000001275
        0.0000002840  -0.0027950891   0.0000001482  -0.0000000649   0.0004022317
       -0.0000001122  -0.0000000111   0.0000465130   0.0000000334  -0.0000000911
        0.0000218516   0.0000000420   0.0000000897   0.0001081338  -0.0000000978
        0.0000000175  -0.0001433126   0.0000001333   0.0000000536  -0.0004817047
       -0.0000000989   0.0000001177   0.0031518697   0.0000000275  -0.0000002762
        0.0017602203  -0.0000000717   0.0000004079  -0.0567425892   0.0000001012
        0.0000001352   0.0005291337  -0.0000001484  -0.0000000416  -0.0049504571
        0.0000000727   0.0000000157   0.0001930979   0.0000000021   0.0000000032
       -0.0001627845   0.0000000041   0.0000000002  -0.0004182234   0.0000000046
       -0.0000000067  -0.0001349978  -0.0000000217  -0.0000000333  -0.0011272407
        0.0000000085   0.0000000320  -0.0006552337   0.0000000440   0.0000000359
        0.0060336581   0.0000000021   0.0000000098   0.0000217185   0.0000000057
        0.0000000016  -0.0000259518   0.0000000063  -0.0000000050  -0.0000134132
        0.0000000004  -0.0000000065   0.0000106959  -0.0000000017  -0.0000000087
       -0.0002390280   0.0000000449   0.0000000252   0.0096697387  -0.0000000017
        0.0000000031  -0.0000950301
       -0.0019679534   0.0010244071  -0.0000000079   0.0007002034  -0.0013664926