77
 energy: -111.721157482728 gnorm: 0.000104129346 xtb: 6.7.1 (edcfbbe)
C           -2.96601333627978       -5.64819259766104        1.16907303984125
C           -3.47053606290070       -4.95901294962016       -0.10764755322291
C           -2.83283082981733       -5.61705410707656       -1.34061104297782
C           -4.98621026327914       -5.16453045082157       -0.19142557155007
C           -3.08072501655323       -3.48763521166272       -0.06986970245169
C           -1.72278734182092       -3.14853488058966       -0.00390891696491
C           -1.27490405827968       -1.84289314972999        0.02418156831183
C           -2.21824648836378       -0.82838296068414       -0.02573821744346
C           -3.59219460535411       -1.14208671186611       -0.05883130031154
C           -4.01537936251067       -2.46470519050102       -0.08619084237635
C           -4.29867473812838        0.11067314230421       -0.03611203487607
C           -5.64898872251304        0.43319938385625       -0.07301110361039
C           -6.04039287070126        1.76245737006673       -0.06257699554107
C           -7.50169906863290        2.18935440187773       -0.08854238164484
C           -8.46285220054594        0.99672070732363       -0.11415434000853
C           -7.80543010976719        3.01815877031393        1.16863991531952
C           -7.75976227909816        3.03530471341146       -1.34439145862587
C           -5.04598182190204        2.74948461212879       -0.03668006585242
C           -3.69697005473909        2.45715362956768       -0.00127165100554
C           -3.31953059226915        1.12355144358002        0.02184089688534
N           -2.05929212191293        0.54751013729607        0.02453998861414
C           -0.84339368778502        1.22405670846202        0.07702366030607
C            0.19577478581067        0.86763263739708       -0.78536373986169
C            1.41412322756874        1.50863640188866       -0.71399679398742
C            1.62032818209039        2.53463921469538        0.21021487788070
C            2.90600129573474        3.25880055461805        0.30776514604111
O            2.95068654165912        4.44251141788128        0.61642679457904
C            4.13949340522580        2.48773692254994        0.02671690111046
C            5.25173836241562        3.16545128864394       -0.49212498613261
C            6.43183577595611        2.50384508019505       -0.75262160530856
C            6.50645421670936        1.14673342446634       -0.47120834368197
S            7.90085854857313        0.12618259855215       -0.71448040121294
C            7.02784640391121       -1.26139166945460       -0.08771096281485
C            7.52880958736801       -2.54703352211701        0.03489421833489
C            6.70067203950386       -3.52845651239651        0.54639192427728
C            5.39507495626309       -3.23127102654843        0.92693662447103
C            4.89821501768743       -1.94947163284518        0.80476154706558
C            5.71419657156855       -0.94320275242758        0.29421644021263
C            5.41145273291298        0.44875663872963        0.07330271719617
C            4.22801241861981        1.13162277024547        0.31992264484867
C            0.56451021560167        2.91774407649578        1.03917996188087
C           -0.64723911028542        2.26391963617206        0.98823977856345
H           -3.39707039661414       -5.17319608975142        2.04846179037168
H           -1.88377697708053       -5.59386140873288        1.24917168221778
H           -3.25468246755945       -6.69736639689313        1.16709738671676
H           -3.16625099100324       -5.11719717311577       -2.24818613469181
H           -3.12191291850673       -6.66459159597313       -1.39768309936129
H           -1.74816231455572       -5.56595495653374       -1.30283189343229
H           -5.48699325589514       -4.74821004113988        0.67980752568746
H           -5.39385944620110       -4.70809721497350       -1.09072315011305
H           -5.20563973913712       -6.22998736531898       -0.22647435005745
H           -0.98272654384625       -3.93343053937364        0.03111870186657
H           -0.21902735159113       -1.62963141156015        0.09545024001663
H           -5.07294064351542       -2.66700330314414       -0.11318923771256
H           -6.36891888506970       -0.36686822327075       -0.11477127370305
H           -8.33600095443661        0.37270456666295        0.76768937085953
H           -8.31249245853679        0.39197671312895       -1.00567752112278
H           -9.48905770640228        1.35913355327669       -0.12409204691713
H           -8.85253832684561        3.31410060629452        1.17821894621870
H           -7.19808335655812        3.91831604296636        1.20794698993514
H           -7.60411543942571        2.43178520434354        2.06331903110147
H           -8.80718190476972        3.32670609192605       -1.39067937105541
H           -7.52052180453154        2.46306585980329       -2.23884610421391
H           -7.15590531973707        3.93862744773640       -1.34703265880780
H           -5.33269611696384        3.79007048869268       -0.04901574921700
H           -2.96624548463102        3.25205149350586       -0.00526897946131
H            0.03119740031483        0.09780435799020       -1.52381167986940
H            2.20128734355742        1.23756696158874       -1.40161688290909
H            5.15926698591887        4.22269499121043       -0.69212127933076
H            7.28302549901850        3.02496398746386       -1.16232588469936
H            8.54151239393070       -2.76974965431698       -0.26341481601325
H            7.07218213977213       -4.53678055780612        0.65032023089175
H            4.76556618962719       -4.01407756976220        1.32280837104401
H            3.88567747064672       -1.72115308621834        1.10091592559239
H            3.39164254004098        0.61301820082751        0.76219139797655
H            0.72677050427605        3.72151070508104        1.74264223271571
H           -1.44190070595476        2.53793721169219        1.66507629591329
