$hessian                                                                        
        0.0580301114  -0.0597302918   0.0472476710  -0.0692281388   0.0566294598
       -0.0433502390   0.0117389930  -0.0103010533   0.0089377707   0.0072469502
       -0.0064044235   0.0044848360   0.0005555730  -0.0004896203   0.0001428216
       -0.0006190276   0.0004497008   0.0002683198   0.0000124058   0.0000034424
        0.0002035622  -0.0009823656  -0.0001328283  -0.0001444939   0.0000059912
       -0.0016937923  -0.0008526624   0.0010609200   0.0194311930  -0.0135557426
       -0.0062742603   0.0017120704   0.0004554242  -0.0012721641  -0.0002065928
       -0.0014329188   0.0016985366  -0.0004099028  -0.0001771778  -0.0015293420
        0.0006956602   0.0000753393   0.0003231682  -0.0007455833  -0.0008974724
        0.0001545066   0.0001846845   0.0001685865  -0.0000141011  -0.0001461445
       -0.0001316710  -0.0000332278   0.0000611142   0.0000424396  -0.0000205835
       -0.0001076247  -0.0000560597  -0.0001384220   0.0002167602   0.0001419991
       -0.0000714602   0.0000102854   0.0000017571  -0.0001226507  -0.0001196693
       -0.0001214893   0.0000169133   0.0000659697   0.0000312796  -0.0000610720
       -0.0000183535  -0.0000348368   0.0000508861   0.0001361719   0.0001396485
        0.0001099110  -0.0002309661  -0.0001483364   0.0005033376   0.0004277940
        0.0007740504   0.0000262404   0.0000474869  -0.0000404093   0.0000640983
        0.0000066278  -0.0000228293  -0.0000530999   0.0000246750  -0.0000119752
        0.0000515136  -0.0000296437   0.0000211432   0.0000123993   0.0000537021
       -0.0000548093   0.0000565152  -0.0001335703   0.0001601091  -0.0002458713
        0.0000870082  -0.0000206285   0.0002485339  -0.0000556701  -0.0000066255
       -0.0000546411   0.0000233136  -0.0000277678   0.0000186664  -0.0000082927
       -0.0000156229  -0.0000783064   0.0000111053   0.0000040365   0.0003330552
       -0.0000713910  -0.0000186682  -0.0001090536   0.0000180905  -0.0000466502
       -0.0000969697   0.0000619241   0.0000467899  -0.0000486329   0.0000066817
        0.0000041048  -0.0000088806  -0.0000092169  -0.0000060259   0.0000017781
        0.0000007549  -0.0000073151   0.0000010775   0.0000077160  -0.0000046772
        0.0000047713   0.0000064606   0.0000042707  -0.0000053593  -0.0000031156
        0.0000155426   0.0000224804  -0.0000048732   0.0000174189  -0.0000576704
        0.0000061350   0.0000287097   0.0000633336   0.0000665007  -0.0001303906
       -0.0000090602  -0.0000449127   0.0000424842   0.0000496436   0.0000063912
       -0.0000201847  -0.0000600035  -0.0000017196   0.0000193914   0.0000290399
       -0.0000277439   0.0000260975   0.0000316164  -0.0000544107   0.0000483010
        0.0003692273  -0.0006330428  -0.0014279484  -0.0003190788   0.0009227923
       -0.0002685700  -0.0003448804  -0.0001763942   0.0000596431  -0.0000192274
       -0.0000167745  -0.0000185777   0.0001270954  -0.0001184317   0.0000025817
       -0.0001369560  -0.0001325524  -0.0000051998   0.0001393268  -0.0001359745
        0.0001408903  -0.0001754284   0.0003477421   0.0002947621  -0.0005694891
        0.0001101013  -0.0001422487  -0.0000536218  -0.0001327610  -0.0000897658
        0.0000154201   0.0000373532   0.0000422090  -0.0000454790   0.0000440153
        0.0000312102  -0.0000585879   0.0000336667   0.0000175916  -0.0000744303
        0.0000005049  -0.0000174020  -0.0000599780  -0.0000215310  -0.0000332521
       -0.0000030912  -0.0000289246  -0.0000246136  -0.0000434046   0.0001372798
        0.0000807590  -0.0000332922   0.0000240041  -0.0000201130   0.0000098253
       -0.0000108668   0.0000073224  -0.0000341969  -0.0000179090   0.0000178233
       -0.0000446313  -0.0000020208   0.0000044405   0.0000077791   0.0000045562
        0.0000091927  -0.0000063210  -0.0000065393  -0.0000029915   0.0000061262
       -0.0000006189  -0.0000040397   0.0000042444  -0.0000034170   0.0000049271
        0.0000005611  -0.0000065288   0.0000026403   0.0000018804  -0.0000067535
       -0.0000025516   0.0000065184   0.0000022624   0.0000005668  -0.0000031391
        0.0000051165   0.0000050122   0.0000053775  -0.0000079779  -0.0000097380
       -0.0000339625   0.0000188995  -0.0000045158  -0.0000231345   0.0000248361
       -0.0000182133   0.0000102983   0.0000106779  -0.0000159044  -0.0000266287
       -0.0000214201   0.0000214966   0.0000334451   0.0000017716   0.0000293407
        0.0000432308   0.0004773853  -0.0008829898
       -0.0597302918   0.3279134402  -0.2490999065   0.0564383124  -0.3154742095
        0.2194344978  -0.0029706751   0.0123175464   0.0053238402   0.0060450555
       -0.0126767245   0.0181173827  -0.0002244864  -0.0009576310   0.0015370377
       -0.0008542258   0.0007846628   0.0007324076   0.0001702678   0.0003662100
        0.0002762979  -0.0016329913  -0.0006842278   0.0010998725  -0.0016477441
       -0.0066140410  -0.0038618784  -0.0002765774  -0.0023896246   0.0081659933
        0.0036197958  -0.0005868483  -0.0005327711   0.0001938292  -0.0003986121
        0.0006114390  -0.0013444134   0.0001203383  -0.0000836948   0.0011262260
        0.0002713528   0.0001278654  -0.0000319308   0.0000371190   0.0003374019
       -0.0001559343   0.0000198772  -0.0000887292  -0.0000474358   0.0000780791
        0.0000355452   0.0000484277   0.0000025106  -0.0000000282   0.0000309330
        0.0000202432  -0.0000214694  -0.0000381741  -0.0000633745  -0.0000633482
        0.0000459461  -0.0000081056   0.0000114617   0.0002150001   0.0000887723
        0.0001147369  -0.0000465355  -0.0000726170  -0.0000644391   0.0000175829
        0.0000653916   0.0000494847   0.0000185112  -0.0000933740  -0.0001198332
        0.0000961508   0.0002355033   0.0000824423  -0.0006129861  -0.0005348851
       -0.0007306141  -0.0000817330  -0.0000017653   0.0000502407   0.0000282510
       -0.0000151193   0.0000335041   0.0000383161  -0.0000200083   0.0000266143
       -0.0000184776   0.0000027399   0.0000046853   0.0000006326   0.0000102461
       -0.0000028828   0.0000437810  -0.0000526671  -0.0000010987   0.0001686531
        0.0001357140  -0.0001481821  -0.0001371806   0.0000274452  -0.0000086133
        0.0000322710  -0.0000095588   0.0000121904  -0.0000101807   0.0000057933
        0.0000074488   0.0000418047   0.0000060346  -0.0000049898  -0.0002102062
       -0.0000401944   0.0000256651   0.0000646891   0.0000134992   0.0000121563
        0.0000600450   0.0000016158  -0.0000226197   0.0000304766   0.0000032895
       -0.0000040310   0.0000045216   0.0000060075   0.0000028511  -0.0000031535
        0.0000005468   0.0000048932  -0.0000034926  -0.0000067914   0.0000029959
       -0.0000049627  -0.0000043254  -0.0000034803   0.0000023551   0.0000018976
       -0.0000109196  -0.0000061005   0.0000030744  -0.0000110220   0.0000299519
       -0.0000004338  -0.0000225775  -0.0001549008  -0.0001334808   0.0001752204
        0.0000133032   0.0000567025  -0.0000502613  -0.0000489984  -0.0000072846
        0.0000246951   0.0000314204   0.0000092205  -0.0000072074  -0.0000571169
        0.0000191246   0.0000104897   0.0000397929   0.0000357148  -0.0000088974
        0.0003256113   0.0000970554   0.0001433497  -0.0005913475  -0.0000319335
        0.0016802763   0.0004633200  -0.0005281330  -0.0001061175  -0.0000030097
       -0.0001041166  -0.0002616344   0.0002626916  -0.0002728342  -0.0001362188
       -0.0003128774  -0.0006589760  -0.0002415793   0.0006554423   0.0002192302
       -0.0007500373  -0.0001828730   0.0002872749  -0.0009268761   0.0003523160
       -0.0000918253  -0.0000563760   0.0000598284  -0.0000230519   0.0000550964
        0.0000006703   0.0000261185   0.0000346001   0.0000292965  -0.0000208113
       -0.0000043795   0.0000492851  -0.0000176867   0.0000008508   0.0000274087
        0.0000017045   0.0000153411   0.0000202909   0.0000113332   0.0000274315
        0.0000060717   0.0000437150   0.0000734405  -0.0000651259  -0.0001554040
       -0.0000059125  -0.0000006029  -0.0000366515   0.0000190635  -0.0000036716
        0.0000289051  -0.0000359699   0.0000196569   0.0000146769  -0.0000152344
        0.0000170537   0.0000034215  -0.0000073177  -0.0000047665  -0.0000080580
       -0.0000017888   0.0000027053   0.0000011334   0.0000023633  -0.0000026695
        0.0000003764   0.0000036139  -0.0000014590   0.0000013901  -0.0000043277
        0.0000025081   0.0000049994  -0.0000026844   0.0000017462   0.0000036944
        0.0000021384  -0.0000030546  -0.0000043577  -0.0000024428  -0.0000019226
       -0.0000052363  -0.0000014597  -0.0000034026   0.0000010802   0.0000110501
        0.0000211146  -0.0000101600  -0.0000031132   0.0000112827  -0.0000102071
        0.0000019562  -0.0000017329   0.0000063624  -0.0000148311   0.0000291668
       -0.0000078938  -0.0000126692   0.0001541786  -0.0000217728  -0.0001366905
        0.0003214719  -0.0005571708  -0.0008207728
        0.0472476710  -0.2490999065   0.2770896244  -0.0426368193   0.2182936527
       -0.2551302262  -0.0023382090   0.0280172461  -0.0258759871   0.0010475113
       -0.0031087645   0.0024708794   0.0005112627  -0.0001559658  -0.0020139061
        0.0000135929   0.0000515362   0.0008674644  -0.0001393340  -0.0002585599
       -0.0000649106  -0.0001229886  -0.0000270879   0.0000453385  -0.0005490684
       -0.0000783902   0.0007894915   0.0008568615   0.0067127897  -0.0026551593
       -0.0025846486   0.0009550194   0.0013252798  -0.0007007405  -0.0001418775
       -0.0003332734   0.0014454168  -0.0002383398  -0.0001386288  -0.0009669009
        0.0003441682   0.0004099028   0.0002341713  -0.0004359728  -0.0006554275
        0.0000030735   0.0000764226   0.0001571836  -0.0000194797  -0.0000879311
       -0.0000534623   0.0000040905   0.0000269079   0.0000339733   0.0000033514
       -0.0000920994  -0.0000359124  -0.0001200444   0.0001541332   0.0000987368
       -0.0000365684   0.0000130445  -0.0000060587  -0.0000535207  -0.0000665664
       -0.0000633714   0.0000166526   0.0000244292   0.0000057173  -0.0000186166
       -0.0000067230   0.0000000382   0.0000099670   0.0000457770   0.0000749811
        0.0000391024  -0.0001543416  -0.0000167065   0.0002352694   0.0001694833
        0.0003748266   0.0000755067   0.0000253131  -0.0000266641  -0.0000273158
        0.0000287732  -0.0000199091  -0.0000310646   0.0000252422  -0.0000147285
        0.0000179322   0.0000005667  -0.0000018881   0.0000037682  -0.0000027230
        0.0000011679  -0.0000343737   0.0000269917  -0.0000002780  -0.0001385077
       -0.0000869207   0.0001314397   0.0001202971  -0.0000339992  -0.0000022369
       -0.0000269603   0.0000080137  -0.0000162705   0.0000090243  -0.0000037587
       -0.0000060838  -0.0000350021  -0.0000002794   0.0000068368   0.0001703674
       -0.0000081740  -0.0000552862  -0.0000492662  -0.0000017588   0.0000064313
       -0.0000493008   0.0000238454   0.0000383573  -0.0000254998  -0.0000006593
        0.0000046463  -0.0000044194  -0.0000083956  -0.0000026817   0.0000034551
        0.0000007656  -0.0000059138   0.0000023264   0.0000040416  -0.0000023877
        0.0000029224   0.0000022243   0.0000015675  -0.0000014671   0.0000008512
        0.0000079884   0.0000082168  -0.0000029953   0.0000088401  -0.0000303654
       -0.0000010414   0.0000119820   0.0001224992   0.0000997259  -0.0001523374
       -0.0000070677  -0.0000476143   0.0000463212   0.0000421057   0.0000074970
       -0.0000175360  -0.0000274690   0.0000015218   0.0000101690   0.0000419270
       -0.0000114807   0.0000084235  -0.0000210388  -0.0000162207   0.0000296338
       -0.0005866886  -0.0006547556   0.0000257269   0.0012063968   0.0006360999
       -0.0018507126  -0.0005367428   0.0001021162   0.0017951882   0.0000511558
        0.0001415831   0.0002761555  -0.0000870902  -0.0000885486   0.0001846902
        0.0000111560   0.0000023347   0.0001239090  -0.0003185790  -0.0008751393
        0.0005943621   0.0004382903  -0.0003600075   0.0008859093  -0.0003024281
       -0.0000072993   0.0000140556  -0.0000096417  -0.0000144731  -0.0000948493
        0.0000159565   0.0000449383   0.0000252741  -0.0000113558   0.0000257876
        0.0000120716  -0.0000231398   0.0000196224   0.0000067458  -0.0000419611
        0.0000101520  -0.0000058893  -0.0000252178  -0.0000029706  -0.0000181895
        0.0000121330   0.0000103874  -0.0000119857   0.0000035839   0.0000920610
       -0.0000353807  -0.0000019452   0.0000176547  -0.0000289720   0.0000020528
       -0.0000327937   0.0000253800  -0.0000163109  -0.0000158946   0.0000112434
       -0.0000145996  -0.0000058431   0.0000044036   0.0000041354   0.0000064706
        0.0000053302  -0.0000002530  -0.0000022307  -0.0000011591   0.0000026649
        0.0000003394  -0.0000025709   0.0000012134  -0.0000024554   0.0000053615
       -0.0000008112  -0.0000042789   0.0000017596   0.0000006898  -0.0000021878
       -0.0000006314   0.0000030681   0.0000020366   0.0000024956  -0.0000012141
        0.0000040032   0.0000025064   0.0000033601  -0.0000008767  -0.0000050741
       -0.0000201014   0.0000073153   0.0000004269  -0.0000098849   0.0000080421
       -0.0000048981   0.0000015892  -0.0000073033   0.0000052909  -0.0000246000
       -0.0000037923  -0.0000005068  -0.0002424852  -0.0000061179   0.0001334743
       -0.0009746815  -0.0000054117   0.0012290480
       -0.0692281388   0.0564383124  -0.0426368193   0.4017579222  -0.0592013380
       -0.0873188244  -0.1175792544   0.0261086546   0.1527193979  -0.0590293312
       -0.0291136049  -0.0135532696  -0.0010420985   0.0001247800  -0.0039320218
        0.0064159590  -0.0009379808  -0.0002800908  -0.0004504447  -0.0005297086
       -0.0001149562   0.0055962400  -0.0028325016   0.0023466399  -0.0037828693
       -0.0063411789  -0.0000698895  -0.1376170676   0.0084923533  -0.0090152873
       -0.0110417903   0.0064611095  -0.0096013010   0.0041963146   0.0011328186
       -0.0020136806  -0.0081130251   0.0019438061  -0.0000579261   0.0065923759
       -0.0022585953  -0.0000676232  -0.0013137654   0.0025937349   0.0035603541
       -0.0003598536  -0.0006840402  -0.0005986183   0.0000469663   0.0005353959
        0.0004981316   0.0000324930  -0.0002191251  -0.0001567636   0.0000456377
        0.0004847589   0.0002214996   0.0005295250  -0.0008657349  -0.0005445531
        0.0002588560  -0.0000304582  -0.0000024470   0.0006425339   0.0005195103
        0.0005319456  -0.0001700298  -0.0003588757  -0.0001756457   0.0001172193
        0.0001224898   0.0001381096  -0.0000889623  -0.0004774584  -0.0004702676
       -0.0001990976   0.0007567739   0.0005774224  -0.0019503861  -0.0015347983
       -0.0034125483  -0.0001378064  -0.0001754367   0.0001641424  -0.0001396732
       -0.0000336366   0.0000775596   0.0001917015  -0.0001057118   0.0000627633
       -0.0002122618   0.0001060987  -0.0000706307  -0.0000473574  -0.0001777391
        0.0001860813  -0.0001850803   0.0004784395  -0.0005746251   0.0008384074
       -0.0002890839   0.0000644851  -0.0008440209   0.0001905500   0.0000243348
        0.0001978730  -0.0000787884   0.0001004683  -0.0000630334   0.0000203075
        0.0000398833   0.0002553374  -0.0000357340  -0.0000148631  -0.0011677125
        0.0002528306   0.0000561445   0.0003781267  -0.0000631216   0.0001700278
        0.0003339016  -0.0002167170  -0.0001620583   0.0001691977  -0.0000274447
       -0.0000160337   0.0000314272   0.0000338217   0.0000216940  -0.0000055915
       -0.0000022593   0.0000282589  -0.0000052636  -0.0000313322   0.0000117888
       -0.0000155700  -0.0000199310  -0.0000164995   0.0000172731   0.0000077604
       -0.0000527474  -0.0000634190   0.0000202135  -0.0000459518   0.0002054382
       -0.0000286924  -0.0001064957  -0.0002326529  -0.0002665926   0.0004863664
        0.0000124670   0.0001641235  -0.0001474244  -0.0001865732  -0.0000065911
        0.0000605869   0.0002114085   0.0000161646  -0.0000776150  -0.0000338804
        0.0000863846  -0.0000884904  -0.0001284904   0.0002281912  -0.0001819125
        0.0028308217   0.0004534278   0.0046192271  -0.0171796543  -0.0000632973
        0.0076273443  -0.0015182471   0.0006807148   0.0008905673   0.0001809176
        0.0001184301   0.0004219430  -0.0013383090   0.0008205571   0.0001395009
        0.0001629591  -0.0000618738  -0.0001803422  -0.0015053096   0.0004283939
       -0.0002018306   0.0014530372  -0.0016473738   0.0011986480   0.0003567468
       -0.0002499620   0.0003674966   0.0001541632   0.0003546739   0.0001974447
       -0.0000813729  -0.0001442097  -0.0001700228   0.0001517643  -0.0001514789
       -0.0001104661   0.0002118880  -0.0001114050  -0.0000576532   0.0002583588
       -0.0000042702   0.0000573489   0.0001884751   0.0000846170   0.0001112175
       -0.0000128898   0.0001304139   0.0001141180   0.0000781712  -0.0003668291
       -0.0002113894   0.0001098133  -0.0000835231   0.0000694437  -0.0000348899
        0.0000535476  -0.0000446915   0.0001159412   0.0000640025  -0.0000633624
        0.0001503074   0.0000051759  -0.0000142336  -0.0000271798  -0.0000145792
       -0.0000318383   0.0000180667   0.0000240688   0.0000109753  -0.0000204857
        0.0000009726   0.0000143446  -0.0000138706   0.0000101973  -0.0000160679
       -0.0000010242   0.0000200237  -0.0000084078  -0.0000062541   0.0000208213
        0.0000078738  -0.0000214517  -0.0000080757  -0.0000027957   0.0000053279
       -0.0000174006  -0.0000171068  -0.0000186394   0.0000273377   0.0000342356
        0.0001134725  -0.0000656823   0.0000147257   0.0000773107  -0.0000863204
        0.0000647669  -0.0000384749  -0.0000489068   0.0000714621   0.0001051321
        0.0000710760  -0.0000778269   0.0001599385   0.0000877058  -0.0002290983
        0.0012953389  -0.0007061425  -0.0011657553
        0.0566294598  -0.3154742095   0.2182936527  -0.0592013380   0.5605783102
       -0.1343799018   0.0258534778  -0.0732627592  -0.0543652337  -0.0367130230
       -0.1109004227  -0.0316726886   0.0000378759  -0.0035091240  -0.0112539217
       -0.0005900640   0.0026679677  -0.0001773421  -0.0005123052  -0.0015343660
       -0.0003334031  -0.0020504128  -0.0002803359   0.0032351867  -0.0067815873
       -0.0182811015   0.0003732348   0.0167282837  -0.0450348284   0.0010213296
        0.0084327664  -0.0032906257   0.0010630922   0.0016866704   0.0040785990
        0.0035903815   0.0014833319   0.0003331820   0.0004297533  -0.0014787120
       -0.0023425830  -0.0012254512  -0.0001099060   0.0006428571   0.0002194312
        0.0003649312  -0.0001600680   0.0000425394   0.0001175917  -0.0000753897
       -0.0000140936  -0.0001054064  -0.0000657204  -0.0000540868  -0.0000386367
        0.0000959118   0.0001277516   0.0002926207  -0.0001201184  -0.0000378291
       -0.0000615559   0.0000012358  -0.0000277010  -0.0005004658  -0.0001564587
       -0.0002307331   0.0001062534   0.0001654236   0.0001513942   0.0000318702
       -0.0001479546  -0.0001021150  -0.0000950096   0.0001154274   0.0001277133
       -0.0003438872  -0.0002595179  -0.0001474792   0.0008536085   0.0009715357
        0.0012392319   0.0001253349  -0.0000336932  -0.0000900890  -0.0000749877
        0.0000173477  -0.0000598494  -0.0000459861   0.0000163425  -0.0000411330
        0.0000168554  -0.0000044627  -0.0000098499  -0.0000057608  -0.0000309382
        0.0000163064  -0.0000873448   0.0001457968  -0.0000485310  -0.0001974274
       -0.0002634204   0.0002330687   0.0001599104  -0.0000196986   0.0000272418
       -0.0000360058   0.0000107526  -0.0000057818   0.0000109228  -0.0000083439
       -0.0000105133  -0.0000513624  -0.0000144529   0.0000063938   0.0002530599
        0.0001217782  -0.0000123612  -0.0000776390  -0.0000341015  -0.0000202930
       -0.0000708964  -0.0000394751   0.0000087138  -0.0000345851  -0.0000070973
        0.0000055172  -0.0000051727  -0.0000055376  -0.0000026843   0.0000033875
       -0.0000009832  -0.0000068494   0.0000057900   0.0000123994  -0.0000047310
        0.0000076405   0.0000082463   0.0000051496  -0.0000033593  -0.0000047361
        0.0000142635   0.0000078075  -0.0000034814   0.0000153232  -0.0000306373
       -0.0000018292   0.0000316413   0.0002301744   0.0002005086  -0.0002315906
       -0.0000138078  -0.0000861098   0.0000707946   0.0000549703   0.0000082275
       -0.0000326411  -0.0000241243  -0.0000139965  -0.0000087561   0.0000776474
       -0.0000388546  -0.0000306624  -0.0000847204  -0.0000624138  -0.0000177687
       -0.0008225985   0.0042564307   0.0033566930  -0.0020219530   0.0002910871
       -0.0036097341   0.0003002332   0.0011539099   0.0027338695   0.0000606366
        0.0005245941   0.0008061969   0.0003322631   0.0002101365   0.0003282674
       -0.0000230393   0.0000073447  -0.0002597347   0.0005307455   0.0008951005
        0.0000171039  -0.0001819890  -0.0013380364   0.0000687557   0.0003581264
       -0.0000271743   0.0002410182  -0.0001731375   0.0001497001  -0.0000024781
       -0.0000218965  -0.0001205691  -0.0001317174  -0.0000523479   0.0000116248
       -0.0000075192  -0.0000756969   0.0000026948  -0.0000186040  -0.0000046623
       -0.0000160748  -0.0000241506   0.0000046696  -0.0000235517  -0.0000324535
       -0.0000206331  -0.0001094893  -0.0001515245   0.0001841062   0.0001666476
        0.0000367104   0.0000166789   0.0000573439  -0.0000108844   0.0000043473
       -0.0000394218   0.0000592114  -0.0000225112  -0.0000181510   0.0000212625
       -0.0000172575  -0.0000020310   0.0000115864   0.0000062683   0.0000101050
       -0.0000066531  -0.0000045287   0.0000012964  -0.0000049191   0.0000034944
        0.0000001436  -0.0000053658   0.0000011989  -0.0000002418   0.0000045191
       -0.0000058900  -0.0000067770   0.0000030993  -0.0000052577  -0.0000054502
       -0.0000060758   0.0000037462   0.0000087908   0.0000005391   0.0000057352
        0.0000080706   0.0000004037   0.0000057796   0.0000016931  -0.0000157066
       -0.0000228579   0.0000144880   0.0000084470  -0.0000079045   0.0000108908
        0.0000049994   0.0000028002  -0.0000121669   0.0000360068  -0.0000352040
        0.0000353983   0.0000249829  -0.0005366736   0.0002655833   0.0002497056
       -0.0019109060  -0.0009865793   0.0005811019
       -0.0433502390   0.2194344978  -0.2551302262  -0.0873188244  -0.1343799018
        0.8219069454   0.1542207232  -0.0551806885  -0.4491576456  -0.0169942659
       -0.0309566134  -0.0556190699  -0.0067860606  -0.0161007594  -0.0092153047
        0.0005823342  -0.0000454815  -0.0048391890  -0.0001547102  -0.0004357531
       -0.0007378367   0.0019047510   0.0029575880  -0.0011597693   0.0027057072
        0.0051714010   0.0083511374  -0.0063699573  -0.0004094532  -0.0424329425
       -0.0142941815   0.0012066965   0.0000153844  -0.0010687345   0.0040308947
       -0.0026382630  -0.0004017694   0.0006223652  -0.0003252568   0.0002556048
       -0.0013334591  -0.0014079688  -0.0003233783   0.0007762859   0.0008005638
        0.0001978257  -0.0001363629  -0.0002141464   0.0000842851   0.0000934070
        0.0000524314  -0.0000508192  -0.0000537568  -0.0000728767  -0.0000202382
        0.0001349516   0.0000922245   0.0002711302  -0.0002065377  -0.0001182582
        0.0000110577  -0.0000157837   0.0000064872  -0.0002242973  -0.0000077936
       -0.0000556936   0.0000456840   0.0000735336   0.0000791967   0.0000350587
       -0.0000688765  -0.0000749179  -0.0000422114   0.0000609626  -0.0000113350
       -0.0002742358   0.0000845132  -0.0001447718   0.0003176817   0.0003544887
        0.0003696822  -0.0000960326  -0.0000384768  -0.0000090888   0.0000548011
       -0.0000442444   0.0000020817   0.0000210214  -0.0000360211   0.0000095358
        0.0000040745  -0.0000178528   0.0000081267   0.0000040121   0.0000288737
       -0.0000343766   0.0000844112  -0.0001075303   0.0001030963   0.0000877581
        0.0001545040  -0.0002322995  -0.0000505904   0.0000366918   0.0000142059
        0.0000101298   0.0000040914   0.0000189101  -0.0000038815   0.0000027093
        0.0000028807   0.0000166293  -0.0000002307  -0.0000146046  -0.0000674160
        0.0000128580   0.0001111766   0.0000123794   0.0000045590  -0.0000559647
        0.0000221855  -0.0000255066  -0.0000540370   0.0000104457   0.0000024012
       -0.0000092828   0.0000035814   0.0000143750  -0.0000011449  -0.0000042587
        0.0000015934   0.0000082124  -0.0000035777  -0.0000012002   0.0000008761
        0.0000005214   0.0000074801  -0.0000031657   0.0000007011  -0.0000000219
        0.0000008069  -0.0000019645   0.0000027080  -0.0000021226   0.0000219231
        0.0000055514   0.0000048844  -0.0001498350  -0.0001062248   0.0001777974
        0.0000033821   0.0000445189  -0.0000531062  -0.0000331925  -0.0000097767
        0.0000114658   0.0000032751  -0.0000209014  -0.0000036593  -0.0000823117
       -0.0000110498  -0.0000050972   0.0000621995  -0.0000418152  -0.0000376369
        0.0033437146   0.0031465078  -0.0015158577   0.0124101017  -0.0033303213
        0.0026709853  -0.0001094658  -0.0004508983  -0.0020269628  -0.0001800217
       -0.0007094297  -0.0005668423  -0.0000218917   0.0003918123  -0.0003219452
        0.0003885612   0.0013011266  -0.0001046414   0.0008352742   0.0034166771
       -0.0016379438  -0.0016837569   0.0009790877  -0.0020912701  -0.0009264591
        0.0004440662  -0.0002476012  -0.0000781002   0.0000366384   0.0001695818
       -0.0000349197  -0.0001320515  -0.0000826165  -0.0000141787  -0.0000300229
       -0.0000138181  -0.0000190770  -0.0000230935  -0.0000139608   0.0000471937
       -0.0000260266  -0.0000043723   0.0000284756  -0.0000194723   0.0000086038
       -0.0000409452  -0.0001205088  -0.0000618821   0.0000760102  -0.0000589624
        0.0001668762  -0.0000245617  -0.0000048527   0.0000466529   0.0000045452
        0.0000473347  -0.0000262694   0.0000106213   0.0000163638  -0.0000074171
       -0.0000008533   0.0000121440  -0.0000037141  -0.0000028008  -0.0000075954
       -0.0000083283  -0.0000046113   0.0000011433  -0.0000013473  -0.0000023863
       -0.0000019267  -0.0000005733  -0.0000006486   0.0000041008  -0.0000101678
       -0.0000009672   0.0000060539  -0.0000027106  -0.0000033361  -0.0000002304
       -0.0000030171  -0.0000021046   0.0000016659  -0.0000061209   0.0000047822
       -0.0000017676  -0.0000047142  -0.0000047568  -0.0000045300  -0.0000040017
        0.0000203599   0.0000025381  -0.0000004917   0.0000078493   0.0000025865
        0.0000026270   0.0000066498   0.0000300901  -0.0000169460   0.0000311520
       -0.0000009698   0.0000324660   0.0010512847  -0.0000682718  -0.0002822680
        0.0020009750  -0.0003814329  -0.0023070423
        0.0117389930  -0.0029706751  -0.0023382090  -0.1175792544   0.0258534778
        0.1542207232   0.1114910132  -0.0252372635  -0.1713745074   0.0076152824
       -0.0027304173  -0.0045224952   0.0000995563  -0.0011242285  -0.0004678852
       -0.0007963439  -0.0001243745  -0.0002042073   0.0000213368   0.0000298094
       -0.0001714342  -0.0003655820   0.0006360642  -0.0002700273   0.0005285809
       -0.0008205624   0.0003112463  -0.0037698898   0.0055356252   0.0241288792
       -0.0002334433   0.0001753955   0.0014264098  -0.0001110080  -0.0012422780
        0.0004842704   0.0020172564  -0.0006677194   0.0002284346  -0.0017802556
        0.0008228561   0.0000333377   0.0003467301  -0.0008091962  -0.0009706396
        0.0001712944   0.0002135540   0.0001635843  -0.0000029200  -0.0001680861
       -0.0001549443  -0.0000410478   0.0000680165   0.0000445705  -0.0000284954
       -0.0001125966  -0.0000569086  -0.0001378500   0.0002386514   0.0001596519
       -0.0000851273   0.0000050560   0.0000000294  -0.0001778448  -0.0001382109
       -0.0001467395   0.0000365273   0.0000918530   0.0000472136  -0.0000588319
       -0.0000281140  -0.0000429521   0.0000407122   0.0001485532   0.0001473833
        0.0001270419  -0.0002606853  -0.0001782100   0.0006126462   0.0004972404
        0.0009792307   0.0000331502   0.0000510353  -0.0000494520   0.0000665428
        0.0000051936  -0.0000289129  -0.0000642711   0.0000316191  -0.0000194960
        0.0000641067  -0.0000396775   0.0000281533   0.0000106874   0.0000632271
       -0.0000648948   0.0000705332  -0.0001575773   0.0001900142  -0.0002746039
        0.0001057581  -0.0000380400   0.0002797236  -0.0000603625  -0.0000054032
       -0.0000615757   0.0000265609  -0.0000311833   0.0000206525  -0.0000088146
       -0.0000171367  -0.0000870411   0.0000126357   0.0000043871   0.0003785629
       -0.0000772583  -0.0000086949  -0.0001249395   0.0000211077  -0.0000598751
       -0.0001093709   0.0000668241   0.0000468273  -0.0000550299   0.0000091946
        0.0000045246  -0.0000102000  -0.0000092375  -0.0000064325   0.0000014586
        0.0000016172  -0.0000079891   0.0000008943   0.0000099223  -0.0000041099
        0.0000052660   0.0000082965   0.0000047429  -0.0000063741  -0.0000035917
        0.0000174342   0.0000240170  -0.0000053087   0.0000189623  -0.0000652376
        0.0000080425   0.0000336725   0.0000672169   0.0000745038  -0.0001421458
       -0.0000070107  -0.0000514268   0.0000459400   0.0000523490   0.0000050615
       -0.0000204869  -0.0000659644  -0.0000030675   0.0000203433   0.0000226568
       -0.0000356262   0.0000315055   0.0000403963  -0.0000694593   0.0000546193
       -0.0016976868  -0.0015796185   0.0002855678  -0.0065618832   0.0025143541
       -0.0006921121   0.0001333568  -0.0000478282  -0.0005062287  -0.0000821413
       -0.0000034004  -0.0001214627   0.0001007335  -0.0000578029  -0.0000995730
        0.0000108445   0.0000794870  -0.0000325310  -0.0003278582   0.0004328530
       -0.0006474848  -0.0003108081   0.0000156404   0.0006012702  -0.0000320810
        0.0000466374  -0.0000708461  -0.0000599237  -0.0001646667  -0.0000760979
        0.0000154838   0.0000330658   0.0000420670  -0.0000534494   0.0000467802
        0.0000350993  -0.0000708068   0.0000362372   0.0000192781  -0.0000831019