      -----------------------------------------------------------      
     |                   =====================                   |     
     |                           x T B                           |     
     |                   =====================                   |     
     |                         S. Grimme                         |     
     |          Mulliken Center for Theoretical Chemistry        |     
     |                    University of Bonn                     |     
      -----------------------------------------------------------      

   * xtb version 6.7.1 (edcfbbe) compiled by 'albert@albert-system' on 2024-07-22

   xtb is free software: you can redistribute it and/or modify it under
   the terms of the GNU Lesser General Public License as published by
   the Free Software Foundation, either version 3 of the License, or
   (at your option) any later version.
   
   xtb is distributed in the hope that it will be useful,
   but WITHOUT ANY WARRANTY; without even the implied warranty of
   MERCHANTABILITY or FITNESS FOR A PARTICULAR PURPOSE.  See the
   GNU Lesser General Public License for more details.
   
   Cite this work as:
   * C. Bannwarth, E. Caldeweyher, S. Ehlert, A. Hansen, P. Pracht,
     J. Seibert, S. Spicher, S. Grimme, WIREs Comput. Mol. Sci., 2020, 11,
     e01493. DOI: 10.1002/wcms.1493
   
   for GFN2-xTB:
   * C. Bannwarth, S. Ehlert and S. Grimme., J. Chem. Theory Comput., 2019,
     15, 1652-1671. DOI: 10.1021/acs.jctc.8b01176
   for GFN1-xTB:
   * S. Grimme, C. Bannwarth, P. Shushkov, J. Chem. Theory Comput., 2017,
     13, 1989-2009. DOI: 10.1021/acs.jctc.7b00118
   for GFN0-xTB:
   * P. Pracht, E. Caldeweyher, S. Ehlert, S. Grimme, ChemRxiv, 2019, preprint.
     DOI: 10.26434/chemrxiv.8326202.v1
   for GFN-FF:
   * S. Spicher and S. Grimme, Angew. Chem. Int. Ed., 2020, 59, 15665-15673.
     DOI: 10.1002/anie.202004239
   
   for ALPB and GBSA implicit solvation:
   * S. Ehlert, M. Stahn, S. Spicher, S. Grimme, J. Chem. Theory Comput.,
     2021, 17, 4250-4261. DOI: 10.1021/acs.jctc.1c00471
   
   for ddCOSMO and CPCM-X implicit solvation:
   * M. Stahn, S. Ehlert, S. Grimme, J. Phys. Chem. A,
     2023, XX, XXXX-XXXX. DOI: 10.1021/acs.jpca.3c04382
   
   for DFT-D4:
   * E. Caldeweyher, C. Bannwarth and S. Grimme, J. Chem. Phys., 2017,
     147, 034112. DOI: 10.1063/1.4993215
   * E. Caldeweyher, S. Ehlert, A. Hansen, H. Neugebauer, S. Spicher,
     C. Bannwarth and S. Grimme, J. Chem. Phys., 2019, 150, 154122.
     DOI: 10.1063/1.5090222
   * E. Caldeweyher, J.-M. Mewes, S. Ehlert and S. Grimme, Phys. Chem. Chem. Phys.
     2020, 22, 8499-8512. DOI: 10.1039/D0CP00502A
   
   for sTDA-xTB:
   * S. Grimme and C. Bannwarth, J. Chem. Phys., 2016, 145, 054103.
     DOI: 10.1063/1.4959605
   
   in the mass-spec context:
   * V. Asgeirsson, C. Bauer and S. Grimme, Chem. Sci., 2017, 8, 4879.
     DOI: 10.1039/c7sc00601b
   * J. Koopman and S. Grimme, ACS Omega 2019, 4, 12, 15120-15133.
     DOI: 10.1021/acsomega.9b02011
   
   for metadynamics refer to:
   * S. Grimme, J. Chem. Theory Comput., 2019, 155, 2847-2862
     DOI: 10.1021/acs.jctc.9b00143
   
   for SPH calculations refer to:
   * S. Spicher and S. Grimme, J. Chem. Theory Comput., 2021, 17, 1701-1714
     DOI: 10.1021/acs.jctc.0c01306
   
   for ONIOM refer to:
   * C. Plett, A. Katbashev, S. Ehlert, S. Grimme, M. Bursch,
     Phys. Chem. Chem. Phys., 2023, 25, 17860-17868. DOI: 10.1039/D3CP02178E
   
   for DIPRO refer to:
   * J. Kohn, N. Gildemeister, S. Grimme, D. Fazzi, A. Hansen,
     J. Chem. Phys., 2023, just accepted.
   
   for PTB refer to:
   * S. Grimme, M. Mueller, A. Hansen, J. Chem. Phys., 2023, 158, 124111.
     DOI: 10.1063/5.0137838
   
   with help from (in alphabetical order)
   P. Atkinson, C. Bannwarth, F. Bohle, G. Brandenburg, E. Caldeweyher
   M. Checinski, S. Dohm, S. Ehlert, S. Ehrlich, I. Gerasimov, C. Hölzer
   A. Katbashev, J. Kohn, J. Koopman, C. Lavigne, S. Lehtola, F. März, M. Müller,
   F. Musil, H. Neugebauer, J. Pisarek, C. Plett, P. Pracht, F. Pultar,
   J. Seibert, P. Shushkov, S. Spicher, M. Stahn, M. Steiner, T. Strunk,
   J. Stückrath, T. Rose, and J. Unsleber
   
 * started run on 2025/09/09 at 09:09:28.364     
   ID    Z sym.   atoms
    1    6 C      1-4, 6-16, 18, 20, 22-32
    2    7 N      5, 17, 21
    3    8 O      19
    4    1 H      33-49

           -------------------------------------------------
          |                Calculation Setup                |
           -------------------------------------------------

          program call               : xtb data2507/toluene/3PCzPFP/3PCzPFP_toluene_S0_crest.xyz --gfn 2 --gbsa toluene --ohess vtight --parallel 40 --molden --ceasefiles --namespace data2507/toluene/3PCzPFP/3PCzPFP_toluene_S0_finalOpt
          calculation namespace      : data2507/toluene/3PCzPFP/3PCzPFP_toluene_S0_finalOpt
          coordinate file            : data2507/toluene/3PCzPFP/3PCzPFP_toluene_S0_crest.xyz
          omp threads                :                    40


           -------------------------------------------------
          |                 G F N 2 - x T B                 |
           -------------------------------------------------

        Reference                      10.1021/acs.jctc.8b01176
      * Hamiltonian:
        H0-scaling (s, p, d)           1.850000    2.230000    2.230000
        zeta-weighting                 0.500000
      * Dispersion:
        s8                             2.700000
        a1                             0.520000
        a2                             5.000000
        s9                             5.000000
      * Repulsion:
        kExp                           1.500000    1.000000
        rExp                           1.000000
      * Coulomb:
        alpha                          2.000000
        third order                    shell-resolved
        anisotropic                    true
        a3                             3.000000
        a5                             4.000000
        cn-shift                       1.200000
        cn-exp                         4.000000
        max-rad                        5.000000

      * Solvation model:               GBSA
        Solvent                        toluene
        Parameter file                 internal GFN2-xTB/GBSA
        Dielectric constant                7.0000E+00
        Reference state                gsolv [1 M gas/solution]
        Free energy shift                  4.5239E-03 Eh       2.8388E+00 kcal/mol
        Temperature                        2.9815E+02 K
        Density                            8.6700E-01 kg/L
        Solvent mass                       9.2140E+01 g/mol
        Interaction kernel             Still
        Born radius scaling (c1)           1.5686E+00
        Born radii integrator          GBOBC
        Born offset                        0.0000E+00 a0       0.0000E+00 AA
        H-bond correction              false
        Ion screening                  false
        Surface tension                    1.0000E-05 Eh       1.5569E+01 dyn/cm
        Grid points                               230 per atom

          ...................................................
          :                      SETUP                      :
          :.................................................:
          :  # basis functions                 145          :
          :  # atomic orbitals                 145          :
          :  # shells                           81          :
          :  # electrons                       150          :
          :  max. iterations                   250          :
          :  Hamiltonian                  GFN2-xTB          :
          :  restarted?                      false          :
          :  GBSA solvation                   true          :
          :  PC potential                    false          :
          :  electronic temp.          300.0000000     K    :
          :  accuracy                    1.0000000          :
          :  -> integral cutoff          0.2500000E+02      :
          :  -> integral neglect         0.1000000E-07      :
          :  -> SCF convergence          0.1000000E-05 Eh   :
          :  -> wf. convergence          0.1000000E-03 e    :
          :  Broyden damping             0.4000000          :
          :  net charge                          0          :
          :  unpaired electrons                  0          :
          ...................................................

 iter      E             dE          RMSdq      gap      omega  full diag
   1    -82.9361517 -0.829362E+02  0.432E+00    2.14       0.0  T
   2    -82.9792773 -0.431255E-01  0.260E+00    2.27       1.0  T
   3    -82.9569394  0.223378E-01  0.106E+00    2.28       1.0  T
   4    -82.9896060 -0.326665E-01  0.197E-01    2.19       1.0  T
   5    -82.9906871 -0.108111E-02  0.740E-02    2.20       1.0  T
   6    -82.9907777 -0.906155E-04  0.317E-02    2.19       1.0  T
   7    -82.9907991 -0.214395E-04  0.143E-02    2.19       1.0  T
   8    -82.9908004 -0.123624E-05  0.516E-03    2.20       2.8  T
   9    -82.9908007 -0.321594E-06  0.208E-03    2.20       6.9  T
  10    -82.9908008 -0.941961E-07  0.721E-04    2.20      19.8  T
  11    -82.9908008 -0.656944E-08  0.362E-04    2.20      39.5  T

   *** convergence criteria satisfied after 11 iterations ***

         #    Occupation            Energy/Eh            Energy/eV
      -------------------------------------------------------------
         1        2.0000           -0.7577556             -20.6196
       ...           ...                  ...                  ...
        69        2.0000           -0.4138106             -11.2604
        70        2.0000           -0.4117761             -11.2050
        71        2.0000           -0.4032042             -10.9717
        72        2.0000           -0.3906284             -10.6295
        73        2.0000           -0.3884965             -10.5715
        74        2.0000           -0.3830479             -10.4233
        75        2.0000           -0.3651756              -9.9369 (HOMO)
        76                         -0.2845005              -7.7417 (LUMO)
        77                         -0.2656601              -7.2290
        78                         -0.2507224              -6.8225
        79                         -0.2444383              -6.6515
        80                         -0.2341428              -6.3713
       ...                                ...                  ...
       145                          0.7446825              20.2638
      -------------------------------------------------------------
                  HL-Gap            0.0806752 Eh            2.1953 eV
             Fermi-level           -0.3248381 Eh           -8.8393 eV

 SCC (total)                   0 d,  0 h,  0 min,  0.076 sec
 SCC setup                      ...        0 min,  0.001 sec (  1.142%)
 Dispersion                     ...        0 min,  0.001 sec (  1.713%)
 classical contributions        ...        0 min,  0.000 sec (  0.055%)
 integral evaluation            ...        0 min,  0.004 sec (  4.951%)
 iterations                     ...        0 min,  0.064 sec ( 84.049%)
 molecular gradient             ...        0 min,  0.005 sec (  7.186%)
 printout                       ...        0 min,  0.001 sec (  0.786%)

         :::::::::::::::::::::::::::::::::::::::::::::::::::::
         ::                     SUMMARY                     ::
         :::::::::::::::::::::::::::::::::::::::::::::::::::::
         :: total energy             -81.553283066977 Eh    ::
         :: total w/o Gsasa/hb       -81.521426311378 Eh    ::
         :: gradient norm              0.005890432927 Eh/a0 ::
         :: HOMO-LUMO gap              2.195282968247 eV    ::
         ::.................................................::
         :: SCC energy               -82.991423380759 Eh    ::
         :: -> isotropic ES            0.035478000886 Eh    ::
         :: -> anisotropic ES          0.006382601257 Eh    ::
         :: -> anisotropic XC          0.047804027595 Eh    ::
         :: -> dispersion             -0.064038600051 Eh    ::
         :: -> Gsolv                  -0.036270230106 Eh    ::
         ::    -> Gelec               -0.004413474506 Eh    ::
         ::    -> Gsasa               -0.036380635471 Eh    ::
         ::    -> Ghb                  0.000000000000 Eh    ::
         ::    -> Gshift               0.004523879872 Eh    ::
         :: repulsion energy           1.438140313782 Eh    ::
         :: add. restraining           0.000000000000 Eh    ::
         :: total charge              -0.000000000000 e     ::
         :::::::::::::::::::::::::::::::::::::::::::::::::::::

      ----------------------------------------------------------- 
     |                   =====================                   |
     |                        A N C O P T                        |
     |                   =====================                   |
     |               Approximate Normal Coordinate               |
     |                Rational Function Optimizer                |
      ----------------------------------------------------------- 

Optimization log is written to '/dev/null'
      ----------------------------------------------------------- 
     |                   =====================                   |
     |                        A N C O P T                        |
     |                   =====================                   |
     |               Approximate Normal Coordinate               |
     |                Rational Function Optimizer                |
      ----------------------------------------------------------- 

          ...................................................
          :                      SETUP                      :
          :.................................................:
          :   optimization level         verytight          :
          :   max. optcycles                   980          :
          :   ANC micro-cycles                  20          :
          :   degrees of freedom               141          :
          :.................................................:
          :   RF solver                   davidson          :
          :   write xtbopt.log                true          :
          :   linear?                        false          :
          :   energy convergence         0.1000000E-06 Eh   :
          :   grad. convergence          0.2000000E-03 Eh/α :
          :   maxmium RF displ.          1.0000000          :
          :   Hlow (freq-cutoff)         0.1000000E-01      :
          :   Hmax (freq-cutoff)         5.0000000          :
          :   S6 in model hess.         20.0000000          :
          ...................................................

generating ANC from exact Hessian ...
Using Lindh-Hessian (1995)
 Shifting diagonal of input Hessian by   9.798897214220260E-003
 Lowest  eigenvalues of input Hessian
    0.000000    0.000000    0.000000    0.000000    0.000000    0.000000
    0.010000    0.010227    0.010703    0.011233    0.011427    0.011709
    0.012736    0.013600    0.014697    0.015600    0.017632    0.019280
 Highest eigenvalues
    2.092516    2.148291    2.194809    2.219040    2.251364    2.264069
 

........................................................................
.............................. CYCLE    1 ..............................
........................................................................

 iter      E             dE          RMSdq      gap      omega  full diag
   1    -82.9908008 -0.829908E+02  0.155E-04    2.20       0.0  T
   2    -82.9908008 -0.210534E-09  0.981E-05    2.20     145.7  T
   3    -82.9908008 -0.109523E-09  0.671E-05    2.20     212.9  T
     SCC iter.                  ...        0 min,  0.016 sec
     gradient                   ...        0 min,  0.005 sec
 * total energy  :   -81.5532831 Eh     change       -0.1395804E-08 Eh
   gradient norm :     0.0058872 Eh/α   predicted     0.0000000E+00 (-100.00%)
   displ. norm   :     0.0218301 α      lambda       -0.2325573E-04
   maximum displ.:     0.0110038 α      in ANC's #16, #5, #1, ...

........................................................................
.............................. CYCLE    2 ..............................
........................................................................

 iter      E             dE          RMSdq      gap      omega  full diag
   1    -82.9879325 -0.829879E+02  0.916E-03    2.19       0.0  T
   2    -82.9879331 -0.566251E-06  0.596E-03    2.19       2.4  T
   3    -82.9879332 -0.138579E-06  0.334E-03    2.19       4.3  T
   4    -82.9879334 -0.177633E-06  0.496E-04    2.19      28.8  T
   5    -82.9879334 -0.362634E-08  0.191E-04    2.19      74.6  T
     SCC iter.                  ...        0 min,  0.024 sec
     gradient                   ...        0 min,  0.005 sec
 * total energy  :   -81.5533094 Eh     change       -0.2635509E-04 Eh
   gradient norm :     0.0028385 Eh/α   predicted    -0.1892651E-04 ( -28.19%)
   displ. norm   :     0.0248765 α      lambda       -0.1233835E-04
   maximum displ.:     0.0159219 α      in ANC's #5, #16, #1, ...

........................................................................
.............................. CYCLE    3 ..............................
........................................................................

 iter      E             dE          RMSdq      gap      omega  full diag
   1    -82.9863881 -0.829864E+02  0.839E-03    2.19       0.0  T
   2    -82.9863886 -0.477911E-06  0.525E-03    2.19       2.7  T
   3    -82.9863886 -0.441704E-07  0.294E-03    2.19       4.9  T
   4    -82.9863888 -0.159279E-06  0.507E-04    2.19      28.2  T
   5    -82.9863888 -0.467278E-08  0.155E-04    2.19      92.1  T
     SCC iter.                  ...        0 min,  0.024 sec
     gradient                   ...        0 min,  0.005 sec
 * total energy  :   -81.5533180 Eh     change       -0.8581334E-05 Eh
   gradient norm :     0.0006723 Eh/α   predicted    -0.7344236E-05 ( -14.42%)
   displ. norm   :     0.0235227 α      lambda       -0.2282687E-05
   maximum displ.:     0.0189054 α      in ANC's #5, #1, #4, ...

........................................................................
.............................. CYCLE    4 ..............................
........................................................................

 iter      E             dE          RMSdq      gap      omega  full diag
   1    -82.9864171 -0.829864E+02  0.737E-03    2.19       0.0  T
   2    -82.9864171 -0.846580E-07  0.432E-03    2.19       3.3  T
   3    -82.9864171  0.715365E-07  0.152E-03    2.19       9.4  T
   4    -82.9864172 -0.886353E-07  0.247E-04    2.19      57.9  T
   5    -82.9864172 -0.227249E-08  0.661E-05    2.19     216.2  T
     SCC iter.                  ...        0 min,  0.024 sec
     gradient                   ...        0 min,  0.005 sec
 * total energy  :   -81.5533205 Eh     change       -0.2474955E-05 Eh
   gradient norm :     0.0006863 Eh/α   predicted    -0.1190094E-05 ( -51.91%)
   displ. norm   :     0.0235241 α      lambda       -0.1784206E-05
   maximum displ.:     0.0180162 α      in ANC's #5, #1, #4, ...

........................................................................
.............................. CYCLE    5 ..............................
........................................................................

 iter      E             dE          RMSdq      gap      omega  full diag
   1    -82.9868686 -0.829869E+02  0.679E-03    2.19       0.0  T
   2    -82.9868686 -0.103250E-07  0.400E-03    2.19       3.6  T
   3    -82.9868686  0.252755E-07  0.745E-04    2.19      19.2  T
   4    -82.9868686 -0.302690E-07  0.929E-05    2.19     153.7  T
     SCC iter.                  ...        0 min,  0.019 sec
     gradient                   ...        0 min,  0.005 sec
 * total energy  :   -81.5533227 Eh     change       -0.2219200E-05 Eh
   gradient norm :     0.0006317 Eh/α   predicted    -0.8926150E-06 ( -59.78%)
   displ. norm   :     0.0325156 α      lambda       -0.1973826E-05
   maximum displ.:     0.0230123 α      in ANC's #5, #1, #4, ...

........................................................................
.............................. CYCLE    6 ..............................
........................................................................

 iter      E             dE          RMSdq      gap      omega  full diag
   1    -82.9870274 -0.829870E+02  0.875E-03    2.19       0.0  T
   2    -82.9870274 -0.174986E-07  0.514E-03    2.19       2.8  T
   3    -82.9870274  0.393591E-07  0.926E-04    2.19      15.4  T
   4    -82.9870275 -0.469659E-07  0.107E-04    2.19     132.9  T
     SCC iter.                  ...        0 min,  0.019 sec
     gradient                   ...        0 min,  0.005 sec
 * total energy  :   -81.5533253 Eh     change       -0.2576505E-05 Eh
   gradient norm :     0.0004726 Eh/α   predicted    -0.9885582E-06 ( -61.63%)
   displ. norm   :     0.0477312 α      lambda       -0.2352259E-05
   maximum displ.:     0.0324698 α      in ANC's #5, #1, #4, ...

........................................................................
.............................. CYCLE    7 ..............................
........................................................................

 iter      E             dE          RMSdq      gap      omega  full diag
   1    -82.9869394 -0.829869E+02  0.126E-02    2.19       0.0  T
   2    -82.9869394 -0.283505E-07  0.736E-03    2.19       1.9  T
   3    -82.9869394  0.318014E-07  0.926E-04    2.19      15.4  T
   4    -82.9869394 -0.405721E-07  0.158E-04    2.19      90.4  T
     SCC iter.                  ...        0 min,  0.019 sec
     gradient                   ...        0 min,  0.005 sec
 * total energy  :   -81.5533282 Eh     change       -0.2898341E-05 Eh
   gradient norm :     0.0002676 Eh/α   predicted    -0.1178966E-05 ( -59.32%)
   displ. norm   :     0.0532997 α      lambda       -0.1811709E-05
   maximum displ.:     0.0355756 α      in ANC's #5, #1, #4, ...

........................................................................
.............................. CYCLE    8 ..............................
........................................................................

 iter      E             dE          RMSdq      gap      omega  full diag
   1    -82.9867950 -0.829868E+02  0.138E-02    2.19       0.0  T
   2    -82.9867950 -0.255244E-07  0.806E-03    2.19       1.8  T
   3    -82.9867950  0.221983E-07  0.860E-04    2.19      16.6  T
   4    -82.9867950 -0.309867E-07  0.162E-04    2.19      88.4  T
     SCC iter.                  ...        0 min,  0.019 sec
     gradient                   ...        0 min,  0.005 sec
 * total energy  :   -81.5533302 Eh     change       -0.2034959E-05 Eh
   gradient norm :     0.0002057 Eh/α   predicted    -0.9076037E-06 ( -55.40%)
   displ. norm   :     0.0419086 α      lambda       -0.8689379E-06
   maximum displ.:     0.0281520 α      in ANC's #1, #5, #4, ...

........................................................................
.............................. CYCLE    9 ..............................
........................................................................

 iter      E             dE          RMSdq      gap      omega  full diag
   1    -82.9866919 -0.829867E+02  0.106E-02    2.19       0.0  T
   2    -82.9866919 -0.153031E-07  0.622E-03    2.19       2.3  T
   3    -82.9866919  0.140176E-07  0.688E-04    2.19      20.8  T
   4    -82.9866919 -0.196519E-07  0.128E-04    2.19     111.3  T
     SCC iter.                  ...        0 min,  0.019 sec
     gradient                   ...        0 min,  0.005 sec
 * total energy  :   -81.5533311 Eh     change       -0.8861178E-06 Eh
   gradient norm :     0.0001571 Eh/α   predicted    -0.4356911E-06 ( -50.83%)
   displ. norm   :     0.0177362 α      lambda       -0.2755143E-06
   maximum displ.:     0.0133509 α      in ANC's #1, #5, #2, ...

........................................................................
.............................. CYCLE   10 ..............................
........................................................................

 iter      E             dE          RMSdq      gap      omega  full diag
   1    -82.9867255 -0.829867E+02  0.409E-03    2.19       0.0  T
   2    -82.9867255 -0.275372E-08  0.239E-03    2.19       6.0  T
   3    -82.9867255  0.189496E-08  0.262E-04    2.19      54.5  T
   4    -82.9867255 -0.285691E-08  0.563E-05    2.19     253.8  T
     SCC iter.                  ...        0 min,  0.019 sec
     gradient                   ...        0 min,  0.005 sec
 * total energy  :   -81.5533314 Eh     change       -0.3192432E-06 Eh
   gradient norm :     0.0000893 Eh/α   predicted    -0.1384003E-06 ( -56.65%)
   displ. norm   :     0.0082541 α      lambda       -0.1668929E-06
   maximum displ.:     0.0067716 α      in ANC's #1, #4, #5, ...

........................................................................
.............................. CYCLE   11 ..............................
........................................................................

 iter      E             dE          RMSdq      gap      omega  full diag
   1    -82.9867645 -0.829868E+02  0.150E-03    2.19       0.0  T
   2    -82.9867645 -0.799318E-09  0.877E-04    2.19      16.3  T
   3    -82.9867645  0.395147E-09  0.117E-04    2.19     122.4  T
     SCC iter.                  ...        0 min,  0.014 sec
     gradient                   ...        0 min,  0.005 sec
 * total energy  :   -81.5533316 Eh     change       -0.2333221E-06 Eh
   gradient norm :     0.0000557 Eh/α   predicted    -0.8477138E-07 ( -63.67%)
   displ. norm   :     0.0116048 α      lambda       -0.2418199E-06
   maximum displ.:     0.0079609 α      in ANC's #1, #4, #7, ...

........................................................................
.............................. CYCLE   12 ..............................
........................................................................

 iter      E             dE          RMSdq      gap      omega  full diag
   1    -82.9868001 -0.829868E+02  0.250E-03    2.19       0.0  T
   2    -82.9868001 -0.109053E-08  0.146E-03    2.19       9.8  T
   3    -82.9868001  0.205716E-09  0.119E-04    2.19     120.4  T
   4    -82.9868001 -0.565834E-09  0.403E-05    2.19     354.1  T
     SCC iter.                  ...        0 min,  0.019 sec
     gradient                   ...        0 min,  0.005 sec
 * total energy  :   -81.5533320 Eh     change       -0.3316184E-06 Eh
   gradient norm :     0.0000919 Eh/α   predicted    -0.1229621E-06 ( -62.92%)
   displ. norm   :     0.0167134 α      lambda       -0.2952173E-06
   maximum displ.:     0.0107946 α      in ANC's #1, #4, #3, ...

........................................................................
.............................. CYCLE   13 ..............................
........................................................................

 iter      E             dE          RMSdq      gap      omega  full diag
   1    -82.9868278 -0.829868E+02  0.373E-03    2.19       0.0  T
   2    -82.9868278 -0.159987E-08  0.218E-03    2.19       6.5  T
   3    -82.9868278  0.123876E-09  0.152E-04    2.19      93.8  T
   4    -82.9868278 -0.815689E-09  0.538E-05    2.19     265.5  T
     SCC iter.                  ...        0 min,  0.019 sec
     gradient                   ...        0 min,  0.005 sec
 * total energy  :   -81.5533323 Eh     change       -0.3700169E-06 Eh
   gradient norm :     0.0001111 Eh/α   predicted    -0.1488468E-06 ( -59.77%)
   displ. norm   :     0.0150276 α      lambda       -0.2163237E-06
   maximum displ.:     0.0100721 α      in ANC's #1, #4, #3, ...

........................................................................
.............................. CYCLE   14 ..............................
........................................................................

 iter      E             dE          RMSdq      gap      omega  full diag
   1    -82.9868195 -0.829868E+02  0.329E-03    2.19       0.0  T
   2    -82.9868195 -0.123448E-08  0.193E-03    2.19       7.4  T
   3    -82.9868195  0.216630E-09  0.140E-04    2.19     101.9  T
   4    -82.9868195 -0.728477E-09  0.469E-05    2.19     304.8  T
     SCC iter.                  ...        0 min,  0.019 sec
     gradient                   ...        0 min,  0.005 sec
 * total energy  :   -81.5533326 Eh     change       -0.2631135E-06 Eh
   gradient norm :     0.0000879 Eh/α   predicted    -0.1102632E-06 ( -58.09%)
   displ. norm   :     0.0101795 α      lambda       -0.1321637E-06
   maximum displ.:     0.0074510 α      in ANC's #1, #4, #5, ...

........................................................................
.............................. CYCLE   15 ..............................
........................................................................

 iter      E             dE          RMSdq      gap      omega  full diag
   1    -82.9868026 -0.829868E+02  0.216E-03    2.19       0.0  T
   2    -82.9868026 -0.678114E-09  0.126E-03    2.19      11.3  T
   3    -82.9868026  0.249614E-09  0.109E-04    2.19     131.0  T
   4    -82.9868026 -0.485301E-09  0.344E-05    2.19     414.7  T
     SCC iter.                  ...        0 min,  0.019 sec
     gradient                   ...        0 min,  0.005 sec
 * total energy  :   -81.5533328 Eh     change       -0.1768006E-06 Eh
   gradient norm :     0.0000521 Eh/α   predicted    -0.6674975E-07 ( -62.25%)
   displ. norm   :     0.0070237 α      lambda       -0.9545043E-07
   maximum displ.:     0.0056800 α      in ANC's #1, #5, #4, ...

........................................................................
.............................. CYCLE   16 ..............................
........................................................................

 iter      E             dE          RMSdq      gap      omega  full diag
   1    -82.9867842 -0.829868E+02  0.161E-03    2.19       0.0  T
   2    -82.9867842 -0.407908E-09  0.944E-04    2.19      15.1  T
   3    -82.9867842  0.143416E-09  0.811E-05    2.19     176.1  T
     SCC iter.                  ...        0 min,  0.015 sec
     gradient                   ...        0 min,  0.005 sec
 * total energy  :   -81.5533329 Eh     change       -0.1481762E-06 Eh
   gradient norm :     0.0000327 Eh/α   predicted    -0.5246422E-07 ( -64.59%)
   displ. norm   :     0.0065830 α      lambda       -0.1069555E-06
   maximum displ.:     0.0052643 α      in ANC's #1, #5, #7, ...

........................................................................
.............................. CYCLE   17 ..............................
........................................................................

 iter      E             dE          RMSdq      gap      omega  full diag
   1    -82.9867674 -0.829868E+02  0.182E-03    2.19       0.0  T
   2    -82.9867674 -0.449717E-09  0.107E-03    2.19      13.4  T
   3    -82.9867674 -0.878231E-11  0.636E-05    2.19     224.5  T
   4    -82.9867674 -0.139835E-09  0.282E-05    2.19     506.4  T
     SCC iter.                  ...        0 min,  0.019 sec
     gradient                   ...        0 min,  0.005 sec
 * total energy  :   -81.5533331 Eh     change       -0.1549640E-06 Eh
   gradient norm :     0.0000414 Eh/α   predicted    -0.5589481E-07 ( -63.93%)
   displ. norm   :     0.0088030 α      lambda       -0.1332340E-06
   maximum displ.:     0.0068610 α      in ANC's #1, #5, #7, ...

........................................................................
.............................. CYCLE   18 ..............................
........................................................................

 iter      E             dE          RMSdq      gap      omega  full diag
   1    -82.9867565 -0.829868E+02  0.260E-03    2.19       0.0  T
   2    -82.9867565 -0.864347E-09  0.152E-03    2.19       9.4  T
   3    -82.9867565 -0.334808E-10  0.935E-05    2.19     152.9  T
   4    -82.9867565 -0.288424E-09  0.400E-05    2.19     357.0  T
     SCC iter.                  ...        0 min,  0.019 sec
     gradient                   ...        0 min,  0.005 sec
 * total energy  :   -81.5533333 Eh     change       -0.1854561E-06 Eh
   gradient norm :     0.0000585 Eh/α   predicted    -0.6938943E-07 ( -62.58%)
   displ. norm   :     0.0088220 α      lambda       -0.1247013E-06
   maximum displ.:     0.0069937 α      in ANC's #1, #5, #7, ...

........................................................................
.............................. CYCLE   19 ..............................
........................................................................

 iter      E             dE          RMSdq      gap      omega  full diag
   1    -82.9867562 -0.829868E+02  0.262E-03    2.19       0.0  T
   2    -82.9867562 -0.811511E-09  0.153E-03    2.19       9.3  T
   3    -82.9867562  0.945164E-10  0.103E-04    2.19     138.4  T
   4    -82.9867562 -0.412058E-09  0.393E-05    2.19     363.9  T
     SCC iter.                  ...        0 min,  0.019 sec
     gradient                   ...        0 min,  0.005 sec
 * total energy  :   -81.5533334 Eh     change       -0.1650238E-06 Eh
   gradient norm :     0.0000595 Eh/α   predicted    -0.6351533E-07 ( -61.51%)
   displ. norm   :     0.0077655 α      lambda       -0.1009906E-06
   maximum displ.:     0.0063362 α      in ANC's #1, #5, #4, ...

........................................................................
.............................. CYCLE   20 ..............................
........................................................................

 iter      E             dE          RMSdq      gap      omega  full diag
   1    -82.9867629 -0.829868E+02  0.225E-03    2.19       0.0  T
   2    -82.9867629 -0.548795E-09  0.132E-03    2.19      10.9  T
   3    -82.9867629  0.586908E-10  0.848E-05    2.19     168.5  T
   4    -82.9867629 -0.277282E-09  0.327E-05    2.19     437.2  T
     SCC iter.                  ...        0 min,  0.019 sec
     gradient                   ...        0 min,  0.005 sec
 * total energy  :   -81.5533336 Eh     change       -0.1416490E-06 Eh
   gradient norm :     0.0000491 Eh/α   predicted    -0.5105646E-07 ( -63.96%)
   displ. norm   :     0.0067655 α      lambda       -0.9045242E-07
   maximum displ.:     0.0056434 α      in ANC's #1, #4, #5, ...
 * RMSD in coord.:     0.0430049 α      energy gain  -0.5051728E-04 Eh

generating ANC from exact Hessian ...
Using Lindh-Hessian (1995)
 Shifting diagonal of input Hessian by   9.797999427075228E-003
 Lowest  eigenvalues of input Hessian
    0.000000    0.000000    0.000000    0.000000    0.000000    0.000000
    0.010000    0.010226    0.010696    0.011214    0.011412    0.011700
    0.012713    0.013579    0.014665    0.015563    0.017591    0.019238
 Highest eigenvalues
    2.088669    2.144458    2.191157    2.214162    2.242509    2.257510
 

........................................................................
.............................. CYCLE   21 ..............................
........................................................................

 iter      E             dE          RMSdq      gap      omega  full diag
   1    -82.9867712 -0.829868E+02  0.188E-03    2.19       0.0  T
   2    -82.9867712 -0.336229E-09  0.110E-03    2.19      13.0  T
   3    -82.9867712  0.613056E-10  0.706E-05    2.19     202.3  T
   4    -82.9867712 -0.198199E-09  0.257E-05    2.19     556.5  T
     SCC iter.                  ...        0 min,  0.019 sec
     gradient                   ...        0 min,  0.005 sec
 * total energy  :   -81.5533337 Eh     change       -0.1305281E-06 Eh
   gradient norm :     0.0000360 Eh/α   predicted     0.0000000E+00 (-100.00%)
   displ. norm   :     0.0000540 α      lambda        0.0000000E+00
   maximum displ.:     0.0000313 α      in ANC's #1, #7, #133, ...

........................................................................
.............................. CYCLE   22 ..............................
........................................................................

 iter      E             dE          RMSdq      gap      omega  full diag
   1    -82.9867759 -0.829868E+02  0.561E-05    2.19       0.0  T
   2    -82.9867759 -0.440821E-10  0.316E-05    2.19     452.5  T
   3    -82.9867759 -0.135003E-11  0.182E-05    2.19     785.9  T
     SCC iter.                  ...        0 min,  0.015 sec
     gradient                   ...        0 min,  0.005 sec
 * total energy  :   -81.5533337 Eh     change       -0.1384961E-08 Eh
   gradient norm :     0.0000280 Eh/α   predicted    -0.8075149E-09 ( -41.69%)
   displ. norm   :     0.0000540 α      lambda        0.0000000E+00
   maximum displ.:     0.0000313 α      in ANC's #1, #7, #133, ...

   *** GEOMETRY OPTIMIZATION CONVERGED AFTER 22 ITERATIONS ***

------------------------------------------------------------------------
 total energy gain   :        -0.0000506 Eh       -0.0318 kcal/mol
 total RMSD          :         0.0430086 a0        0.0228 Å
 total power (kW/mol):        -0.0060445 (step)   -0.2048 (real)
------------------------------------------------------------------------

 ANCopt (total)                0 d,  0 h,  0 min,  0.649 sec
 optimizer setup                ...        0 min,  0.000 sec (  0.041%)
 model hessian                  ...        0 min,  0.029 sec (  4.391%)
 ANC generation                 ...        0 min,  0.005 sec (  0.757%)
 coordinate transformation      ...        0 min,  0.002 sec (  0.381%)
 single point calculation       ...        0 min,  0.603 sec ( 92.818%)
 optimization log               ...        0 min,  0.004 sec (  0.605%)
 hessian update                 ...        0 min,  0.003 sec (  0.392%)
 rational function              ...        0 min,  0.002 sec (  0.294%)

================
 final structure:
================
49
 xtb: 6.7.1 (edcfbbe)
C           -6.98201784254481        2.39657313455523        0.78951335811054
C           -6.78296494525390        1.25088531213139        1.54253321233105
C           -5.69057369356099        0.43783429065331        1.29985376907859
C           -4.79299230165159        0.76590040106528        0.28844322622988
N           -3.68473928449050       -0.06101400479410        0.03378072719260
C           -3.72793148817498       -1.42292982569944       -0.19191065508753
C           -4.82306452579189       -2.27288303263240       -0.26186957310829
C           -4.58751492088857       -3.60783282625334       -0.52988822816539
C           -3.29669517055091       -4.09314287990343       -0.73287894925383
C           -2.20506782787469       -3.24926227131481       -0.68425467053344
C           -2.41646750873783       -1.90247328463336       -0.41635668744295
C           -1.54481222112421       -0.76553626461830       -0.30978720639064
C           -0.17101383169157       -0.60717370033959       -0.40465930197674
C            0.37937758322563        0.65700602927570       -0.23122358525835
C            1.83221910994116        0.85129354933650       -0.33111423730792
C            2.36009759312860        1.97988765707214       -0.97195709852252
N            3.65084531924312        2.24639081761109       -1.10753780637741
C            4.47328505912034        1.35949881348722       -0.59038298865485
O            5.82419078198809        1.48915632246091       -0.63739675826345
C            6.32663721494122        0.39849442170097       -0.00879734299613
N            7.61795004141455        0.19262708293445        0.13444538886573
C            7.95104749768494       -0.92182014634582        0.77450158461889
C            7.03843503947125       -1.84258635006486        1.27872093338045
C            5.67879940694796       -1.62008194740604        1.12482966716038
C            5.30295673514785       -0.46249242837788        0.45976862753570
C            4.07632446764449        0.17464554329567        0.07415038826377
C            2.72141815264255       -0.08039641668516        0.20490832770816
C           -0.45609234989136        1.74752205360623        0.05317110586405
C           -1.82406071443334        1.61024909971673        0.16070617839507
C           -2.37296846396320        0.34975302847562       -0.03745466358354
C           -4.99572152873117        1.91449110244539       -0.47045011459832
C           -6.08544989721119        2.72680681601102       -0.21365703843814
H           -7.83362742185796        3.03100033318897        0.98445168009873
H           -7.47664259396956        0.99193540396505        2.32883990933098
H           -5.52083635824842       -0.44596475217012        1.89686107097538
H           -5.82763802134385       -1.90352700526224       -0.12172545900467
H           -5.42284994896051       -4.29043128535919       -0.58733569953674
H           -3.15418271392672       -5.14385630572035       -0.93891297288190
H           -1.20683404914024       -3.62344205733118       -0.85604198875201
H            0.45875816833024       -1.45382315042387       -0.63245642119341
H            1.70304409974453        2.71219313106797       -1.41985491209590
H            9.01529454180392       -1.07619486131299        0.88446813757118
H            7.39572185740515       -2.72389394984017        1.78677261183325
H            4.94398912548747       -2.31350776775709        1.50490612982208
H            2.36400278167802       -0.95860320094565        0.72094677922667
H           -0.00935761159735        2.71642687766504        0.21897369270769
H           -2.44514071623907        2.45859004290635        0.40445359105025
H           -4.30506018973353        2.15747190378282       -1.26433340391206
H           -6.23854107940765        3.61746588737970       -0.80511944691500
 
 Bond Distances (Angstroems)
 ---------------------------
C1-C2=1.3854         C1-C32=1.3854        C1-H33=1.0797        C2-C1=1.3854         C2-C3=1.3832         C2-H34=1.0801        
C3-C2=1.3832         C3-C4=1.3915         C3-H35=1.0800        C4-C3=1.3915         C4-N5=1.4060         C4-C31=1.3915        
N5-C4=1.4060         N5-C6=1.3812         N5-C30=1.3764        C6-N5=1.3812         C6-C7=1.3880         C6-C11=1.4143        
C7-C6=1.3880         C7-C8=1.3818         C7-H36=1.0795        C8-C7=1.3818         C8-C9=1.3939         C8-H37=1.0803        
C9-C8=1.3939         C9-C10=1.3806        C9-H38=1.0802        C10-C9=1.3806        C10-C11=1.3894       C10-H39=1.0798       
C11-C6=1.4143        C11-C10=1.3894       C11-C12=1.4366       C12-C11=1.4366       C12-C13=1.3861       C12-C30=1.4156       
C13-C12=1.3861       C13-C14=1.3897       C13-H40=1.0795       C14-C13=1.3897       C14-C15=1.4692       C14-C28=1.4029       
C15-C14=1.4692       C15-C16=1.4011       C15-C27=1.3950       C16-C15=1.4011       C16-N17=1.3249       C16-H41=1.0810       
N17-C16=1.3249       N17-C18=1.3155       C18-N17=1.3155       C18-O19=1.3579       C18-C26=1.4153       O19-C18=1.3579       
O19-C20=1.3554       C20-O19=1.3554       C20-N21=1.3154       C20-C25=1.4173       N21-C20=1.3154       N21-C22=1.3276       
C22-N21=1.3276       C22-C23=1.3910       C22-H42=1.0810       C23-C22=1.3910       C23-C24=1.3863       C23-H43=1.0782       
C24-C23=1.3863       C24-C25=1.3869       C24-H44=1.0795       C25-C20=1.4173       C25-C24=1.3869       C25-C26=1.4350       
C26-C18=1.4153       C26-C25=1.4350       C26-C27=1.3849       C27-C15=1.3950       C27-C26=1.3849       C27-H45=1.0795       
C28-C14=1.4029       C28-C29=1.3790       C28-H46=1.0797       C29-C28=1.3790       C29-C30=1.3890       C29-H47=1.0793       
C30-N5=1.3764        C30-C12=1.4156       C30-C29=1.3890       C31-C4=1.3915        C31-C32=1.3832       C31-H48=1.0800       
C32-C1=1.3854        C32-C31=1.3832       C32-H49=1.0801       H33-C1=1.0797        H34-C2=1.0801        H35-C3=1.0800        
H36-C7=1.0795        H37-C8=1.0803        H38-C9=1.0802        H39-C10=1.0798       H40-C13=1.0795       H41-C16=1.0810       
H42-C22=1.0810       H43-C23=1.0782       H44-C24=1.0795       H45-C27=1.0795       H46-C28=1.0797       H47-C29=1.0793       
H48-C31=1.0800       H49-C32=1.0801       
 C  H  Rav=1.0798 sigma=0.0006  Rmin=1.0782  Rmax=1.0810    17
 C  C  Rav=1.3982 sigma=0.0203  Rmin=1.3790  Rmax=1.4692    29
 N  C  Rav=1.3496 sigma=0.0345  Rmin=1.3154  Rmax=1.4060     7
 O  C  Rav=1.3567 sigma=0.0013  Rmin=1.3554  Rmax=1.3579     2
 
 selected bond angles (degree)
 --------------------
C32-C1-C2=119.85               H33-C1-C2=120.07               H33-C1-C32=120.07              C3-C2-C1=120.28                
H34-C2-C1=120.11               H34-C2-C3=119.61               C4-C3-C2=119.89                H35-C3-C2=120.54               
H35-C3-C4=119.56               N5-C4-C3=120.10                C31-C4-C3=119.80               C31-C4-N5=120.10               
C6-N5-C4=125.79                C30-N5-C4=125.81               C30-N5-C6=108.40               C7-C6-N5=129.55                
C11-C6-N5=109.35               C11-C6-C7=121.06               C8-C7-C6=117.83                H36-C7-C6=121.21               
H36-C7-C8=120.96               C9-C8-C7=121.50                H37-C8-C7=119.27               H37-C8-C9=119.23               
C10-C9-C8=120.95               H38-C9-C8=119.25               H38-C9-C10=119.80              C11-C10-C9=118.62              
H39-C10-C9=120.90              H39-C10-C11=120.48             
 
 selected dihedral angles (degree)
 ---------------------------------
C3-C2-C1-C32=  0.21           C3-C2-C1-H33=180.25           H34-C2-C1-C32=179.70          H34-C2-C1-H33=359.74          
C4-C3-C2-C1=359.50            C4-C3-C2-H34=180.01           H35-C3-C2-C1=178.81           H35-C3-C2-H34=359.32          
N5-C4-C3-C2=180.31            N5-C4-C3-H35=  1.00           C31-C4-C3-C2=  0.29           C31-C4-C3-H35=180.98          
C6-N5-C4-C3= 52.51            C6-N5-C4-C31=232.53           C30-N5-C4-C3=232.27           C30-N5-C4-C31= 52.29          
C7-C6-N5-C4=  2.09            C7-C6-N5-C30=182.29           C11-C6-N5-C4=179.69           C11-C6-N5-C30=359.89          
C8-C7-C6-N5=178.69            C8-C7-C6-C11=  1.34           H36-C7-C6-N5=359.30           H36-C7-C6-C11=181.95          
C9-C8-C7-C6=359.62            C9-C8-C7-H36=179.01           H37-C8-C7-C6=179.86           H37-C8-C7-H36=359.26          
C10-C9-C8-C7=359.42           C10-C9-C8-H37=179.18          H38-C9-C8-C7=179.93           H38-C9-C8-H37=359.69          
C11-C10-C9-C8=  0.56          C11-C10-C9-H38=180.05         H39-C10-C9-C8=180.91          H39-C10-C9-H38=  0.40         
           -------------------------------------------------
          |                Final Singlepoint                |
           -------------------------------------------------

          ...................................................
          :                      SETUP                      :
          :.................................................:
          :  # basis functions                 145          :
          :  # atomic orbitals                 145          :
          :  # shells                           81          :
          :  # electrons                       150          :
          :  max. iterations                   250          :
          :  Hamiltonian                  GFN2-xTB          :
          :  restarted?                      false          :
          :  GBSA solvation                   true          :
          :  PC potential                    false          :
          :  electronic temp.          300.0000000     K    :
          :  accuracy                    1.0000000          :
          :  -> integral cutoff          0.2500000E+02      :
          :  -> integral neglect         0.1000000E-07      :
          :  -> SCF convergence          0.1000000E-05 Eh   :
          :  -> wf. convergence          0.1000000E-03 e    :
          :  Broyden damping             0.4000000          :
          :  net charge                          0          :
          :  unpaired electrons                  0          :
          ...................................................

 iter      E             dE          RMSdq      gap      omega  full diag
   1    -82.9867759 -0.829868E+02  0.730E-06    2.19       0.0  T
   2    -82.9867759 -0.511591E-12  0.461E-06    2.19    3097.0  T
   3    -82.9867759 -0.724754E-12  0.231E-06    2.19    6197.7  T

   *** convergence criteria satisfied after 3 iterations ***

         #    Occupation            Energy/Eh            Energy/eV
      -------------------------------------------------------------
         1        2.0000           -0.7570687             -20.6009
       ...           ...                  ...                  ...
        69        2.0000           -0.4139675             -11.2646
        70        2.0000           -0.4118313             -11.2065
        71        2.0000           -0.4032228             -10.9723
        72        2.0000           -0.3908331             -10.6351
        73        2.0000           -0.3886989             -10.5770
        74        2.0000           -0.3829678             -10.4211
        75        2.0000           -0.3652389              -9.9387 (HOMO)
        76                         -0.2847685              -7.7489 (LUMO)
        77                         -0.2658442              -7.2340
        78                         -0.2506637              -6.8209
        79                         -0.2446623              -6.6576
        80                         -0.2343738              -6.3776
       ...                                ...                  ...
       145                          0.7430405              20.2192
      -------------------------------------------------------------
                  HL-Gap            0.0804705 Eh            2.1897 eV
             Fermi-level           -0.3250037 Eh           -8.8438 eV

 SCC (total)                   0 d,  0 h,  0 min,  0.023 sec
 SCC setup                      ...        0 min,  0.000 sec (  1.725%)
 Dispersion                     ...        0 min,  0.000 sec (  1.967%)
 classical contributions        ...        0 min,  0.000 sec (  0.167%)
 integral evaluation            ...        0 min,  0.002 sec (  8.346%)
 iterations                     ...        0 min,  0.014 sec ( 63.676%)
 molecular gradient             ...        0 min,  0.005 sec ( 22.486%)
 printout                       ...        0 min,  0.000 sec (  1.244%)

         :::::::::::::::::::::::::::::::::::::::::::::::::::::
         ::                     SUMMARY                     ::
         :::::::::::::::::::::::::::::::::::::::::::::::::::::
         :: total energy             -81.553333716177 Eh    ::
         :: total w/o Gsasa/hb       -81.521437318025 Eh    ::
         :: gradient norm              0.000029001380 Eh/a0 ::
         :: HOMO-LUMO gap              2.189712882231 eV    ::
         ::.................................................::
         :: SCC energy               -82.987395144969 Eh    ::
         :: -> isotropic ES            0.035703875603 Eh    ::
         :: -> anisotropic ES          0.006343226833 Eh    ::
         :: -> anisotropic XC          0.047929065290 Eh    ::
         :: -> dispersion             -0.063985598776 Eh    ::
         :: -> Gsolv                  -0.036380345307 Eh    ::
         ::    -> Gelec               -0.004483947154 Eh    ::
         ::    -> Gsasa               -0.036420278024 Eh    ::
         ::    -> Ghb                  0.000000000000 Eh    ::
         ::    -> Gshift               0.004523879872 Eh    ::
         :: repulsion energy           1.434061428793 Eh    ::
         :: add. restraining           0.000000000000 Eh    ::
         :: total charge               0.000000000000 e     ::
         :::::::::::::::::::::::::::::::::::::::::::::::::::::

           ------------------------------------------------- 
          |                Numerical Hessian                |
           ------------------------------------------------- 
step length          :   0.00500
SCC accuracy         :   0.30000
Hessian scale factor :   1.00000
frozen atoms in %    :   0.00000    0
RMS gradient         :   0.00003
estimated CPU  time      2.83 min
estimated wall time      0.07 min

writing file <hessian>.

 projected vibrational frequencies (cm⁻¹)
eigval :       -0.00    -0.00     0.00     0.00     0.00     0.00
eigval :       19.00    30.18    38.41    57.73    61.09    62.59
eigval :       93.44   108.71   130.78   135.44   167.60   187.32
eigval :      199.85   225.09   256.08   261.41   283.96   285.86
eigval :      328.05   364.52   380.70   386.73   399.82   406.82
eigval :      416.62   428.14   434.55   444.73   472.81   481.64
eigval :      528.11   536.46   539.20   545.11   573.97   575.81
eigval :      590.64   594.44   608.27   613.35   629.11   631.45
eigval :      667.59   680.84   683.13   710.98   723.33   727.50
eigval :      736.51   762.92   774.76   775.55   797.71   818.39
eigval :      823.37   854.01   862.93   868.63   876.59   879.62
eigval :      882.01   899.63   902.06   904.61   905.03   914.14
eigval :      914.45   917.29   922.45   928.78   930.80   934.85
eigval :      997.33  1012.09  1032.18  1069.45  1074.08  1078.90
eigval :     1085.35  1117.16  1120.93  1130.42  1153.75  1173.24
eigval :     1177.05  1179.20  1181.89  1182.82  1198.78  1217.07
eigval :     1236.05  1243.36  1248.05  1263.62  1267.86  1273.48
eigval :     1288.67  1305.55  1315.24  1317.79  1332.66  1349.59
eigval :     1354.47  1359.57  1363.11  1372.71  1418.97  1428.85
eigval :     1433.78  1445.85  1466.68  1478.74  1481.09  1487.26
eigval :     1551.93  1564.07  1572.37  1574.75  1581.75  1582.58
eigval :     1592.83  1594.70  1608.88  1613.84  3071.88  3072.72
eigval :     3073.81  3076.45  3078.14  3078.67  3083.48  3085.73
eigval :     3086.16  3086.85  3087.49  3089.61  3090.45  3093.42
eigval :     3095.57  3096.91  3107.20
           -------------------------------------------------
          |                Property Printout                |
           -------------------------------------------------

    * Orbital Energies and Occupations

         #    Occupation            Energy/Eh            Energy/eV
      -------------------------------------------------------------
         1        2.0000           -0.7570687             -20.6009
       ...           ...                  ...                  ...
        63        2.0000           -0.4324775             -11.7683
        64        2.0000           -0.4286796             -11.6650
        65        2.0000           -0.4239593             -11.5365
        66        2.0000           -0.4235140             -11.5244
        67        2.0000           -0.4207587             -11.4494
        68        2.0000           -0.4141709             -11.2702
        69        2.0000           -0.4139675             -11.2646
        70        2.0000           -0.4118313             -11.2065
        71        2.0000           -0.4032228             -10.9723
        72        2.0000           -0.3908331             -10.6351
        73        2.0000           -0.3886989             -10.5770
        74        2.0000           -0.3829678             -10.4211
        75        2.0000           -0.3652389              -9.9387 (HOMO)
        76                         -0.2847685              -7.7489 (LUMO)
        77                         -0.2658442              -7.2340
        78                         -0.2506637              -6.8209
        79                         -0.2446623              -6.6576
        80                         -0.2343738              -6.3776
        81                         -0.2326571              -6.3309
        82                         -0.2279732              -6.2035
        83                         -0.2159226              -5.8756
        84                         -0.1919755              -5.2239
        85                         -0.1867788              -5.0825
        86                         -0.1317024              -3.5838
       ...                                ...                  ...
       145                          0.7430405              20.2192
      -------------------------------------------------------------
                  HL-Gap            0.0804705 Eh            2.1897 eV
             Fermi-level           -0.3250037 Eh           -8.8438 eV

     #   Z          covCN         q      C6AA      α(0)
     1   6 C        2.919    -0.032    28.796     8.800
     2   6 C        2.920    -0.027    28.688     8.783
     3   6 C        2.922    -0.041    29.030     8.836
     4   6 C        2.913     0.063    26.590     8.456
     5   7 N        2.802    -0.041    22.026     6.970
     6   6 C        3.078     0.047    26.852     8.496
     7   6 C        2.909    -0.050    29.252     8.869
     8   6 C        2.924    -0.034    28.841     8.807
     9   6 C        2.920    -0.042    29.034     8.836
    10   6 C        2.912    -0.034    28.847     8.807
    11   6 C        3.067    -0.018    28.388     8.737
    12   6 C        3.066    -0.017    28.373     8.735
    13   6 C        2.917    -0.038    28.939     8.822
    14   6 C        2.976    -0.004    28.124     8.699
    15   6 C        2.975    -0.003    28.091     8.694
    16   6 C        2.941     0.053    26.800     8.490
    17   7 N        1.830    -0.262    27.660     7.793
    18   6 C        3.129     0.215    23.293     7.902
    19   8 O        1.714    -0.220    17.655     5.673
    20   6 C        3.128     0.219    23.228     7.891
    21   7 N        1.830    -0.259    27.582     7.782
    22   6 C        2.936     0.059    26.684     8.472
    23   6 C        2.918    -0.048    29.191     8.860
    24   6 C        2.919    -0.016    28.399     8.739
    25   6 C        3.056    -0.033    28.769     8.796
    26   6 C        3.050    -0.035    28.817     8.804
    27   6 C        2.924    -0.024    28.614     8.772
    28   6 C        2.928    -0.039    28.973     8.827
    29   6 C        2.908    -0.050    29.236     8.866
    30   6 C        3.077     0.048    26.843     8.494
    31   6 C        2.922    -0.042    29.036     8.837
    32   6 C        2.920    -0.027    28.686     8.783
    33   1 H        0.926     0.040     2.445     2.445
    34   1 H        0.926     0.041     2.432     2.439
    35   1 H        0.926     0.042     2.416     2.431
    36   1 H        0.926     0.033     2.550     2.497
    37   1 H        0.926     0.032     2.556     2.500
    38   1 H        0.926     0.030     2.590     2.516
    39   1 H        0.926     0.032     2.562     2.503
    40   1 H        0.926     0.036     2.496     2.470
    41   1 H        0.926     0.055     2.257     2.349
    42   1 H        0.926     0.057     2.234     2.337
    43   1 H        0.926     0.060     2.197     2.318
    44   1 H        0.926     0.060     2.202     2.320
    45   1 H        0.926     0.057     2.229     2.334
    46   1 H        0.926     0.035     2.521     2.483
    47   1 H        0.926     0.037     2.483     2.464
    48   1 H        0.926     0.042     2.419     2.432
    49   1 H        0.926     0.041     2.432     2.439

 Mol. C6AA /au·bohr⁶  :      37558.430977
 Mol. C8AA /au·bohr⁸  :     956719.321060
 Mol. α(0) /au        :        312.406359


MOs/occ written to file <molden.input>


molecular dipole:
                 x           y           z       tot (Debye)
 q only:       -2.076      -0.907       0.824
   full:       -2.344      -1.280       1.058       7.302
molecular quadrupole (traceless):
                xx          xy          yy          xz          yz          zz
 q only:       -1.890     -28.995       2.303       9.321      -0.812      -0.413
  q+dip:       -3.760     -36.591       7.831      10.024      -1.888      -4.071
   full:       -7.749     -36.207       4.658      12.204       1.300       3.091

           -------------------------------------------------
          |                Geometry Summary                 |
           -------------------------------------------------

      molecular mass/u    :      411.4551125
   center of mass at/Å    :        0.0003150       0.0001390       0.0018817
  moments of inertia/u·Å² :        0.1524449E+04   0.9227065E+04   0.1036509E+05
rotational constants/cm⁻¹ :        0.1105818E-01   0.1826977E-02   0.1626386E-02

 * 54 selected distances

     #   Z          #   Z                                           value/Å
     1   6 C        2   6 C                                       1.3853743
     2   6 C        3   6 C                                       1.3832080
     3   6 C        4   6 C                                       1.3914853
     4   6 C        5   7 N                                       1.4060105
     5   7 N        6   6 C                                       1.3811652
     6   6 C        7   6 C                                       1.3880315
     7   6 C        8   6 C                                       1.3818136
     8   6 C        9   6 C                                       1.3938964
     9   6 C       10   6 C                                       1.3806337
     6   6 C       11   6 C                                       1.4143112
    10   6 C       11   6 C                                       1.3893524
    11   6 C       12   6 C                                       1.4365814 (max)
    12   6 C       13   6 C                                       1.3861464
    13   6 C       14   6 C                                       1.3896623
    15   6 C       16   6 C                                       1.4010925
    16   6 C       17   7 N                                       1.3249287
    17   7 N       18   6 C                                       1.3154596
    18   6 C       19   8 O                                       1.3579278
    19   8 O       20   6 C                                       1.3554089
    20   6 C       21   7 N                                       1.3154425
    21   7 N       22   6 C                                       1.3276365
    22   6 C       23   6 C                                       1.3910102
    23   6 C       24   6 C                                       1.3862901
    20   6 C       25   6 C                                       1.4173124
    24   6 C       25   6 C                                       1.3869311
    18   6 C       26   6 C                                       1.4152950
    25   6 C       26   6 C                                       1.4350168
    15   6 C       27   6 C                                       1.3950060
    26   6 C       27   6 C                                       1.3848883
    14   6 C       28   6 C                                       1.4028955
    28   6 C       29   6 C                                       1.3790379
     5   7 N       30   6 C                                       1.3764255
    12   6 C       30   6 C                                       1.4155841
    29   6 C       30   6 C                                       1.3890350
     4   6 C       31   6 C                                       1.3915025
     1   6 C       32   6 C                                       1.3853662
    31   6 C       32   6 C                                       1.3832237
     1   6 C       33   1 H                                       1.0796934
     2   6 C       34   1 H                                       1.0800566
     3   6 C       35   1 H                                       1.0799673
     7   6 C       36   1 H                                       1.0794593
     8   6 C       37   1 H                                       1.0802896
     9   6 C       38   1 H                                       1.0801661
    10   6 C       39   1 H                                       1.0798112
    13   6 C       40   1 H                                       1.0794998
    16   6 C       41   1 H                                       1.0810196
    22   6 C       42   1 H                                       1.0809931
    23   6 C       43   1 H                                       1.0781807 (min)
    24   6 C       44   1 H                                       1.0794646
    27   6 C       45   1 H                                       1.0794854
    28   6 C       46   1 H                                       1.0797403
    29   6 C       47   1 H                                       1.0792756
    31   6 C       48   1 H                                       1.0799554
    32   6 C       49   1 H                                       1.0800641

 * 4 distinct bonds (by element types)

   Z      Z             #   av. dist./Å        max./Å        min./Å
   1 H    6 C          17     1.0798307     1.0810196     1.0781807
   6 C    6 C          28     1.3957137     1.4365814     1.3790379
   6 C    7 N           7     1.3495812     1.4060105     1.3154425
   6 C    8 O           2     1.3566684     1.3579278     1.3554089

           -------------------------------------------------
          |               Frequency Printout                |
           -------------------------------------------------
 projected vibrational frequencies (cm⁻¹)
eigval :       -0.00    -0.00     0.00     0.00     0.00     0.00
eigval :       19.00    30.18    38.41    57.73    61.09    62.59
eigval :       93.44   108.71   130.78   135.44   167.60   187.32
eigval :      199.85   225.09   256.08   261.41   283.96   285.86
eigval :      328.05   364.52   380.70   386.73   399.82   406.82
eigval :      416.62   428.14   434.55   444.73   472.81   481.64
eigval :      528.11   536.46   539.20   545.11   573.97   575.81
eigval :      590.64   594.44   608.27   613.35   629.11   631.45
eigval :      667.59   680.84   683.13   710.98   723.33   727.50
eigval :      736.51   762.92   774.76   775.55   797.71   818.39
eigval :      823.37   854.01   862.93   868.63   876.59   879.62
eigval :      882.01   899.63   902.06   904.61   905.03   914.14
eigval :      914.45   917.29   922.45   928.78   930.80   934.85
eigval :      997.33  1012.09  1032.18  1069.45  1074.08  1078.90
eigval :     1085.35  1117.16  1120.93  1130.42  1153.75  1173.24
eigval :     1177.05  1179.20  1181.89  1182.82  1198.78  1217.07
eigval :     1236.05  1243.36  1248.05  1263.62  1267.86  1273.48
eigval :     1288.67  1305.55  1315.24  1317.79  1332.66  1349.59
eigval :     1354.47  1359.57  1363.11  1372.71  1418.97  1428.85
eigval :     1433.78  1445.85  1466.68  1478.74  1481.09  1487.26
eigval :     1551.93  1564.07  1572.37  1574.75  1581.75  1582.58
eigval :     1592.83  1594.70  1608.88  1613.84  3071.88  3072.72
eigval :     3073.81  3076.45  3078.14  3078.67  3083.48  3085.73
eigval :     3086.16  3086.85  3087.49  3089.61  3090.45  3093.42
eigval :     3095.57  3096.91  3107.20
 reduced masses (amu)
   1: 11.61   2: 12.28   3: 12.36   4: 11.36   5: 11.82   6: 11.23   7: 11.25   8: 11.23
   9: 11.92  10: 11.08  11: 10.01  12: 10.82  13: 10.87  14: 10.98  15: 10.84  16: 10.98
  17: 10.83  18: 11.77  19: 10.93  20: 10.90  21: 11.08  22: 10.85  23: 11.08  24: 11.11
  25: 11.32  26: 11.16  27:  9.05  28: 10.56  29:  9.49  30: 11.10  31: 10.77  32:  9.99
  33: 11.37  34: 11.40  35: 10.98  36: 10.84  37: 11.48  38: 11.13  39: 11.20  40: 10.85
  41: 10.98  42: 11.40  43: 11.43  44: 11.56  45: 11.68  46: 11.29  47: 10.93  48: 11.98
  49: 10.34  50: 11.82  51: 11.67  52: 11.55  53: 11.75  54: 11.63  55: 12.00  56:  4.44
  57:  8.03  58:  7.39  59:  3.64  60:  6.84  61:  9.44  62:  4.58  63: 12.67  64:  3.46
  65:  4.21  66: 10.86  67:  3.77  68:  3.84  69:  4.02  70:  4.21  71:  4.04  72:  3.48
  73:  3.64  74: 11.28  75:  3.15  76: 10.56  77:  4.03  78:  3.71  79: 10.77  80: 11.28
  81:  9.18  82:  6.07  83:  6.39  84:  6.79  85:  6.41  86:  3.89  87:  7.66  88:  5.92
  89:  3.77  90:  6.50  91:  3.08  92:  1.40  93:  6.20  94:  4.41  95:  3.63  96:  5.18
  97:  6.60  98:  6.18  99:  6.21 100:  6.74 101:  9.75 102:  4.11 103:  8.12 104:  9.42
 105: 11.86 106: 11.28 107: 10.92 108: 11.08 109: 11.03 110: 10.92 111: 10.05 112: 11.37
 113:  9.75 114: 10.33 115:  9.01 116: 10.51 117: 10.97 118: 10.19 119: 10.51 120: 10.97
 121: 11.86 122: 11.69 123: 12.03 124: 12.11 125: 11.59 126: 11.57 127: 11.49 128: 11.70
 129: 11.79 130: 11.77 131:  1.81 132:  1.75 133:  1.80 134:  1.75 135:  1.80 136:  1.79
 137:  1.78 138:  1.83 139:  1.85 140:  1.84 141:  1.83 142:  1.83 143:  1.88 144:  1.90
 145:  1.88 146:  1.92 147:  1.88
 IR intensities (km·mol⁻¹)
   1:  0.11   2:  0.04   3:  0.31   4:  0.27   5:  0.05   6:  0.08   7:  0.20   8:  0.81
   9:  2.93  10:  0.74  11:  1.17  12:  0.05  13:  0.96  14:  0.17  15:  1.00  16:  0.17
  17:  0.09  18:  0.33  19:  0.32  20:  0.34  21:  0.72  22:  0.27  23:  1.71  24:  0.35
  25:  0.29  26:  2.49  27:  1.98  28:  2.55  29:  4.20  30:  0.73  31:  2.85  32:  0.73
  33:  4.80  34:  1.73  35:  1.66  36:  6.24  37:  5.67  38:  2.81  39:  5.86  40:  1.01
  41:  2.54  42:  2.60  43:  0.57  44:  1.02  45:  2.16  46:  3.60  47:  2.23  48:  0.92
  49:  5.58  50:  7.61  51:  4.87  52:  2.64  53: 10.96  54: 10.98  55:  2.07  56: 29.61
  57: 18.91  58: 27.13  59: 30.25  60: 12.57  61: 25.49  62:  9.93  63: 48.46  64:  0.21
  65:  6.99  66: 12.75  67:  0.06  68:  4.22  69:  0.52  70:  0.43  71:  0.41  72:  0.42
  73:  0.20  74:  3.89  75:  0.21  76:  5.67  77:  0.11  78:  0.26  79:  1.50  80:  9.48
  81:  0.71  82:  0.24  83:  2.40  84:  0.41  85:  4.00  86:  0.78  87:  2.70  88: 28.29
  89: 34.94  90: 87.48  91: 39.44  92:  0.45  93:144.51  94: 24.06  95:  8.33  96: 12.43
  97: 49.63  98: 64.95  99:100.37 100: 66.15 101:  9.67 102: 22.31 103: 84.78 104: 62.30
 105:  0.09 106: 30.76 107:  9.90 108: 32.17 109:159.12 110: 15.07 111:  9.98 112:434.15
 113: 12.51 114:335.83 115: 15.39 116: 91.00 117: 13.31 118:203.13 119:163.72 120: 10.76
 121: 32.70 122: 11.97 123: 81.28 124: 45.77 125: 32.52 126: 24.56 127: 93.44 128: 74.98
 129: 49.30 130: 61.64 131: 22.14 132:  1.28 133: 21.44 134:  6.47 135: 29.04 136: 23.39
 137: 22.96 138:  1.12 139:144.39 140: 49.96 141: 66.70 142: 40.68 143:101.46 144:156.03
 145: 13.68 146: 52.12 147: 38.62
 Raman intensities (Ä⁴*amu⁻¹)
   1:  0.00   2:  0.00   3:  0.00   4:  0.00   5:  0.00   6:  0.00   7:  0.00   8:  0.00
   9:  0.00  10:  0.00  11:  0.00  12:  0.00  13:  0.00  14:  0.00  15:  0.00  16:  0.00
  17:  0.00  18:  0.00  19:  0.00  20:  0.00  21:  0.00  22:  0.00  23:  0.00  24:  0.00
  25:  0.00  26:  0.00  27:  0.00  28:  0.00  29:  0.00  30:  0.00  31:  0.00  32:  0.00
  33:  0.00  34:  0.00  35:  0.00  36:  0.00  37:  0.00  38:  0.00  39:  0.00  40:  0.00
  41:  0.00  42:  0.00  43:  0.00  44:  0.00  45:  0.00  46:  0.00  47:  0.00  48:  0.00
  49:  0.00  50:  0.00  51:  0.00  52:  0.00  53:  0.00  54:  0.00  55:  0.00  56:  0.00
  57:  0.00  58:  0.00  59:  0.00  60:  0.00  61:  0.00  62:  0.00  63:  0.00  64:  0.00
  65:  0.00  66:  0.00  67:  0.00  68:  0.00  69:  0.00  70:  0.00  71:  0.00  72:  0.00
  73:  0.00  74:  0.00  75:  0.00  76:  0.00  77:  0.00  78:  0.00  79:  0.00  80:  0.00
  81:  0.00  82:  0.00  83:  0.00  84:  0.00  85:  0.00  86:  0.00  87:  0.00  88:  0.00
  89:  0.00  90:  0.00  91:  0.00  92:  0.00  93:  0.00  94:  0.00  95:  0.00  96:  0.00
  97:  0.00  98:  0.00  99:  0.00 100:  0.00 101:  0.00 102:  0.00 103:  0.00 104:  0.00
 105:  0.00 106:  0.00 107:  0.00 108:  0.00 109:  0.00 110:  0.00 111:  0.00 112:  0.00
 113:  0.00 114:  0.00 115:  0.00 116:  0.00 117:  0.00 118:  0.00 119:  0.00 120:  0.00
 121:  0.00 122:  0.00 123:  0.00 124:  0.00 125:  0.00 126:  0.00 127:  0.00 128:  0.00
 129:  0.00 130:  0.00 131:  0.00 132:  0.00 133:  0.00 134:  0.00 135:  0.00 136:  0.00
 137:  0.00 138:  0.00 139:  0.00 140:  0.00 141:  0.00 142:  0.00 143:  0.00 144:  0.00
 145:  0.00 146:  0.00 147:  0.00
 output can be read by thermo (or use thermo option).
 writing <g98.out> molden fake output.
 recommended (thermochemical) frequency scaling factor: 1.0
           -------------------------------------------------
          |             Thermodynamic Functions             |
           -------------------------------------------------

Molecule has no symmetry elements
It seems to be the C1 point group
c1  symmetry found (for desy threshold:  0.10E+00) used in thermo

          ...................................................
          :                      SETUP                      :
          :.................................................:
          :  # frequencies                         141      :
          :  # imaginary freq.                       0      :
          :  linear?                             false      :
          :  only rotor calc.                    false      :
          :  symmetry                               c1      :
          :  rotational number                       1      :
          :  scaling factor                  1.0000000      :
          :  rotor cutoff                   50.0000000 cm⁻¹ :
          :  imag. cutoff                  -20.0000000 cm⁻¹ :
          :.................................................:

    mode    ω/cm⁻¹     T·S(HO)/kcal·mol⁻¹    T·S(FR)/kcal·mol⁻¹   T·S(vib)
   ------------------------------------------------------------------------
       1     19.00    -2.00825 (  2.04%)    -1.34310 ( 97.96%)    -1.35669
       2     30.18    -1.73454 ( 11.72%)    -1.20610 ( 88.28%)    -1.26801
       3     38.41    -1.59196 ( 25.83%)    -1.13466 ( 74.17%)    -1.25277
       4     57.73    -1.35160 ( 63.99%)    -1.01395 ( 36.01%)    -1.23002
       5     61.09    -1.31829 ( 69.03%)    -0.99718 ( 30.97%)    -1.21884
       6     62.59    -1.30406 ( 71.06%)    -0.99001 ( 28.94%)    -1.21317
       7     93.44    -1.06938 ( 92.42%)    -0.87130 (  7.58%)    -1.05437
       8    108.71    -0.98147 ( 95.72%)    -0.82647 (  4.28%)    -0.97483
       9    130.78    -0.87493 ( 97.91%)    -0.77171 (  2.09%)    -0.87277
      10    135.44    -0.85489 ( 98.18%)    -0.76134 (  1.82%)    -0.85318
      11    167.60    -0.73412 ( 99.21%)    -0.69823 (  0.79%)    -0.73384
      12    187.32    -0.67208 ( 99.49%)    -0.66527 (  0.51%)    -0.67204
      13    199.85    -0.63640 ( 99.61%)    -0.64609 (  0.39%)    -0.63644
      14    225.09    -0.57178 ( 99.76%)    -0.61086 (  0.24%)    -0.57188
      15    256.08    -0.50338 ( 99.85%)    -0.57265 (  0.15%)    -0.50348
      16    261.41    -0.49264 ( 99.87%)    -0.56654 (  0.13%)    -0.49273
      17    283.96    -0.45012 ( 99.90%)    -0.54203 (  0.10%)    -0.45021
      18    285.86    -0.44672 ( 99.91%)    -0.54005 (  0.09%)    -0.44681
   ------------------------------------------------------------------------

   temp. (K)  partition function   enthalpy   heat capacity  entropy
                                   cal/mol     cal/K/mol   cal/K/mol   J/K/mol
 298.15  VIB  0.654E+09            12885.304     87.079     77.540
         ROT  0.292E+08              888.752      2.981     37.139
         INT  0.191E+17            13774.056     90.060    114.679
         TR   0.807E+28             1481.254      4.968     43.914
         TOT                       15255.3099    95.0285   158.5932   663.5540

       T/K    H(0)-H(T)+PV         H(T)/Eh          T*S/Eh         G(T)/Eh
   ------------------------------------------------------------------------
    298.15    0.243109E-01    0.389964E+00    0.753528E-01    0.314611E+00
   ------------------------------------------------------------------------

         :::::::::::::::::::::::::::::::::::::::::::::::::::::
         ::                  THERMODYNAMIC                  ::
         :::::::::::::::::::::::::::::::::::::::::::::::::::::
         :: total free energy         -81.238722955995 Eh   ::
         ::.................................................::
         :: total energy              -81.553333713921 Eh   ::
         :: zero point energy           0.365652630146 Eh   ::
         :: G(RRHO) w/o ZPVE           -0.051041872220 Eh   ::
         :: G(RRHO) contrib.            0.314610757926 Eh   ::
         :::::::::::::::::::::::::::::::::::::::::::::::::::::

optimized geometry written to: xtbopt.xyz


           -------------------------------------------------
          | TOTAL ENERGY              -81.553333713921 Eh   |
          | TOTAL ENTHALPY            -81.163370199948 Eh   |
          | TOTAL FREE ENERGY         -81.238722955995 Eh   |
          | GRADIENT NORM               0.000028996956 Eh/α |
          | HOMO-LUMO GAP               2.189712772419 eV   |
           -------------------------------------------------

------------------------------------------------------------------------
 * finished run on 2025/09/09 at 09:09:30.270     
------------------------------------------------------------------------
 total:
 * wall-time:     0 d,  0 h,  0 min,  1.905 sec
 *  cpu-time:     0 d,  0 h,  1 min, 12.640 sec
 * ratio c/w:    38.125 speedup
 SCF:
 * wall-time:     0 d,  0 h,  0 min,  0.076 sec
 *  cpu-time:     0 d,  0 h,  0 min,  3.028 sec
 * ratio c/w:    39.792 speedup
 ANC optimizer:
 * wall-time:     0 d,  0 h,  0 min,  0.673 sec
 *  cpu-time:     0 d,  0 h,  0 min, 26.926 sec
 * ratio c/w:    39.994 speedup
 analytical hessian:
 * wall-time:     0 d,  0 h,  0 min,  1.055 sec
 *  cpu-time:     0 d,  0 h,  0 min, 39.046 sec
 * ratio c/w:    37.023 speedup

